<event>
 6    1  0.2238133E-007  0.7182583E+04  0.7818608E-02  0.7558893E-01
         -2   -1    0    0    0  501 -0.00000000000E+00  0.00000000000E+00  0.50752929021E+04  0.50752929021E+04  0.00000000000E+00 0.  1.
          2   -1    0    0  501    0  0.00000000000E+00 -0.00000000000E+00 -0.25412076758E+04  0.25412076758E+04  0.00000000000E+00 0. -1.
         23    2    1    2    0    0 -0.21605702482E+04 -0.20721544613E+04  0.33700326572E+04  0.45083345565E+04  0.77925946996E+02 0.  0.
         13    1    3    3    0    0 -0.10719942296E+04 -0.10109757414E+04  0.16031273719E+04  0.21774436728E+04  0.00000000000E+00 0.  1.
        -13    1    3    3    0    0 -0.10885760187E+04 -0.10611787200E+04  0.17669052854E+04  0.23308908837E+04  0.00000000000E+00 0. -1.
         22    1    1    2    0    0  0.21605702482E+04  0.20721544613E+04 -0.83594743097E+03  0.31081660214E+04  0.00000000000E+00 0. -1.
<mgrwt>
<rscale>  0 0.71825826E+04</rscale>
<asrwt>0</asrwt>
<pdfrwt beam="1">  1        2 0.39095503E+00 0.71825826E+04</pdfrwt>
<pdfrwt beam="2">  1       -2 0.78081429E+00 0.71825826E+04</pdfrwt>
<totfact> 0.20735309E-04</totfact>
</mgrwt>
</event>
<event>
 6    1  0.2238133E-007  0.2307099E+04  0.7818608E-02  0.8475127E-01
          2   -1    0    0  501    0  0.00000000000E+00  0.00000000000E+00  0.79289847845E+03  0.79289847845E+03  0.00000000000E+00 0. -1.
         -2   -1    0    0    0  501 -0.00000000000E+00 -0.00000000000E+00 -0.16782434207E+04  0.16782434207E+04  0.00000000000E+00 0.  1.
         23    2    1    2    0    0  0.13489220834E+03  0.11428806700E+04 -0.39440272449E+03  0.12199838776E+04  0.91842357374E+02 0.  0.
         11    1    3    3    0    0  0.36385737461E+02  0.10385794188E+03 -0.50701174320E+02  0.12116518914E+03  0.00000000000E+00 0. -1.
        -11    1    3    3    0    0  0.98506470876E+02  0.10390227282E+04 -0.34370155017E+03  0.10988186884E+04  0.00000000000E+00 0.  1.
         22    1    1    2    0    0 -0.13489220834E+03 -0.11428806700E+04 -0.49094221778E+03  0.12511580216E+04  0.00000000000E+00 0.  1.
<mgrwt>
<rscale>  0 0.23070992E+04</rscale>
<asrwt>0</asrwt>
<pdfrwt beam="1">  1        2 0.12198438E+00 0.23070992E+04</pdfrwt>
<pdfrwt beam="2">  1       -2 0.25819129E+00 0.23070992E+04</pdfrwt>
<totfact> 0.18074631E+00</totfact>
</mgrwt>
</event>
<event>
 6    1  0.2238133E-007  0.5406526E+04  0.7818608E-02  0.7768684E-01
          2   -1    0    0  501    0  0.00000000000E+00  0.00000000000E+00  0.19728121426E+04  0.19728121426E+04  0.00000000000E+00 0. -1.
         -2   -1    0    0    0  501 -0.00000000000E+00 -0.00000000000E+00 -0.37041698804E+04  0.37041698804E+04  0.00000000000E+00 0.  1.
         23    2    1    2    0    0 -0.25241616160E+04 -0.95929704781E+03 -0.75428871277E+03  0.28053437154E+04  0.96743007142E+02 0.  0.
         13    1    3    3    0    0 -0.74563618157E+03 -0.29736070158E+03 -0.26826040023E+03  0.84638073255E+03  0.00000000000E+00 0.  1.
        -13    1    3    3    0    0 -0.17785254345E+04 -0.66193634623E+03 -0.48602831254E+03  0.19589629828E+04  0.00000000000E+00 0. -1.
         22    1    1    2    0    0  0.25241616160E+04  0.95929704781E+03 -0.97706902507E+03  0.28716383076E+04  0.00000000000E+00 0. -1.
<mgrwt>
<rscale>  0 0.54065262E+04</rscale>
<asrwt>0</asrwt>
<pdfrwt beam="1">  1        2 0.30350956E+00 0.54065262E+04</pdfrwt>
<pdfrwt beam="2">  1       -2 0.56987229E+00 0.54065262E+04</pdfrwt>
<totfact> 0.33778097E-03</totfact>
</mgrwt>
</event>
<event>
 6    1  0.2238133E-007  0.2296905E+04  0.7818608E-02  0.8479143E-01
         -2   -1    0    0    0  501 -0.00000000000E+00  0.00000000000E+00  0.47100489121E+03  0.47100489121E+03  0.00000000000E+00 0.  1.
          2   -1    0    0  501    0  0.00000000000E+00 -0.00000000000E+00 -0.28002737016E+04  0.28002737016E+04  0.00000000000E+00 0. -1.
         23    2    1    2    0    0  0.94618071441E+03  0.40437285853E+03 -0.44595706242E+03  0.11252034559E+04  0.91813739110E+02 0.  0.
         11    1    3    3    0    0  0.31961160826E+03  0.97239292279E+02 -0.16975859633E+03  0.37473329332E+03  0.00000000000E+00 0. -1.
        -11    1    3    3    0    0  0.62656910615E+03  0.30713356625E+03 -0.27619846609E+03  0.75047016261E+03  0.00000000000E+00 0.  1.
         22    1    1    2    0    0 -0.94618071441E+03 -0.40437285853E+03 -0.18833117480E+04  0.21460751369E+04  0.00000000000E+00 0.  1.
<mgrwt>
<rscale>  0 0.22969045E+04</rscale>
<asrwt>0</asrwt>
<pdfrwt beam="1">  1        2 0.43081134E+00 0.22969045E+04</pdfrwt>
<pdfrwt beam="2">  1       -2 0.72462291E-01 0.22969045E+04</pdfrwt>
<totfact> 0.36132808E+00</totfact>
</mgrwt>
</event>
<event>
 6    1  0.2238133E-007  0.3034212E+04  0.7818608E-02  0.8234028E-01
          2   -1    0    0  501    0  0.00000000000E+00  0.00000000000E+00  0.17108326128E+04  0.17108326128E+04  0.00000000000E+00 0. -1.
         -2   -1    0    0    0  501 -0.00000000000E+00 -0.00000000000E+00 -0.13453164828E+04  0.13453164828E+04  0.00000000000E+00 0.  1.
         23    2    1    2    0    0  0.74466130732E+02 -0.13895870333E+04 -0.42234560712E+03  0.14570170046E+04  0.89584664439E+02 0.  0.
         13    1    3    3    0    0  0.31740858844E+02 -0.82070576126E+03 -0.20485473282E+03  0.84648147661E+03  0.00000000000E+00 0.  1.
        -13    1    3    3    0    0  0.42725271888E+02 -0.56888127202E+03 -0.21749087430E+03  0.61053552797E+03  0.00000000000E+00 0. -1.
         22    1    1    2    0    0 -0.74466130732E+02  0.13895870333E+04  0.78786173711E+03  0.15991320910E+04  0.00000000000E+00 0. -1.
<mgrwt>
<rscale>  0 0.30342125E+04</rscale>
<asrwt>0</asrwt>
<pdfrwt beam="1">  1        2 0.26320502E+00 0.30342125E+04</pdfrwt>
<pdfrwt beam="2">  1       -2 0.20697177E+00 0.30342125E+04</pdfrwt>
<totfact> 0.98899914E-01</totfact>
</mgrwt>
</event>
<event>
 6    1  0.2238133E-007  0.4973222E+03  0.7818608E-02  0.1014480E+00
          2   -1    0    0  501    0  0.00000000000E+00  0.00000000000E+00  0.11947322202E+03  0.11947322202E+03  0.00000000000E+00 0. -1.
         -2   -1    0    0    0  501 -0.00000000000E+00 -0.00000000000E+00 -0.51754140101E+03  0.51754140101E+03  0.00000000000E+00 0.  1.
         23    2    1    2    0    0 -0.26886183235E+02  0.28541032953E+02 -0.50956918061E+03  0.51882016134E+03  0.89309308469E+02 0.  0.
         11    1    3    3    0    0 -0.37889077090E+02  0.38357162392E+02 -0.15807135467E+03  0.16701319480E+03  0.00000000000E+00 0. -1.
        -11    1    3    3    0    0  0.11002893855E+02 -0.98161294392E+01 -0.35149782593E+03  0.35180696654E+03  0.00000000000E+00 0.  1.
         22    1    1    2    0    0  0.26886183235E+02 -0.28541032953E+02  0.11150100162E+03  0.11819446169E+03  0.00000000000E+00 0. -1.
<mgrwt>
<rscale>  0 0.49732218E+03</rscale>
<asrwt>0</asrwt>
<pdfrwt beam="1">  1        2 0.18380495E-01 0.49732218E+03</pdfrwt>
<pdfrwt beam="2">  1       -2 0.79621755E-01 0.49732218E+03</pdfrwt>
<totfact> 0.44286440E+02</totfact>
</mgrwt>
</event>
<event>
 6    1  0.2238133E-007  0.1932961E+04  0.7818608E-02  0.8638621E-01
          2   -1    0    0  501    0  0.00000000000E+00  0.00000000000E+00  0.15860688431E+04  0.15860688431E+04  0.00000000000E+00 0. -1.
         -2   -1    0    0    0  501 -0.00000000000E+00 -0.00000000000E+00 -0.58893074992E+03  0.58893074992E+03  0.00000000000E+00 0.  1.
         23    2    1    2    0    0 -0.80710705153E+03 -0.36982587272E+03  0.92363827890E+03  0.12841599938E+04  0.88126333904E+02 0.  0.
         13    1    3    3    0    0 -0.60452779838E+03 -0.24434318839E+03  0.63913430026E+03  0.91304441650E+03  0.00000000000E+00 0.  1.
        -13    1    3    3    0    0 -0.20257925315E+03 -0.12548268433E+03  0.28450397864E+03  0.37111557733E+03  0.00000000000E+00 0. -1.
         22    1    1    2    0    0  0.80710705153E+03  0.36982587272E+03  0.73499814272E+02  0.89083959918E+03  0.00000000000E+00 0.  1.
<mgrwt>
<rscale>  0 0.19329612E+04</rscale>
<asrwt>0</asrwt>
<pdfrwt beam="1">  1        2 0.24401059E+00 0.19329612E+04</pdfrwt>
<pdfrwt beam="2">  1       -2 0.90604732E-01 0.19329612E+04</pdfrwt>
<totfact> 0.11036498E+01</totfact>
</mgrwt>
</event>
<event>
 6    1  0.2238133E-007  0.4300557E+04  0.7818608E-02  0.7946515E-01
         -2   -1    0    0    0  501 -0.00000000000E+00  0.00000000000E+00  0.29894007634E+04  0.29894007634E+04  0.00000000000E+00 0.  1.
          2   -1    0    0  501    0  0.00000000000E+00 -0.00000000000E+00 -0.15466973611E+04  0.15466973611E+04  0.00000000000E+00 0. -1.
         23    2    1    2    0    0  0.17460678602E+04  0.19394613349E+03 -0.58463423589E+03  0.18534751592E+04  0.84881688832E+02 0.  0.
         13    1    3    3    0    0  0.84649172003E+03  0.52692192986E+02 -0.27081437637E+03  0.89031742976E+03  0.00000000000E+00 0.  1.
        -13    1    3    3    0    0  0.89957614014E+03  0.14125394050E+03 -0.31381985952E+03  0.96315772947E+03  0.00000000000E+00 0. -1.
         22    1    1    2    0    0 -0.17460678602E+04 -0.19394613349E+03  0.20273376382E+04  0.26826229653E+04  0.00000000000E+00 0.  1.
<mgrwt>
<rscale>  0 0.43005573E+04</rscale>
<asrwt>0</asrwt>
<pdfrwt beam="1">  1        2 0.23795344E+00 0.43005573E+04</pdfrwt>
<pdfrwt beam="2">  1       -2 0.45990781E+00 0.43005573E+04</pdfrwt>
<totfact> 0.27497544E-02</totfact>
</mgrwt>
</event>
<event>
 6    1  0.2238133E-007  0.4437911E+04  0.7818608E-02  0.7921598E-01
          2   -1    0    0  501    0  0.00000000000E+00  0.00000000000E+00  0.17037539558E+04  0.17037539558E+04  0.00000000000E+00 0. -1.
         -2   -1    0    0    0  501 -0.00000000000E+00 -0.00000000000E+00 -0.28899495655E+04  0.28899495655E+04  0.00000000000E+00 0.  1.
         23    2    1    2    0    0  0.54492314267E+03  0.20733659801E+04 -0.43770071635E+01  0.21457486753E+04  0.91817756229E+02 0.  0.
         13    1    3    3    0    0  0.12205585324E+03  0.62639482267E+03 -0.94061139668E+01  0.63824492176E+03  0.00000000000E+00 0. -1.
        -13    1    3    3    0    0  0.42286728944E+03  0.14469711574E+04  0.50291068033E+01  0.15075037535E+04  0.00000000000E+00 0.  1.
         22    1    1    2    0    0 -0.54492314267E+03 -0.20733659801E+04 -0.11818186026E+04  0.24479548461E+04  0.00000000000E+00 0.  1.
<mgrwt>
<rscale>  0 0.44379108E+04</rscale>
<asrwt>0</asrwt>
<pdfrwt beam="1">  1        2 0.26211600E+00 0.44379108E+04</pdfrwt>
<pdfrwt beam="2">  1       -2 0.44460762E+00 0.44379108E+04</pdfrwt>
<totfact> 0.28031676E-02</totfact>
</mgrwt>
</event>
<event>
 6    1  0.2238133E-007  0.2103551E+04  0.7818608E-02  0.8559681E-01
         -2   -1    0    0    0  501 -0.00000000000E+00  0.00000000000E+00  0.13973522685E+04  0.13973522685E+04  0.00000000000E+00 0.  1.
          2   -1    0    0  501    0  0.00000000000E+00 -0.00000000000E+00 -0.79166309088E+03  0.79166309088E+03  0.00000000000E+00 0. -1.
         23    2    1    2    0    0 -0.40495584536E+03  0.48028429180E+03 -0.57249611397E+03  0.85380645477E+03  0.81064320486E+02 0.  0.
         11    1    3    3    0    0 -0.25726264875E+03  0.35956136755E+03 -0.41617448363E+03  0.60718172594E+03  0.00000000000E+00 0.  1.
        -11    1    3    3    0    0 -0.14769319661E+03  0.12072292425E+03 -0.15632163033E+03  0.24662472883E+03  0.00000000000E+00 0. -1.
         22    1    1    2    0    0  0.40495584536E+03 -0.48028429180E+03  0.11781852916E+04  0.13352089046E+04  0.00000000000E+00 0.  1.
<mgrwt>
<rscale>  0 0.21035515E+04</rscale>
<asrwt>0</asrwt>
<pdfrwt beam="1">  1        2 0.12179432E+00 0.21035515E+04</pdfrwt>
<pdfrwt beam="2">  1       -2 0.21497727E+00 0.21035515E+04</pdfrwt>
<totfact> 0.34219620E+00</totfact>
</mgrwt>
</event>
<event>
 6    1  0.2238133E-007  0.1322261E+04  0.7818608E-02  0.9012096E-01
         -2   -1    0    0    0  501 -0.00000000000E+00  0.00000000000E+00  0.25730670941E+03  0.25730670941E+03  0.00000000000E+00 0.  1.
          2   -1    0    0  501    0  0.00000000000E+00 -0.00000000000E+00 -0.16987250790E+04  0.16987250790E+04  0.00000000000E+00 0. -1.
         23    2    1    2    0    0  0.25962920126E+03  0.21295619838E+03 -0.15611883783E+04  0.15995173853E+04  0.91591751124E+02 0.  0.
         13    1    3    3    0    0  0.17161483091E+03  0.18691097014E+03 -0.10560247207E+04  0.10860826726E+04  0.00000000000E+00 0. -1.
        -13    1    3    3    0    0  0.88014370349E+02  0.26045228239E+02 -0.50516365763E+03  0.51343471279E+03  0.00000000000E+00 0.  1.
         22    1    1    2    0    0 -0.25962920126E+03 -0.21295619838E+03  0.11977000875E+03  0.35651440303E+03  0.00000000000E+00 0.  1.
<mgrwt>
<rscale>  0 0.13222607E+04</rscale>
<asrwt>0</asrwt>
<pdfrwt beam="1">  1        2 0.26134231E+00 0.13222607E+04</pdfrwt>
<pdfrwt beam="2">  1       -2 0.39585650E-01 0.13222607E+04</pdfrwt>
<totfact> 0.58019224E+01</totfact>
</mgrwt>
</event>
<event>
 6    1  0.2238133E-007  0.8186554E+03  0.7818608E-02  0.9533400E-01
          2   -1    0    0  501    0  0.00000000000E+00  0.00000000000E+00  0.16132940280E+04  0.16132940280E+04  0.00000000000E+00 0. -1.
         -2   -1    0    0    0  501 -0.00000000000E+00 -0.00000000000E+00 -0.10385532656E+03  0.10385532656E+03  0.00000000000E+00 0.  1.
         23    2    1    2    0    0 -0.13744487343E+03  0.30585241507E+03  0.12379469480E+04  0.12857046128E+04  0.89927260508E+02 0.  0.
         11    1    3    3    0    0 -0.23023227767E+02  0.15549488013E+03  0.51321596849E+03  0.53674887711E+03  0.00000000000E+00 0. -1.
        -11    1    3    3    0    0 -0.11442164567E+03  0.15035753494E+03  0.72473097954E+03  0.74895573568E+03  0.00000000000E+00 0.  1.
         22    1    1    2    0    0  0.13744487343E+03 -0.30585241507E+03  0.27149175345E+03  0.43144474180E+03  0.00000000000E+00 0.  1.
<mgrwt>
<rscale>  0 0.81865543E+03</rscale>
<asrwt>0</asrwt>
<pdfrwt beam="1">  1        2 0.24819906E+00 0.81865543E+03</pdfrwt>
<pdfrwt beam="2">  1       -2 0.15977744E-01 0.81865543E+03</pdfrwt>
<totfact> 0.34861608E+02</totfact>
</mgrwt>
</event>
<event>
 6    1  0.2643078E-007  0.5258579E+04  0.7818608E-02  0.7789811E-01
         -2   -1    0    0    0  501 -0.00000000000E+00  0.00000000000E+00  0.21134241050E+04  0.21134241050E+04  0.00000000000E+00 0.  1.
          2   -1    0    0  501    0  0.00000000000E+00 -0.00000000000E+00 -0.32710729634E+04  0.32710729634E+04  0.00000000000E+00 0. -1.
         23    2    1    2    0    0  0.23915254253E+04  0.10288826917E+04 -0.20830625288E+03  0.26133520278E+04  0.90685570152E+02 0.  0.
         11    1    3    3    0    0  0.11429464121E+04  0.52730670076E+03 -0.69197650485E+02  0.12606217404E+04  0.00000000000E+00 0. -1.
        -11    1    3    3    0    0  0.12485790133E+04  0.50157599096E+03 -0.13910860240E+03  0.13527302873E+04  0.00000000000E+00 0.  1.
         22    1    1    2    0    0 -0.23915254253E+04 -0.10288826917E+04 -0.94934260554E+03  0.27711450406E+04  0.00000000000E+00 0. -1.
<mgrwt>
<rscale>  0 0.52585794E+04</rscale>
<asrwt>0</asrwt>
<pdfrwt beam="1">  1        2 0.50324199E+00 0.52585794E+04</pdfrwt>
<pdfrwt beam="2">  1       -2 0.32514217E+00 0.52585794E+04</pdfrwt>
<totfact> 0.18458634E-02</totfact>
</mgrwt>
</event>
<event>
 6    1  0.2238133E-007  0.4255734E+04  0.7818608E-02  0.7954854E-01
          2   -1    0    0  501    0  0.00000000000E+00  0.00000000000E+00  0.14704181200E+04  0.14704181200E+04  0.00000000000E+00 0. -1.
         -2   -1    0    0    0  501 -0.00000000000E+00 -0.00000000000E+00 -0.30792723189E+04  0.30792723189E+04  0.00000000000E+00 0.  1.
         23    2    1    2    0    0 -0.18864085602E+04  0.91570865837E+03 -0.42436017174E+03  0.21413537300E+04  0.90855043140E+02 0.  0.
         13    1    3    3    0    0 -0.53028110780E+03  0.21406444406E+03 -0.12658217347E+03  0.58570016745E+03  0.00000000000E+00 0.  1.
        -13    1    3    3    0    0 -0.13561274524E+04  0.70164421431E+03 -0.29777799827E+03  0.15556535626E+04  0.00000000000E+00 0. -1.
         22    1    1    2    0    0  0.18864085602E+04 -0.91570865837E+03 -0.11844940272E+04  0.24083367089E+04  0.00000000000E+00 0. -1.
<mgrwt>
<rscale>  0 0.42557339E+04</rscale>
<asrwt>0</asrwt>
<pdfrwt beam="1">  1        2 0.22621818E+00 0.42557339E+04</pdfrwt>
<pdfrwt beam="2">  1       -2 0.47373420E+00 0.42557339E+04</pdfrwt>
<totfact> 0.24754228E-02</totfact>
</mgrwt>
</event>
<event>
 6    1  0.2238133E-007  0.1409835E+04  0.7818608E-02  0.8946730E-01
         -2   -1    0    0    0  501 -0.00000000000E+00  0.00000000000E+00  0.14500318386E+03  0.14500318386E+03  0.00000000000E+00 0.  1.
          2   -1    0    0  501    0  0.00000000000E+00 -0.00000000000E+00 -0.34268818847E+04  0.34268818847E+04  0.00000000000E+00 0. -1.
         23    2    1    2    0    0  0.24095406444E+03  0.37924197443E+03 -0.30142794876E+04  0.30489197970E+04  0.90264959917E+02 0.  0.
         13    1    3    3    0    0  0.13543978189E+03  0.13296194506E+03 -0.13249737196E+04  0.13384984762E+04  0.00000000000E+00 0. -1.
        -13    1    3    3    0    0  0.10551428255E+03  0.24628002937E+03 -0.16893057680E+04  0.17104213208E+04  0.00000000000E+00 0.  1.
         22    1    1    2    0    0 -0.24095406444E+03 -0.37924197443E+03 -0.26759921330E+03  0.52296527160E+03  0.00000000000E+00 0.  1.
<mgrwt>
<rscale>  0 0.14098351E+04</rscale>
<asrwt>0</asrwt>
<pdfrwt beam="1">  1        2 0.52721259E+00 0.14098351E+04</pdfrwt>
<pdfrwt beam="2">  1       -2 0.22308182E-01 0.14098351E+04</pdfrwt>
<totfact> 0.15899262E+01</totfact>
</mgrwt>
</event>
<event>
 6    1  0.2238133E-007  0.1726405E+04  0.7818608E-02  0.8746446E-01
          2   -1    0    0  501    0  0.00000000000E+00  0.00000000000E+00  0.97230490987E+03  0.97230490987E+03  0.00000000000E+00 0. -1.
         -2   -1    0    0    0  501 -0.00000000000E+00 -0.00000000000E+00 -0.76634225252E+03  0.76634225252E+03  0.00000000000E+00 0.  1.
         23    2    1    2    0    0 -0.48567847087E+03  0.41835445699E+02 -0.61151264323E+03  0.78685955548E+03  0.86985433443E+02 0.  0.
         11    1    3    3    0    0 -0.86543601046E+02 -0.19419567587E+02 -0.14372865719E+03  0.16889298797E+03  0.00000000000E+00 0. -1.
        -11    1    3    3    0    0 -0.39913486983E+03  0.61255013285E+02 -0.46778398604E+03  0.61796656751E+03  0.00000000000E+00 0.  1.
         22    1    1    2    0    0  0.48567847087E+03 -0.41835445699E+02  0.81747530059E+03  0.95178760691E+03  0.00000000000E+00 0. -1.
<mgrwt>
<rscale>  0 0.17264047E+04</rscale>
<asrwt>0</asrwt>
<pdfrwt beam="1">  1        2 0.14958537E+00 0.17264047E+04</pdfrwt>
<pdfrwt beam="2">  1       -2 0.11789881E+00 0.17264047E+04</pdfrwt>
<totfact> 0.13829546E+01</totfact>
</mgrwt>
</event>
<event>
 6    1  0.2238133E-007  0.4632749E+04  0.7818608E-02  0.7887800E-01
         -2   -1    0    0    0  501 -0.00000000000E+00  0.00000000000E+00  0.20763161378E+04  0.20763161378E+04  0.00000000000E+00 0.  1.
          2   -1    0    0  501    0  0.00000000000E+00 -0.00000000000E+00 -0.25841883234E+04  0.25841883234E+04  0.00000000000E+00 0. -1.
         23    2    1    2    0    0 -0.13950279888E+04  0.18181721724E+04  0.78501562576E+02  0.22949839455E+04  0.94528708112E+02 0.  0.
         11    1    3    3    0    0 -0.10005929266E+04  0.12645174756E+04  0.19351206959E+02  0.16126267764E+04  0.00000000000E+00 0. -1.
        -11    1    3    3    0    0 -0.39443506223E+03  0.55365469675E+03  0.59150355616E+02  0.68235716903E+03  0.00000000000E+00 0.  1.
         22    1    1    2    0    0  0.13950279888E+04 -0.18181721724E+04 -0.58637374809E+03  0.23655205157E+04  0.00000000000E+00 0. -1.
<mgrwt>
<rscale>  0 0.46327495E+04</rscale>
<asrwt>0</asrwt>
<pdfrwt beam="1">  1        2 0.39756744E+00 0.46327495E+04</pdfrwt>
<pdfrwt beam="2">  1       -2 0.31943325E+00 0.46327495E+04</pdfrwt>
<totfact> 0.56254411E-02</totfact>
</mgrwt>
</event>
<event>
 6    1  0.2238133E-007  0.1160261E+04  0.7818608E-02  0.9148369E-01
          2   -1    0    0  501    0  0.00000000000E+00  0.00000000000E+00  0.18381959514E+03  0.18381959514E+03  0.00000000000E+00 0. -1.
         -2   -1    0    0    0  501 -0.00000000000E+00 -0.00000000000E+00 -0.18308802046E+04  0.18308802046E+04  0.00000000000E+00 0.  1.
         23    2    1    2    0    0 -0.24076442749E+03  0.50410819982E+03 -0.57991582590E+03  0.81017060717E+03  0.89339022388E+02 0.  0.
         11    1    3    3    0    0 -0.19822319163E+03  0.33403065294E+03 -0.43043131063E+03  0.57977583942E+03  0.00000000000E+00 0.  1.
        -11    1    3    3    0    0 -0.42541235863E+02  0.17007754688E+03 -0.14948451527E+03  0.23039476775E+03  0.00000000000E+00 0. -1.
         22    1    1    2    0    0  0.24076442749E+03 -0.50410819982E+03 -0.10671447835E+04  0.12045291926E+04  0.00000000000E+00 0. -1.
<mgrwt>
<rscale>  0 0.11602614E+04</rscale>
<asrwt>0</asrwt>
<pdfrwt beam="1">  1        2 0.28279938E-01 0.11602614E+04</pdfrwt>
<pdfrwt beam="2">  1       -2 0.28167388E+00 0.11602614E+04</pdfrwt>
<totfact> 0.78047819E+00</totfact>
</mgrwt>
</event>
<event>
 6    1  0.2238133E-007  0.1632538E+04  0.7818608E-02  0.8800804E-01
          1   -1    0    0  501    0  0.00000000000E+00  0.00000000000E+00  0.17029900468E+04  0.17029900468E+04  0.00000000000E+00 0. -1.
         -1   -1    0    0    0  501 -0.00000000000E+00 -0.00000000000E+00 -0.39125034105E+03  0.39125034105E+03  0.00000000000E+00 0.  1.
         23    2    1    2    0    0  0.43657165659E+03  0.68103416546E+03  0.54476906718E+03  0.97949992197E+03  0.90798759434E+02 0.  0.
         13    1    3    3    0    0  0.24148096293E+03  0.29374090027E+03  0.26282658496E+03  0.46224948427E+03  0.00000000000E+00 0. -1.
        -13    1    3    3    0    0  0.19509069366E+03  0.38729326519E+03  0.28194248222E+03  0.51725043770E+03  0.00000000000E+00 0.  1.
         22    1    1    2    0    0 -0.43657165659E+03 -0.68103416546E+03  0.76697063857E+03  0.11147404659E+04  0.00000000000E+00 0. -1.
<mgrwt>
<rscale>  0 0.16325384E+04</rscale>
<asrwt>0</asrwt>
<pdfrwt beam="1">  1        1 0.26199847E+00 0.16325384E+04</pdfrwt>
<pdfrwt beam="2">  1       -1 0.60192361E-01 0.16325384E+04</pdfrwt>
<totfact> 0.12704831E+01</totfact>
</mgrwt>
</event>
<event>
 6    1  0.2238133E-007  0.8781729E+03  0.7818608E-02  0.9453285E-01
         -2   -1    0    0    0  501 -0.00000000000E+00  0.00000000000E+00  0.14656462996E+03  0.14656462996E+03  0.00000000000E+00 0.  1.
          2   -1    0    0  501    0  0.00000000000E+00 -0.00000000000E+00 -0.13154394404E+04  0.13154394404E+04  0.00000000000E+00 0. -1.
         23    2    1    2    0    0 -0.24114166765E+03 -0.34212216777E+03 -0.78371888295E+03  0.89319657213E+03  0.91585738105E+02 0.  0.
         11    1    3    3    0    0 -0.21644658344E+02 -0.21505395344E+00 -0.50213679456E+02  0.54680445203E+02  0.00000000000E+00 0. -1.
        -11    1    3    3    0    0 -0.21949700931E+03 -0.34190711382E+03 -0.73350520349E+03  0.83851612693E+03  0.00000000000E+00 0.  1.
         22    1    1    2    0    0  0.24114166765E+03  0.34212216777E+03 -0.38515592751E+03  0.56880749824E+03  0.00000000000E+00 0.  1.
<mgrwt>
<rscale>  0 0.87817286E+03</rscale>
<asrwt>0</asrwt>
<pdfrwt beam="1">  1        2 0.20237530E+00 0.87817286E+03</pdfrwt>
<pdfrwt beam="2">  1       -2 0.22548405E-01 0.87817286E+03</pdfrwt>
<totfact> 0.28043146E+02</totfact>
</mgrwt>
</event>
<event>
 6    1  0.2345527E-007  0.3299778E+04  0.7818608E-02  0.8162952E-01
         -2   -1    0    0    0  501 -0.00000000000E+00  0.00000000000E+00  0.13846167571E+04  0.13846167571E+04  0.00000000000E+00 0.  1.
          2   -1    0    0  501    0  0.00000000000E+00 -0.00000000000E+00 -0.19659834872E+04  0.19659834872E+04  0.00000000000E+00 0. -1.
         23    2    1    2    0    0  0.57510630836E+03  0.11865146953E+04  0.71395439178E+03  0.15022438942E+04  0.91877396683E+02 0.  0.
         13    1    3    3    0    0  0.14608850772E+03  0.34788975261E+03  0.24594306428E+03  0.45039662846E+03  0.00000000000E+00 0.  1.
        -13    1    3    3    0    0  0.42901780064E+03  0.83862494265E+03  0.46801132750E+03  0.10518472657E+04  0.00000000000E+00 0. -1.
         22    1    1    2    0    0 -0.57510630836E+03 -0.11865146953E+04 -0.12953211219E+04  0.18483563501E+04  0.00000000000E+00 0. -1.
<mgrwt>
<rscale>  0 0.32997780E+04</rscale>
<asrwt>0</asrwt>
<pdfrwt beam="1">  1        2 0.30245900E+00 0.32997780E+04</pdfrwt>
<pdfrwt beam="2">  1       -2 0.21301796E+00 0.32997780E+04</pdfrwt>
<totfact> 0.63833394E-01</totfact>
</mgrwt>
</event>
<event>
 6    1  0.2238133E-007  0.4336275E+04  0.7818608E-02  0.7939944E-01
          2   -1    0    0  501    0  0.00000000000E+00  0.00000000000E+00  0.29085385858E+04  0.29085385858E+04  0.00000000000E+00 0. -1.
         -2   -1    0    0    0  501 -0.00000000000E+00 -0.00000000000E+00 -0.16162136027E+04  0.16162136027E+04  0.00000000000E+00 0.  1.
         23    2    1    2    0    0 -0.17940795718E+04 -0.74052046925E+03 -0.35962678248E+03  0.19760198151E+04  0.90723821371E+02 0.  0.
         13    1    3    3    0    0 -0.48754934409E+03 -0.24176310445E+03 -0.11704252835E+03  0.55664415477E+03  0.00000000000E+00 0. -1.
        -13    1    3    3    0    0 -0.13065302277E+04 -0.49875736480E+03 -0.24258425413E+03  0.14193756603E+04  0.00000000000E+00 0.  1.
         22    1    1    2    0    0  0.17940795718E+04  0.74052046925E+03  0.16519517656E+04  0.25487323734E+04  0.00000000000E+00 0. -1.
<mgrwt>
<rscale>  0 0.43362747E+04</rscale>
<asrwt>0</asrwt>
<pdfrwt beam="1">  1        2 0.44746747E+00 0.43362747E+04</pdfrwt>
<pdfrwt beam="2">  1       -2 0.24864825E+00 0.43362747E+04</pdfrwt>
<totfact> 0.99787301E-02</totfact>
</mgrwt>
</event>
<event>
 6    1  0.2238133E-007  0.2974245E+04  0.7818608E-02  0.8251124E-01
         -2   -1    0    0    0  501 -0.00000000000E+00  0.00000000000E+00  0.16225099171E+04  0.16225099171E+04  0.00000000000E+00 0.  1.
          2   -1    0    0  501    0  0.00000000000E+00 -0.00000000000E+00 -0.13630321664E+04  0.13630321664E+04  0.00000000000E+00 0. -1.
         23    2    1    2    0    0  0.98381450459E+03 -0.11109288579E+04  0.19154150833E+03  0.15000558871E+04  0.10689063704E+03 0.  0.
         11    1    3    3    0    0  0.59335669697E+03 -0.74615889965E+03  0.13180065895E+03  0.96239112998E+03  0.00000000000E+00 0. -1.
        -11    1    3    3    0    0  0.39045780763E+03 -0.36476995822E+03  0.59740849385E+02  0.53766475711E+03  0.00000000000E+00 0.  1.
         22    1    1    2    0    0 -0.98381450459E+03  0.11109288579E+04  0.67936242305E+02  0.14854861964E+04  0.00000000000E+00 0. -1.
<mgrwt>
<rscale>  0 0.29742449E+04</rscale>
<asrwt>0</asrwt>
<pdfrwt beam="1">  1        2 0.20969726E+00 0.29742449E+04</pdfrwt>
<pdfrwt beam="2">  1       -2 0.24961691E+00 0.29742449E+04</pdfrwt>
<totfact> 0.84227580E-01</totfact>
</mgrwt>
</event>
<event>
 6    1  0.2238133E-007  0.1883078E+04  0.7818608E-02  0.8663326E-01
         -2   -1    0    0    0  501 -0.00000000000E+00  0.00000000000E+00  0.90139670919E+03  0.90139670919E+03  0.00000000000E+00 0.  1.
          2   -1    0    0  501    0  0.00000000000E+00 -0.00000000000E+00 -0.98346926400E+03  0.98346926400E+03  0.00000000000E+00 0. -1.
         23    2    1    2    0    0  0.77929257579E+03 -0.34262859855E+02  0.48275985002E+03  0.92179458031E+03  0.90428497995E+02 0.  0.
         11    1    3    3    0    0  0.47473447625E+03 -0.65213883390E+01  0.34202849735E+03  0.58514856613E+03  0.00000000000E+00 0.  1.
        -11    1    3    3    0    0  0.30455809954E+03 -0.27741471516E+02  0.14073135267E+03  0.33664601418E+03  0.00000000000E+00 0. -1.
         22    1    1    2    0    0 -0.77929257579E+03  0.34262859855E+02 -0.56483240483E+03  0.96307139288E+03  0.00000000000E+00 0. -1.
<mgrwt>
<rscale>  0 0.18830783E+04</rscale>
<asrwt>0</asrwt>
<pdfrwt beam="1">  1        2 0.15130296E+00 0.18830783E+04</pdfrwt>
<pdfrwt beam="2">  1       -2 0.13867642E+00 0.18830783E+04</pdfrwt>
<totfact> 0.89121686E+00</totfact>
</mgrwt>
</event>
<event>
 6    1  0.2238133E-007  0.1570475E+04  0.7818608E-02  0.8838895E-01
         -1   -1    0    0    0  501 -0.00000000000E+00  0.00000000000E+00  0.62237496937E+03  0.62237496937E+03  0.00000000000E+00 0.  1.
          1   -1    0    0  501    0  0.00000000000E+00 -0.00000000000E+00 -0.99071749141E+03  0.99071749141E+03  0.00000000000E+00 0. -1.
         23    2    1    2    0    0  0.72952447543E+03 -0.77388062055E+02  0.95207495725E+02  0.74529439016E+03  0.90578078867E+02 0.  0.
         13    1    3    3    0    0  0.45784666290E+03 -0.88202220384E+02  0.79078403604E+02  0.47292345292E+03  0.00000000000E+00 0. -1.
        -13    1    3    3    0    0  0.27167781253E+03  0.10814158329E+02  0.16129092121E+02  0.27237093724E+03  0.00000000000E+00 0.  1.
         22    1    1    2    0    0 -0.72952447543E+03  0.77388062055E+02 -0.46355001776E+03  0.86779807061E+03  0.00000000000E+00 0. -1.
<mgrwt>
<rscale>  0 0.15704748E+04</rscale>
<asrwt>0</asrwt>
<pdfrwt beam="1">  1        1 0.15241808E+00 0.15704748E+04</pdfrwt>
<pdfrwt beam="2">  1       -1 0.95749996E-01 0.15704748E+04</pdfrwt>
<totfact> 0.15572669E+01</totfact>
</mgrwt>
</event>
<event>
 6    1  0.2238133E-007  0.1768327E+04  0.7818608E-02  0.8723327E-01
          2   -1    0    0  501    0  0.00000000000E+00  0.00000000000E+00  0.10309795752E+04  0.10309795752E+04  0.00000000000E+00 0. -1.
         -2   -1    0    0    0  501 -0.00000000000E+00 -0.00000000000E+00 -0.75825466898E+03  0.75825466898E+03  0.00000000000E+00 0.  1.
         23    2    1    2    0    0  0.75962170870E+03  0.16172380505E+03 -0.28623340882E+03  0.83235696499E+03  0.87799905524E+02 0.  0.
         11    1    3    3    0    0  0.10032328921E+03  0.20773825292E+02 -0.72171171339E+01  0.10270540859E+03  0.00000000000E+00 0. -1.
        -11    1    3    3    0    0  0.65929841949E+03  0.14094997976E+03 -0.27901629168E+03  0.72965155640E+03  0.00000000000E+00 0.  1.
         22    1    1    2    0    0 -0.75962170870E+03 -0.16172380505E+03  0.55895831501E+03  0.95687727915E+03  0.00000000000E+00 0. -1.
<mgrwt>
<rscale>  0 0.17683270E+04</rscale>
<asrwt>0</asrwt>
<pdfrwt beam="1">  1        2 0.15861224E+00 0.17683270E+04</pdfrwt>
<pdfrwt beam="2">  1       -2 0.11665456E+00 0.17683270E+04</pdfrwt>
<totfact> 0.12970319E+01</totfact>
</mgrwt>
</event>
<event>
 6    1  0.2238133E-007  0.3584056E+04  0.7818608E-02  0.8094154E-01
          2   -1    0    0  501    0  0.00000000000E+00  0.00000000000E+00  0.32643192381E+04  0.32643192381E+04  0.00000000000E+00 0. -1.
         -2   -1    0    0    0  501 -0.00000000000E+00 -0.00000000000E+00 -0.98377771781E+03  0.98377771781E+03  0.00000000000E+00 0.  1.
         23    2    1    2    0    0 -0.44721627857E+03 -0.13608080065E+04 -0.13311881166E+03  0.14413983564E+04  0.90043174850E+02 0.  0.
         11    1    3    3    0    0 -0.92806520818E+02 -0.40058038461E+03 -0.55427893941E+02  0.41490956396E+03  0.00000000000E+00 0. -1.
        -11    1    3    3    0    0 -0.35440975775E+03 -0.96022762193E+03 -0.77690917720E+02  0.10264887924E+04  0.00000000000E+00 0.  1.
         22    1    1    2    0    0  0.44721627857E+03  0.13608080065E+04  0.24136603319E+04  0.28066985995E+04  0.00000000000E+00 0. -1.
<mgrwt>
<rscale>  0 0.35840561E+04</rscale>
<asrwt>0</asrwt>
<pdfrwt beam="1">  1        2 0.50220296E+00 0.35840561E+04</pdfrwt>
<pdfrwt beam="2">  1       -2 0.15135042E+00 0.35840561E+04</pdfrwt>
<totfact> 0.28055116E-01</totfact>
</mgrwt>
</event>
<event>
 6    1  0.2238133E-007  0.3175983E+04  0.7818608E-02  0.8195189E-01
          2   -1    0    0  501    0  0.00000000000E+00  0.00000000000E+00  0.29008662759E+04  0.29008662759E+04  0.00000000000E+00 0. -1.
         -2   -1    0    0    0  501 -0.00000000000E+00 -0.00000000000E+00 -0.86929817959E+03  0.86929817959E+03  0.00000000000E+00 0.  1.
         23    2    1    2    0    0 -0.87246766147E+03  0.26596054553E+03 -0.52496962567E+03  0.10557916078E+04  0.84663919282E+02 0.  0.
         13    1    3    3    0    0 -0.29211482698E+03  0.11189810109E+03 -0.21917632696E+03  0.38195617480E+03  0.00000000000E+00 0.  1.
        -13    1    3    3    0    0 -0.58035283449E+03  0.15406244444E+03 -0.30579329871E+03  0.67383543304E+03  0.00000000000E+00 0. -1.
         22    1    1    2    0    0  0.87246766147E+03 -0.26596054553E+03  0.25565377220E+04  0.27143728477E+04  0.00000000000E+00 0. -1.
<mgrwt>
<rscale>  0 0.31759835E+04</rscale>
<asrwt>0</asrwt>
<pdfrwt beam="1">  1        2 0.44628711E+00 0.31759835E+04</pdfrwt>
<pdfrwt beam="2">  1       -2 0.13373818E+00 0.31759835E+04</pdfrwt>
<totfact> 0.68373385E-01</totfact>
</mgrwt>
</event>
<event>
 6    1  0.2238133E-007  0.4420456E+04  0.7818608E-02  0.7924712E-01
          2   -1    0    0  501    0  0.00000000000E+00  0.00000000000E+00  0.30015687267E+04  0.30015687267E+04  0.00000000000E+00 0. -1.
         -2   -1    0    0    0  501 -0.00000000000E+00 -0.00000000000E+00 -0.16275182211E+04  0.16275182211E+04  0.00000000000E+00 0.  1.
         23    2    1    2    0    0  0.23157854138E+03  0.78080578346E+03 -0.14632698776E+04  0.16771937842E+04  0.92379449708E+02 0.  0.
         13    1    3    3    0    0  0.12475545516E+03  0.27106573888E+03 -0.50685804077E+03  0.58817143069E+03  0.00000000000E+00 0. -1.
        -13    1    3    3    0    0  0.10682308622E+03  0.50974004458E+03 -0.95641183687E+03  0.10890223535E+04  0.00000000000E+00 0.  1.
         22    1    1    2    0    0 -0.23157854138E+03 -0.78080578346E+03  0.28373203832E+04  0.29518931636E+04  0.00000000000E+00 0. -1.
<mgrwt>
<rscale>  0 0.44204560E+04</rscale>
<asrwt>0</asrwt>
<pdfrwt beam="1">  1        2 0.46177980E+00 0.44204560E+04</pdfrwt>
<pdfrwt beam="2">  1       -2 0.25038742E+00 0.44204560E+04</pdfrwt>
<totfact> 0.84619864E-02</totfact>
</mgrwt>
</event>
<event>
 6    1  0.2238133E-007  0.1762697E+04  0.7818608E-02  0.8726392E-01
         -2   -1    0    0    0  501 -0.00000000000E+00  0.00000000000E+00  0.13263709068E+04  0.13263709068E+04  0.00000000000E+00 0.  1.
          2   -1    0    0  501    0  0.00000000000E+00 -0.00000000000E+00 -0.58563929796E+03  0.58563929796E+03  0.00000000000E+00 0. -1.
         23    2    1    2    0    0  0.56344238764E+03 -0.66160934469E+03  0.51294167796E+03  0.10136324992E+04  0.95642194413E+02 0.  0.
         11    1    3    3    0    0  0.11450913829E+03 -0.19771399560E+03  0.12388601991E+03  0.25990558428E+03  0.00000000000E+00 0. -1.
        -11    1    3    3    0    0  0.44893324935E+03 -0.46389534909E+03  0.38905565805E+03  0.75372691496E+03  0.00000000000E+00 0.  1.
         22    1    1    2    0    0 -0.56344238764E+03  0.66160934469E+03  0.22778993089E+03  0.89837770553E+03  0.00000000000E+00 0. -1.
<mgrwt>
<rscale>  0 0.17626967E+04</rscale>
<asrwt>0</asrwt>
<pdfrwt beam="1">  1        2 0.90098354E-01 0.17626967E+04</pdfrwt>
<pdfrwt beam="2">  1       -2 0.20405706E+00 0.17626967E+04</pdfrwt>
<totfact> 0.60450150E+00</totfact>
</mgrwt>
</event>
<event>
 6    1  0.3539401E-007  0.2337095E+04  0.7818608E-02  0.8463437E-01
          1   -1    0    0  501    0  0.00000000000E+00  0.00000000000E+00  0.11609739861E+04  0.11609739861E+04  0.00000000000E+00 0. -1.
         -1   -1    0    0    0  501 -0.00000000000E+00 -0.00000000000E+00 -0.11761703015E+04  0.11761703015E+04  0.00000000000E+00 0.  1.
         23    2    1    2    0    0 -0.34685507007E+03 -0.37848826824E+03 -0.10554343169E+04  0.11771197583E+04  0.90041763600E+02 0.  0.
         13    1    3    3    0    0 -0.13948556167E+03 -0.20011526800E+03 -0.42753547485E+03  0.49222852890E+03  0.00000000000E+00 0. -1.
        -13    1    3    3    0    0 -0.20736950840E+03 -0.17837300024E+03 -0.62789884209E+03  0.68489122941E+03  0.00000000000E+00 0.  1.
         22    1    1    2    0    0  0.34685507007E+03  0.37848826824E+03  0.10402380015E+04  0.11600245293E+04  0.00000000000E+00 0. -1.
<mgrwt>
<rscale>  0 0.23370949E+04</rscale>
<asrwt>0</asrwt>
<pdfrwt beam="1">  1        1 0.17861138E+00 0.23370949E+04</pdfrwt>
<pdfrwt beam="2">  1       -1 0.18094928E+00 0.23370949E+04</pdfrwt>
<totfact> 0.21074214E+00</totfact>
</mgrwt>
</event>
<event>
 6    1  0.2238133E-007  0.2547168E+04  0.7818608E-02  0.8386372E-01
         -2   -1    0    0    0  501 -0.00000000000E+00  0.00000000000E+00  0.13049735607E+04  0.13049735607E+04  0.00000000000E+00 0.  1.
          2   -1    0    0  501    0  0.00000000000E+00 -0.00000000000E+00 -0.12429491368E+04  0.12429491368E+04  0.00000000000E+00 0. -1.
         23    2    1    2    0    0  0.77807301652E+03  0.79582726993E+03  0.64704471406E+03  0.12905494822E+04  0.90069091871E+02 0.  0.
         13    1    3    3    0    0  0.48386435523E+03  0.44011680921E+03  0.35338376804E+03  0.74344307618E+03  0.00000000000E+00 0. -1.
        -13    1    3    3    0    0  0.29420866129E+03  0.35571046072E+03  0.29366094602E+03  0.54710640598E+03  0.00000000000E+00 0.  1.
         22    1    1    2    0    0 -0.77807301652E+03 -0.79582726993E+03 -0.58502029018E+03  0.12573732153E+04  0.00000000000E+00 0. -1.
<mgrwt>
<rscale>  0 0.25471677E+04</rscale>
<asrwt>0</asrwt>
<pdfrwt beam="1">  1        2 0.19122294E+00 0.25471677E+04</pdfrwt>
<pdfrwt beam="2">  1       -2 0.20076516E+00 0.25471677E+04</pdfrwt>
<totfact> 0.20858703E+00</totfact>
</mgrwt>
</event>
<event>
 6    1  0.2238133E-007  0.1468910E+04  0.7818608E-02  0.8905395E-01
         -2   -1    0    0    0  501 -0.00000000000E+00  0.00000000000E+00  0.14819858246E+03  0.14819858246E+03  0.00000000000E+00 0.  1.
          2   -1    0    0  501    0  0.00000000000E+00 -0.00000000000E+00 -0.36398734973E+04  0.36398734973E+04  0.00000000000E+00 0. -1.
         23    2    1    2    0    0 -0.64087084630E+03 -0.20917724524E+03 -0.24842108750E+04  0.25758615563E+04  0.96376990630E+02 0.  0.
         11    1    3    3    0    0 -0.31370365656E+03 -0.13834838178E+03 -0.13852812759E+04  0.14270790000E+04  0.00000000000E+00 0. -1.
        -11    1    3    3    0    0 -0.32716718974E+03 -0.70828863463E+02 -0.10989295991E+04  0.11487825563E+04  0.00000000000E+00 0.  1.
         22    1    1    2    0    0  0.64087084630E+03  0.20917724524E+03 -0.10074640398E+04  0.12122105234E+04  0.00000000000E+00 0.  1.
<mgrwt>
<rscale>  0 0.14689099E+04</rscale>
<asrwt>0</asrwt>
<pdfrwt beam="1">  1        2 0.55998054E+00 0.14689099E+04</pdfrwt>
<pdfrwt beam="2">  1       -2 0.22799782E-01 0.14689099E+04</pdfrwt>
<totfact> 0.10786210E+01</totfact>
</mgrwt>
</event>
<event>
 6    1  0.2238133E-007  0.2212505E+04  0.7818608E-02  0.8513241E-01
          2   -1    0    0  501    0  0.00000000000E+00  0.00000000000E+00  0.30955639938E+04  0.30955639938E+04  0.00000000000E+00 0. -1.
         -2   -1    0    0    0  501 -0.00000000000E+00 -0.00000000000E+00 -0.39533819118E+03  0.39533819118E+03  0.00000000000E+00 0.  1.
         23    2    1    2    0    0 -0.74769642339E+03 -0.80454800923E+03  0.11707265400E+04  0.16078951656E+04  0.91535738113E+02 0.  0.
         11    1    3    3    0    0 -0.22205706582E+03 -0.24134802069E+03  0.41230476629E+03  0.52683339670E+03  0.00000000000E+00 0. -1.
        -11    1    3    3    0    0 -0.52563935758E+03 -0.56319998854E+03  0.75842177376E+03  0.10810617689E+04  0.00000000000E+00 0.  1.
         22    1    1    2    0    0  0.74769642339E+03  0.80454800923E+03  0.15294992625E+04  0.18830070193E+04  0.00000000000E+00 0.  1.
<mgrwt>
<rscale>  0 0.22125051E+04</rscale>
<asrwt>0</asrwt>
<pdfrwt beam="1">  1        2 0.47624060E+00 0.22125051E+04</pdfrwt>
<pdfrwt beam="2">  1       -2 0.60821262E-01 0.22125051E+04</pdfrwt>
<totfact> 0.34855742E+00</totfact>
</mgrwt>
</event>
<event>
 6    1  0.2238133E-007  0.3970742E+04  0.7818608E-02  0.8010475E-01
         -2   -1    0    0    0  501 -0.00000000000E+00  0.00000000000E+00  0.99045161724E+03  0.99045161724E+03  0.00000000000E+00 0.  1.
          2   -1    0    0  501    0  0.00000000000E+00 -0.00000000000E+00 -0.39796968978E+04  0.39796968978E+04  0.00000000000E+00 0. -1.
         23    2    1    2    0    0  0.12935794013E+04  0.14246571442E+04 -0.21016806799E+04  0.28510056302E+04  0.90420003757E+02 0.  0.
         13    1    3    3    0    0  0.48447575918E+03  0.58776615757E+03 -0.79437312265E+03  0.11005518957E+04  0.00000000000E+00 0. -1.
        -13    1    3    3    0    0  0.80910364213E+03  0.83689098662E+03 -0.13073075573E+04  0.17504537345E+04  0.00000000000E+00 0.  1.
         22    1    1    2    0    0 -0.12935794013E+04 -0.14246571442E+04 -0.88756460060E+03  0.21191428848E+04  0.00000000000E+00 0.  1.
<mgrwt>
<rscale>  0 0.39707416E+04</rscale>
<asrwt>0</asrwt>
<pdfrwt beam="1">  1        2 0.61226107E+00 0.39707416E+04</pdfrwt>
<pdfrwt beam="2">  1       -2 0.15237717E+00 0.39707416E+04</pdfrwt>
<totfact> 0.80440538E-02</totfact>
</mgrwt>
</event>
<event>
 6    1  0.2238133E-007  0.1678547E+04  0.7818608E-02  0.8773695E-01
          2   -1    0    0  501    0  0.00000000000E+00  0.00000000000E+00  0.31171303642E+04  0.31171303642E+04  0.00000000000E+00 0. -1.
         -2   -1    0    0    0  501 -0.00000000000E+00 -0.00000000000E+00 -0.22597074422E+03  0.22597074422E+03  0.00000000000E+00 0.  1.
         23    2    1    2    0    0 -0.31612992059E+03 -0.65322716618E+03  0.62369465889E+03  0.96233627183E+03  0.10223607592E+03 0.  0.
         11    1    3    3    0    0 -0.14326920026E+03 -0.29944133273E+03  0.21894813966E+03  0.39765495515E+03  0.00000000000E+00 0. -1.
        -11    1    3    3    0    0 -0.17286072034E+03 -0.35378583345E+03  0.40474651922E+03  0.56468131668E+03  0.00000000000E+00 0.  1.
         22    1    1    2    0    0  0.31612992059E+03  0.65322716618E+03  0.22674649611E+04  0.23807648366E+04  0.00000000000E+00 0. -1.
<mgrwt>
<rscale>  0 0.16785473E+04</rscale>
<asrwt>0</asrwt>
<pdfrwt beam="1">  1        2 0.47955849E+00 0.16785473E+04</pdfrwt>
<pdfrwt beam="2">  1       -2 0.34764732E-01 0.16785473E+04</pdfrwt>
<totfact> 0.10919906E+01</totfact>
</mgrwt>
</event>
<event>
 6    1  0.2238133E-007  0.3968817E+04  0.7818608E-02  0.8010867E-01
         -2   -1    0    0    0  501 -0.00000000000E+00  0.00000000000E+00  0.17399695899E+04  0.17399695899E+04  0.00000000000E+00 0.  1.
          2   -1    0    0  501    0  0.00000000000E+00 -0.00000000000E+00 -0.22631878309E+04  0.22631878309E+04  0.00000000000E+00 0. -1.
         23    2    1    2    0    0 -0.12894502433E+04 -0.58513000595E+03 -0.16624882481E+04  0.21857429928E+04  0.92445668032E+02 0.  0.
         11    1    3    3    0    0 -0.69313306368E+03 -0.35251032448E+03 -0.95846821663E+03  0.12342440177E+04  0.00000000000E+00 0. -1.
        -11    1    3    3    0    0 -0.59631717966E+03 -0.23261968147E+03 -0.70402003147E+03  0.95149897513E+03  0.00000000000E+00 0.  1.
         22    1    1    2    0    0  0.12894502433E+04  0.58513000595E+03  0.11392700072E+04  0.18174144280E+04  0.00000000000E+00 0.  1.
<mgrwt>
<rscale>  0 0.39688175E+04</rscale>
<asrwt>0</asrwt>
<pdfrwt beam="1">  1        2 0.34818274E+00 0.39688175E+04</pdfrwt>
<pdfrwt beam="2">  1       -2 0.26768763E+00 0.39688175E+04</pdfrwt>
<totfact> 0.18837269E-01</totfact>
</mgrwt>
</event>
<event>
 6    1  0.2238133E-007  0.4622079E+04  0.7818608E-02  0.7889606E-01
          2   -1    0    0  501    0  0.00000000000E+00  0.00000000000E+00  0.38150143358E+04  0.38150143358E+04  0.00000000000E+00 0. -1.
         -2   -1    0    0    0  501 -0.00000000000E+00 -0.00000000000E+00 -0.13999694109E+04  0.13999694109E+04  0.00000000000E+00 0.  1.
         23    2    1    2    0    0 -0.93712029982E+03 -0.20826837057E+04  0.16007136053E+04  0.27903391599E+04  0.89121863676E+02 0.  0.
         13    1    3    3    0    0 -0.35177733490E+03 -0.78458858799E+03  0.65566175271E+03  0.10813042494E+04  0.00000000000E+00 0. -1.
        -13    1    3    3    0    0 -0.58534296492E+03 -0.12980951177E+04  0.94505185264E+03  0.17090349105E+04  0.00000000000E+00 0.  1.
         22    1    1    2    0    0  0.93712029982E+03  0.20826837057E+04  0.81433131960E+03  0.24246445868E+04  0.00000000000E+00 0. -1.
<mgrwt>
<rscale>  0 0.46220789E+04</rscale>
<asrwt>0</asrwt>
<pdfrwt beam="1">  1        2 0.58692528E+00 0.46220789E+04</pdfrwt>
<pdfrwt beam="2">  1       -2 0.21537991E+00 0.46220789E+04</pdfrwt>
<totfact> 0.37830044E-02</totfact>
</mgrwt>
</event>
<event>
 6    1  0.2238133E-007  0.1973118E+04  0.7818608E-02  0.8619293E-01
         -2   -1    0    0    0  501 -0.00000000000E+00  0.00000000000E+00  0.55093723939E+03  0.55093723939E+03  0.00000000000E+00 0.  1.
          2   -1    0    0  501    0  0.00000000000E+00 -0.00000000000E+00 -0.17666226141E+04  0.17666226141E+04  0.00000000000E+00 0. -1.
         23    2    1    2    0    0  0.77994929040E+03  0.57602600766E+03 -0.40950566909E+03  0.10565869851E+04  0.92489496752E+02 0.  0.
         11    1    3    3    0    0  0.58475203396E+03  0.47237111864E+03 -0.29346849128E+03  0.80696540838E+03  0.00000000000E+00 0. -1.
        -11    1    3    3    0    0  0.19519725644E+03  0.10365488901E+03 -0.11603717781E+03  0.24962157673E+03  0.00000000000E+00 0.  1.
         22    1    1    2    0    0 -0.77994929040E+03 -0.57602600766E+03 -0.80617970567E+03  0.12609728684E+04  0.00000000000E+00 0. -1.
<mgrwt>
<rscale>  0 0.19731175E+04</rscale>
<asrwt>0</asrwt>
<pdfrwt beam="1">  1        2 0.27178810E+00 0.19731175E+04</pdfrwt>
<pdfrwt beam="2">  1       -2 0.84759575E-01 0.19731175E+04</pdfrwt>
<totfact> 0.10167364E+01</totfact>
</mgrwt>
</event>
<event>
 6    1  0.2238133E-007  0.5126267E+04  0.7818608E-02  0.7809319E-01
          2   -1    0    0  501    0  0.00000000000E+00  0.00000000000E+00  0.31436643872E+04  0.31436643872E+04  0.00000000000E+00 0. -1.
         -2   -1    0    0    0  501 -0.00000000000E+00 -0.00000000000E+00 -0.20898075771E+04  0.20898075771E+04  0.00000000000E+00 0.  1.
         23    2    1    2    0    0  0.24523868495E+04  0.17193079978E+03  0.12646956483E+04  0.27660412206E+04  0.88133373158E+02 0.  0.
         13    1    3    3    0    0  0.16532830559E+04  0.13706662914E+03  0.89297948516E+03  0.18840234830E+04  0.00000000000E+00 0.  1.
        -13    1    3    3    0    0  0.79910379367E+03  0.34864170639E+02  0.37171616317E+03  0.88201773758E+03  0.00000000000E+00 0. -1.
         22    1    1    2    0    0 -0.24523868495E+04 -0.17193079978E+03 -0.21083883820E+03  0.24674307438E+04  0.00000000000E+00 0.  1.
<mgrwt>
<rscale>  0 0.51262671E+04</rscale>
<asrwt>0</asrwt>
<pdfrwt beam="1">  1        2 0.48364068E+00 0.51262671E+04</pdfrwt>
<pdfrwt beam="2">  1       -2 0.32150886E+00 0.51262671E+04</pdfrwt>
<totfact> 0.23810242E-02</totfact>
</mgrwt>
</event>
<event>
 6    1  0.2238133E-007  0.2376579E+04  0.7818608E-02  0.8448325E-01
          2   -1    0    0  501    0  0.00000000000E+00  0.00000000000E+00  0.12498482756E+04  0.12498482756E+04  0.00000000000E+00 0. -1.
         -2   -1    0    0    0  501 -0.00000000000E+00 -0.00000000000E+00 -0.11297623755E+04  0.11297623755E+04  0.00000000000E+00 0.  1.
         23    2    1    2    0    0  0.55326353120E+03  0.55700209162E+03 -0.83060933418E+03  0.11466575728E+04  0.92519501550E+02 0.  0.
         13    1    3    3    0    0  0.24336367838E+03  0.24691743383E+03 -0.43407643442E+03  0.55553258231E+03  0.00000000000E+00 0. -1.
        -13    1    3    3    0    0  0.30989985281E+03  0.31008465779E+03 -0.39653289976E+03  0.59112499048E+03  0.00000000000E+00 0.  1.
         22    1    1    2    0    0 -0.55326353120E+03 -0.55700209162E+03  0.95069523426E+03  0.12329530784E+04  0.00000000000E+00 0. -1.
<mgrwt>
<rscale>  0 0.23765787E+04</rscale>
<asrwt>0</asrwt>
<pdfrwt beam="1">  1        2 0.19228435E+00 0.23765787E+04</pdfrwt>
<pdfrwt beam="2">  1       -2 0.17380960E+00 0.23765787E+04</pdfrwt>
<totfact> 0.31928778E+00</totfact>
</mgrwt>
</event>
<event>
 6    1  0.2238133E-007  0.3912216E+04  0.7818608E-02  0.8022493E-01
         -2   -1    0    0    0  501 -0.00000000000E+00  0.00000000000E+00  0.13189974167E+04  0.13189974167E+04  0.00000000000E+00 0.  1.
          2   -1    0    0  501    0  0.00000000000E+00 -0.00000000000E+00 -0.29009601636E+04  0.29009601636E+04  0.00000000000E+00 0. -1.
         23    2    1    2    0    0  0.12898398753E+03 -0.13486958622E+04  0.72887031263E+03  0.15412327294E+04  0.92352562205E+02 0.  0.
         13    1    3    3    0    0  0.93085618763E+02 -0.12238062773E+04  0.64415059274E+03  0.13861084817E+04  0.00000000000E+00 0.  1.
        -13    1    3    3    0    0  0.35898368769E+02 -0.12488958488E+03  0.84719719887E+02  0.15512424771E+03  0.00000000000E+00 0. -1.
         22    1    1    2    0    0 -0.12898398753E+03  0.13486958622E+04 -0.23108330596E+04  0.26787248509E+04  0.00000000000E+00 0. -1.
<mgrwt>
<rscale>  0 0.39122162E+04</rscale>
<asrwt>0</asrwt>
<pdfrwt beam="1">  1        2 0.44630156E+00 0.39122162E+04</pdfrwt>
<pdfrwt beam="2">  1       -2 0.20292268E+00 0.39122162E+04</pdfrwt>
<totfact> 0.20276749E-01</totfact>
</mgrwt>
</event>
<event>
 6    1  0.2238133E-007  0.3728932E+04  0.7818608E-02  0.8061580E-01
          2   -1    0    0  501    0  0.00000000000E+00  0.00000000000E+00  0.29208367587E+04  0.29208367587E+04  0.00000000000E+00 0. -1.
         -2   -1    0    0    0  501 -0.00000000000E+00 -0.00000000000E+00 -0.11901498387E+04  0.11901498387E+04  0.00000000000E+00 0.  1.
         23    2    1    2    0    0  0.39529476523E+02 -0.18457878480E+04  0.11439226371E+04  0.21737752814E+04  0.90799861526E+02 0.  0.
         13    1    3    3    0    0  0.64482301614E+02 -0.14617958973E+04  0.88668684846E+03  0.17109116809E+04  0.00000000000E+00 0.  1.
        -13    1    3    3    0    0 -0.24952825091E+02 -0.38399195073E+03  0.25723578865E+03  0.46286360051E+03  0.00000000000E+00 0. -1.
         22    1    1    2    0    0 -0.39529476523E+02  0.18457878480E+04  0.58676428281E+03  0.19372113160E+04  0.00000000000E+00 0. -1.
<mgrwt>
<rscale>  0 0.37289320E+04</rscale>
<asrwt>0</asrwt>
<pdfrwt beam="1">  1        2 0.44935950E+00 0.37289320E+04</pdfrwt>
<pdfrwt beam="2">  1       -2 0.18309998E+00 0.37289320E+04</pdfrwt>
<totfact> 0.27141272E-01</totfact>
</mgrwt>
</event>
<event>
 6    1  0.2238133E-007  0.1105526E+04  0.7818608E-02  0.9199823E-01
         -2   -1    0    0    0  501 -0.00000000000E+00  0.00000000000E+00  0.22979512510E+03  0.22979512510E+03  0.00000000000E+00 0.  1.
          2   -1    0    0  501    0  0.00000000000E+00 -0.00000000000E+00 -0.13296485040E+04  0.13296485040E+04  0.00000000000E+00 0. -1.
         23    2    1    2    0    0 -0.18855259800E+03 -0.38064744539E+03 -0.68901389906E+02  0.44440705413E+03  0.11093091697E+03 0.  0.
         13    1    3    3    0    0 -0.11131418187E+03 -0.13506676772E+03  0.95286934594E+01  0.17528455387E+03  0.00000000000E+00 0. -1.
        -13    1    3    3    0    0 -0.77238416131E+02 -0.24558067767E+03 -0.78430083366E+02  0.26912250026E+03  0.00000000000E+00 0.  1.
         22    1    1    2    0    0  0.18855259800E+03  0.38064744539E+03 -0.10309519890E+04  0.11150365749E+04  0.00000000000E+00 0. -1.
<mgrwt>
<rscale>  0 0.11055257E+04</rscale>
<asrwt>0</asrwt>
<pdfrwt beam="1">  1        2 0.20456131E+00 0.11055257E+04</pdfrwt>
<pdfrwt beam="2">  1       -2 0.35353095E-01 0.11055257E+04</pdfrwt>
<totfact> 0.11838904E+02</totfact>
</mgrwt>
</event>
<event>
 6    1  0.2238133E-007  0.3742395E+04  0.7818608E-02  0.8058631E-01
          2   -1    0    0  501    0  0.00000000000E+00  0.00000000000E+00  0.14909809624E+04  0.14909809624E+04  0.00000000000E+00 0. -1.
         -2   -1    0    0    0  501 -0.00000000000E+00 -0.00000000000E+00 -0.23483732217E+04  0.23483732217E+04  0.00000000000E+00 0.  1.
         23    2    1    2    0    0 -0.16698678618E+04 -0.55168425770E+02  0.43283985504E+03  0.17283825738E+04  0.91944278288E+02 0.  0.
         13    1    3    3    0    0 -0.13480372316E+04 -0.39931764408E+02  0.31177969089E+03  0.13841985043E+04  0.00000000000E+00 0. -1.
        -13    1    3    3    0    0 -0.32183063013E+03 -0.15236661362E+02  0.12106016415E+03  0.34418406948E+03  0.00000000000E+00 0.  1.
         22    1    1    2    0    0  0.16698678618E+04  0.55168425770E+02 -0.12902321144E+04  0.21109716104E+04  0.00000000000E+00 0.  1.
<mgrwt>
<rscale>  0 0.37423948E+04</rscale>
<asrwt>0</asrwt>
<pdfrwt beam="1">  1        2 0.22938169E+00 0.37423948E+04</pdfrwt>
<pdfrwt beam="2">  1       -2 0.36128819E+00 0.37423948E+04</pdfrwt>
<totfact> 0.13647800E-01</totfact>
</mgrwt>
</event>
<event>
 6    1  0.2238133E-007  0.9152867E+03  0.7818608E-02  0.9406672E-01
          2   -1    0    0  501    0  0.00000000000E+00  0.00000000000E+00  0.12650210560E+04  0.12650210560E+04  0.00000000000E+00 0. -1.
         -2   -1    0    0    0  501 -0.00000000000E+00 -0.00000000000E+00 -0.16556042480E+03  0.16556042480E+03  0.00000000000E+00 0.  1.
         23    2    1    2    0    0 -0.23469380703E+03 -0.19338695678E+03  0.32139898800E+02  0.32078274052E+03  0.96896312682E+02 0.  0.
         11    1    3    3    0    0 -0.62506964605E+02 -0.69685278821E+01 -0.95312959748E+01  0.63612314908E+02  0.00000000000E+00 0.  1.
        -11    1    3    3    0    0 -0.17218684243E+03 -0.18641842890E+03  0.41671194775E+02  0.25717042561E+03  0.00000000000E+00 0. -1.
         22    1    1    2    0    0  0.23469380703E+03  0.19338695678E+03  0.10673207324E+04  0.11097987403E+04  0.00000000000E+00 0. -1.
<mgrwt>
<rscale>  0 0.91528667E+03</rscale>
<asrwt>0</asrwt>
<pdfrwt beam="1">  1        2 0.19461862E+00 0.91528667E+03</pdfrwt>
<pdfrwt beam="2">  1       -2 0.25470835E-01 0.91528667E+03</pdfrwt>
<totfact> 0.24048571E+02</totfact>
</mgrwt>
</event>
<event>
 6    1  0.2238133E-007  0.3922274E+04  0.7818608E-02  0.8020413E-01
         -1   -1    0    0    0  501 -0.00000000000E+00  0.00000000000E+00  0.17207227283E+04  0.17207227283E+04  0.00000000000E+00 0.  1.
          1   -1    0    0  501    0  0.00000000000E+00 -0.00000000000E+00 -0.22351407117E+04  0.22351407117E+04  0.00000000000E+00 0. -1.
         23    2    1    2    0    0 -0.68930300489E+03  0.14361914692E+04  0.89438842568E+03  0.18292416901E+04  0.91705702492E+02 0.  0.
         13    1    3    3    0    0 -0.16373560489E+03  0.31889166203E+03  0.15948040330E+03  0.39234581616E+03  0.00000000000E+00 0. -1.
        -13    1    3    3    0    0 -0.52556740000E+03  0.11172998072E+04  0.73490802237E+03  0.14368958739E+04  0.00000000000E+00 0.  1.
         22    1    1    2    0    0  0.68930300489E+03 -0.14361914692E+04 -0.14088064091E+04  0.21266217499E+04  0.00000000000E+00 0. -1.
<mgrwt>
<rscale>  0 0.39222735E+04</rscale>
<asrwt>0</asrwt>
<pdfrwt beam="1">  1        1 0.34386780E+00 0.39222735E+04</pdfrwt>
<pdfrwt beam="2">  1       -1 0.26472657E+00 0.39222735E+04</pdfrwt>
<totfact> 0.90778952E-02</totfact>
</mgrwt>
</event>
<event>
 6    1  0.2238133E-007  0.1641349E+04  0.7818608E-02  0.8795541E-01
         -1   -1    0    0    0  501 -0.00000000000E+00  0.00000000000E+00  0.40226070626E+03  0.40226070626E+03  0.00000000000E+00 0.  1.
          1   -1    0    0  501    0  0.00000000000E+00 -0.00000000000E+00 -0.16743042336E+04  0.16743042336E+04  0.00000000000E+00 0. -1.
         23    2    1    2    0    0 -0.29593100826E+03  0.75070435906E+03 -0.80973117935E+03  0.11465838092E+04  0.88643399526E+02 0.  0.
         11    1    3    3    0    0 -0.23894831693E+03  0.52137246345E+03 -0.60882502639E+03  0.83641703507E+03  0.00000000000E+00 0.  1.
        -11    1    3    3    0    0 -0.56982691331E+02  0.22933189561E+03 -0.20090615297E+03  0.31016677410E+03  0.00000000000E+00 0. -1.
         22    1    1    2    0    0  0.29593100826E+03 -0.75070435906E+03 -0.46231234801E+03  0.92998113071E+03  0.00000000000E+00 0.  1.
<mgrwt>
<rscale>  0 0.16413492E+04</rscale>
<asrwt>0</asrwt>
<pdfrwt beam="1">  1        1 0.25758527E+00 0.16413492E+04</pdfrwt>
<pdfrwt beam="2">  1       -1 0.61886261E-01 0.16413492E+04</pdfrwt>
<totfact> 0.12567652E+01</totfact>
</mgrwt>
</event>
<event>
 6    1  0.2238133E-007  0.2752430E+04  0.7818608E-02  0.8318191E-01
          2   -1    0    0  501    0  0.00000000000E+00  0.00000000000E+00  0.11096221754E+04  0.11096221754E+04  0.00000000000E+00 0. -1.
         -2   -1    0    0    0  501 -0.00000000000E+00 -0.00000000000E+00 -0.17068583173E+04  0.17068583173E+04  0.00000000000E+00 0.  1.
         23    2    1    2    0    0 -0.11496234669E+02 -0.13485345978E+04 -0.57171955127E+03  0.14676555147E+04  0.92042053874E+02 0.  0.
         11    1    3    3    0    0  0.27597228556E+02 -0.97709024402E+03 -0.43531372551E+03  0.10700303695E+04  0.00000000000E+00 0. -1.
        -11    1    3    3    0    0 -0.39093463225E+02 -0.37144435378E+03 -0.13640582576E+03  0.39762514523E+03  0.00000000000E+00 0.  1.
         22    1    1    2    0    0  0.11496234669E+02  0.13485345978E+04 -0.25516590708E+02  0.13488249780E+04  0.00000000000E+00 0. -1.
<mgrwt>
<rscale>  0 0.27524301E+04</rscale>
<asrwt>0</asrwt>
<pdfrwt beam="1">  1        2 0.17071110E+00 0.27524301E+04</pdfrwt>
<pdfrwt beam="2">  1       -2 0.26259359E+00 0.27524301E+04</pdfrwt>
<totfact> 0.10097804E+00</totfact>
</mgrwt>
</event>
<event>
 6    1  0.2238133E-007  0.2719871E+04  0.7818608E-02  0.8328586E-01
         -2   -1    0    0    0  501 -0.00000000000E+00  0.00000000000E+00  0.51312895495E+03  0.51312895495E+03  0.00000000000E+00 0.  1.
          2   -1    0    0  501    0  0.00000000000E+00 -0.00000000000E+00 -0.36042108792E+04  0.36042108792E+04  0.00000000000E+00 0. -1.
         23    2    1    2    0    0  0.30916902463E+03  0.81050832747E+03 -0.31296540601E+04  0.32490098022E+04  0.93919775229E+02 0.  0.
         11    1    3    3    0    0  0.19425966959E+03  0.39014192687E+03 -0.16396262354E+04  0.16965617390E+04  0.00000000000E+00 0.  1.
        -11    1    3    3    0    0  0.11490935504E+03  0.42036640060E+03 -0.14900278247E+04  0.15524480632E+04  0.00000000000E+00 0. -1.
         22    1    1    2    0    0 -0.30916902463E+03 -0.81050832747E+03  0.38572135878E+02  0.86833003193E+03  0.00000000000E+00 0.  1.
<mgrwt>
<rscale>  0 0.27198713E+04</rscale>
<asrwt>0</asrwt>
<pdfrwt beam="1">  1        2 0.55449400E+00 0.27198713E+04</pdfrwt>
<pdfrwt beam="2">  1       -2 0.78942914E-01 0.27198713E+04</pdfrwt>
<totfact> 0.85552551E-01</totfact>
</mgrwt>
</event>
<event>
 6    1  0.2238133E-007  0.2900369E+04  0.7818608E-02  0.8272768E-01
         -4   -1    0    0    0  501 -0.00000000000E+00  0.00000000000E+00  0.33864220806E+04  0.33864220806E+04  0.00000000000E+00 0.  1.
          4   -1    0    0  501    0  0.00000000000E+00 -0.00000000000E+00 -0.62101965658E+03  0.62101965658E+03  0.00000000000E+00 0. -1.
         23    2    1    2    0    0  0.14382626267E+03 -0.89221457497E+03  0.29486005624E+04  0.30853276447E+04  0.90931607957E+02 0.  0.
         13    1    3    3    0    0  0.10101461659E+03 -0.53241184336E+03  0.19070310049E+04  0.19825321126E+04  0.00000000000E+00 0.  1.
        -13    1    3    3    0    0  0.42811646074E+02 -0.35980273162E+03  0.10415695575E+04  0.11027955322E+04  0.00000000000E+00 0. -1.
         22    1    1    2    0    0 -0.14382626267E+03  0.89221457497E+03 -0.18319813834E+03  0.92211409246E+03  0.00000000000E+00 0. -1.
<mgrwt>
<rscale>  0 0.29003687E+04</rscale>
<asrwt>0</asrwt>
<pdfrwt beam="1">  1        4 0.95541488E-01 0.29003687E+04</pdfrwt>
<pdfrwt beam="2">  1       -4 0.52098800E+00 0.29003687E+04</pdfrwt>
<totfact> 0.12822228E-03</totfact>
</mgrwt>
</event>
<event>
 6    1  0.2238133E-007  0.1341417E+04  0.7818608E-02  0.8997351E-01
         -2   -1    0    0    0  501 -0.00000000000E+00  0.00000000000E+00  0.24546734387E+04  0.24546734387E+04  0.00000000000E+00 0.  1.
          2   -1    0    0  501    0  0.00000000000E+00 -0.00000000000E+00 -0.18326264240E+03  0.18326264240E+03  0.00000000000E+00 0. -1.
         23    2    1    2    0    0  0.39451976855E+03 -0.53769222115E+03  0.11791490046E+04  0.13581725896E+04  0.97373691058E+02 0.  0.
         13    1    3    3    0    0  0.19880241611E+03 -0.33798452822E+03  0.74213160990E+03  0.83935407807E+03  0.00000000000E+00 0. -1.
        -13    1    3    3    0    0  0.19571735244E+03 -0.19970769293E+03  0.43701739469E+03  0.51881851155E+03  0.00000000000E+00 0.  1.
         22    1    1    2    0    0 -0.39451976855E+03  0.53769222115E+03  0.10922617917E+04  0.12797634914E+04  0.00000000000E+00 0.  1.
<mgrwt>
<rscale>  0 0.13414171E+04</rscale>
<asrwt>0</asrwt>
<pdfrwt beam="1">  1        2 0.28194254E-01 0.13414171E+04</pdfrwt>
<pdfrwt beam="2">  1       -2 0.37764204E+00 0.13414171E+04</pdfrwt>
<totfact> 0.19612052E+00</totfact>
</mgrwt>
</event>
<event>
 6    1  0.2238133E-007  0.8058523E+03  0.7818608E-02  0.9551585E-01
          2   -1    0    0  501    0  0.00000000000E+00  0.00000000000E+00  0.58354605853E+03  0.58354605853E+03  0.00000000000E+00 0. -1.
         -2   -1    0    0    0  501 -0.00000000000E+00 -0.00000000000E+00 -0.27821192487E+03  0.27821192487E+03  0.00000000000E+00 0.  1.
         23    2    1    2    0    0 -0.24089467979E+03 -0.21097177356E+03 -0.96594907379E+02  0.34786471625E+03  0.95603078877E+02 0.  0.
         11    1    3    3    0    0 -0.15481273210E+03 -0.16924001756E+03 -0.30038525537E+02  0.23132548191E+03  0.00000000000E+00 0.  1.
        -11    1    3    3    0    0 -0.86081947687E+02 -0.41731755996E+02 -0.66556381842E+02  0.11653923434E+03  0.00000000000E+00 0. -1.
         22    1    1    2    0    0  0.24089467979E+03  0.21097177356E+03  0.40192904104E+03  0.51389326715E+03  0.00000000000E+00 0. -1.
<mgrwt>
<rscale>  0 0.80585227E+03</rscale>
<asrwt>0</asrwt>
<pdfrwt beam="1">  1        2 0.89776317E-01 0.80585227E+03</pdfrwt>
<pdfrwt beam="2">  1       -2 0.42801835E-01 0.80585227E+03</pdfrwt>
<totfact> 0.26705223E+02</totfact>
</mgrwt>
</event>
<event>
 6    1  0.2238133E-007  0.9465061E+03  0.7818608E-02  0.9369244E-01
         -4   -1    0    0    0  501 -0.00000000000E+00  0.00000000000E+00  0.95147110776E+03  0.95147110776E+03  0.00000000000E+00 0.  1.
          4   -1    0    0  501    0  0.00000000000E+00 -0.00000000000E+00 -0.23539173050E+03  0.23539173050E+03  0.00000000000E+00 0. -1.
         23    2    1    2    0    0  0.25427438153E+03 -0.69899374068E+02 -0.12503952267E+03  0.30537410469E+03  0.89872565274E+02 0.  0.
         13    1    3    3    0    0  0.52455360091E+02 -0.55234216616E+02 -0.37399893182E+02  0.84859504461E+02  0.00000000000E+00 0. -1.
        -13    1    3    3    0    0  0.20181902144E+03 -0.14665157452E+02 -0.87639629487E+02  0.22051460023E+03  0.00000000000E+00 0.  1.
         22    1    1    2    0    0 -0.25427438153E+03  0.69899374068E+02  0.84111889993E+03  0.88148873357E+03  0.00000000000E+00 0.  1.
<mgrwt>
<rscale>  0 0.94650606E+03</rscale>
<asrwt>0</asrwt>
<pdfrwt beam="1">  1        4 0.36214113E-01 0.94650606E+03</pdfrwt>
<pdfrwt beam="2">  1       -4 0.14638017E+00 0.94650606E+03</pdfrwt>
<totfact> 0.47034300E+00</totfact>
</mgrwt>
</event>
<event>
 6    1  0.2238133E-007  0.3459355E+04  0.7818608E-02  0.8123490E-01
         -2   -1    0    0    0  501 -0.00000000000E+00  0.00000000000E+00  0.94965777379E+03  0.94965777379E+03  0.00000000000E+00 0.  1.
          2   -1    0    0  501    0  0.00000000000E+00 -0.00000000000E+00 -0.31503823463E+04  0.31503823463E+04  0.00000000000E+00 0. -1.
         23    2    1    2    0    0  0.34680662605E+03  0.12095726643E+04  0.30322759950E+03  0.12976987159E+04  0.93456482587E+02 0.  0.
         11    1    3    3    0    0  0.26038180058E+03  0.79063954301E+03  0.16915978312E+03  0.84942604226E+03  0.00000000000E+00 0. -1.
        -11    1    3    3    0    0  0.86424825469E+02  0.41893312125E+03  0.13406781639E+03  0.44827267364E+03  0.00000000000E+00 0.  1.
         22    1    1    2    0    0 -0.34680662605E+03 -0.12095726643E+04 -0.25039521721E+04  0.28023414042E+04  0.00000000000E+00 0. -1.
<mgrwt>
<rscale>  0 0.34593555E+04</rscale>
<asrwt>0</asrwt>
<pdfrwt beam="1">  1        2 0.48467421E+00 0.34593555E+04</pdfrwt>
<pdfrwt beam="2">  1       -2 0.14610119E+00 0.34593555E+04</pdfrwt>
<totfact> 0.36952547E-01</totfact>
</mgrwt>
</event>
<event>
 6    1  0.2238133E-007  0.6405900E+03  0.7818608E-02  0.9824598E-01
          2   -1    0    0  501    0  0.00000000000E+00  0.00000000000E+00  0.42830424632E+03  0.42830424632E+03  0.00000000000E+00 0. -1.
         -2   -1    0    0    0  501 -0.00000000000E+00 -0.00000000000E+00 -0.23952342997E+03  0.23952342997E+03  0.00000000000E+00 0.  1.
         23    2    1    2    0    0  0.34683458580E+02 -0.28744379893E+03 -0.29767866475E+02  0.30507375610E+03  0.91416579149E+02 0.  0.
         11    1    3    3    0    0  0.32400955854E+02 -0.54787758352E+02  0.20820726531E+02  0.66970314758E+02  0.00000000000E+00 0. -1.
        -11    1    3    3    0    0  0.22825027266E+01 -0.23265604058E+03 -0.50588593006E+02  0.23810344134E+03  0.00000000000E+00 0.  1.
         22    1    1    2    0    0 -0.34683458580E+02  0.28744379893E+03  0.21854868282E+03  0.36275392018E+03  0.00000000000E+00 0. -1.
<mgrwt>
<rscale>  0 0.64059005E+03</rscale>
<asrwt>0</asrwt>
<pdfrwt beam="1">  1        2 0.65892961E-01 0.64059005E+03</pdfrwt>
<pdfrwt beam="2">  1       -2 0.36849758E-01 0.64059005E+03</pdfrwt>
<totfact> 0.51437055E+02</totfact>
</mgrwt>
</event>
<event>
 6    1  0.2238133E-007  0.1843612E+04  0.7818608E-02  0.8683445E-01
         -2   -1    0    0    0  501 -0.00000000000E+00  0.00000000000E+00  0.19900247845E+04  0.19900247845E+04  0.00000000000E+00 0.  1.
          2   -1    0    0  501    0  0.00000000000E+00 -0.00000000000E+00 -0.42699302933E+03  0.42699302933E+03  0.00000000000E+00 0. -1.
         23    2    1    2    0    0 -0.27584644187E+03  0.43053712799E+03 -0.21863013722E+03  0.56343410198E+03  0.90583510106E+02 0.  0.
         13    1    3    3    0    0 -0.15278626549E+03  0.21644164587E+03 -0.65658221017E+02  0.27294986898E+03  0.00000000000E+00 0.  1.
        -13    1    3    3    0    0 -0.12306017638E+03  0.21409548212E+03 -0.15297191620E+03  0.29048423300E+03  0.00000000000E+00 0. -1.
         22    1    1    2    0    0  0.27584644187E+03 -0.43053712799E+03  0.17816618924E+04  0.18535837118E+04  0.00000000000E+00 0.  1.
<mgrwt>
<rscale>  0 0.18436124E+04</rscale>
<asrwt>0</asrwt>
<pdfrwt beam="1">  1        2 0.65691236E-01 0.18436124E+04</pdfrwt>
<pdfrwt beam="2">  1       -2 0.30615765E+00 0.18436124E+04</pdfrwt>
<totfact> 0.20277219E+00</totfact>
</mgrwt>
</event>
<event>
 6    1  0.2238133E-007  0.3962267E+04  0.7818608E-02  0.8012202E-01
         -3   -1    0    0    0  501 -0.00000000000E+00  0.00000000000E+00  0.26398733497E+04  0.26398733497E+04  0.00000000000E+00 0.  1.
          3   -1    0    0  501    0  0.00000000000E+00 -0.00000000000E+00 -0.14867724309E+04  0.14867724309E+04  0.00000000000E+00 0. -1.
         23    2    1    2    0    0 -0.19636359559E+04  0.13419245396E+03  0.35155441032E+03  0.20014750611E+04  0.91859320777E+02 0.  0.
         11    1    3    3    0    0 -0.87365905354E+03  0.10501823347E+03  0.15044960885E+03  0.89271723182E+03  0.00000000000E+00 0.  1.
        -11    1    3    3    0    0 -0.10899769023E+04  0.29174220486E+02  0.20110480148E+03  0.11087578292E+04  0.00000000000E+00 0. -1.
         22    1    1    2    0    0  0.19636359559E+04 -0.13419245396E+03  0.80154650854E+03  0.21251707195E+04  0.00000000000E+00 0.  1.
<mgrwt>
<rscale>  0 0.39622675E+04</rscale>
<asrwt>0</asrwt>
<pdfrwt beam="1">  1        3 0.22873422E+00 0.39622675E+04</pdfrwt>
<pdfrwt beam="2">  1       -3 0.40613436E+00 0.39622675E+04</pdfrwt>
<totfact> 0.19606527E-03</totfact>
</mgrwt>
</event>
<event>
 6    1  0.2238133E-007  0.3720348E+04  0.7818608E-02  0.8063467E-01
         -2   -1    0    0    0  501 -0.00000000000E+00  0.00000000000E+00  0.85418797661E+03  0.85418797661E+03  0.00000000000E+00 0.  1.
          2   -1    0    0  501    0  0.00000000000E+00 -0.00000000000E+00 -0.40509211841E+04  0.40509211841E+04  0.00000000000E+00 0. -1.
         23    2    1    2    0    0 -0.97512230755E+03  0.10304175838E+04 -0.15369773892E+02  0.14217634690E+04  0.92472806900E+02 0.  0.
         11    1    3    3    0    0 -0.46918893987E+03  0.43300584259E+03  0.90042440726E+01  0.63852439063E+03  0.00000000000E+00 0. -1.
        -11    1    3    3    0    0 -0.50593336768E+03  0.59741174120E+03 -0.24374017964E+02  0.78323907832E+03  0.00000000000E+00 0.  1.
         22    1    1    2    0    0  0.97512230755E+03 -0.10304175838E+04 -0.31813634336E+04  0.34833456918E+04  0.00000000000E+00 0. -1.
<mgrwt>
<rscale>  0 0.37203485E+04</rscale>
<asrwt>0</asrwt>
<pdfrwt beam="1">  1        2 0.62321866E+00 0.37203485E+04</pdfrwt>
<pdfrwt beam="2">  1       -2 0.13141353E+00 0.37203485E+04</pdfrwt>
<totfact> 0.10564887E-01</totfact>
</mgrwt>
</event>
<event>
 6    1  0.2238133E-007  0.2156188E+04  0.7818608E-02  0.8536888E-01
         -2   -1    0    0    0  501 -0.00000000000E+00  0.00000000000E+00  0.57241019875E+03  0.57241019875E+03  0.00000000000E+00 0.  1.
          2   -1    0    0  501    0  0.00000000000E+00 -0.00000000000E+00 -0.20305143414E+04  0.20305143414E+04  0.00000000000E+00 0. -1.
         23    2    1    2    0    0 -0.65915939986E+03 -0.83401828617E+03 -0.93378045538E+03  0.14176005570E+04  0.86993011962E+02 0.  0.
         11    1    3    3    0    0 -0.21804719814E+03 -0.31567011705E+03 -0.38197979388E+03  0.54138781510E+03  0.00000000000E+00 0.  1.
        -11    1    3    3    0    0 -0.44111220173E+03 -0.51834816912E+03 -0.55180066151E+03  0.87621274185E+03  0.00000000000E+00 0. -1.
         22    1    1    2    0    0  0.65915939986E+03  0.83401828617E+03 -0.52432368726E+03  0.11853239832E+04  0.00000000000E+00 0. -1.
<mgrwt>
<rscale>  0 0.21561884E+04</rscale>
<asrwt>0</asrwt>
<pdfrwt beam="1">  1        2 0.31238682E+00 0.21561884E+04</pdfrwt>
<pdfrwt beam="2">  1       -2 0.88063108E-01 0.21561884E+04</pdfrwt>
<totfact> 0.65479913E+00</totfact>
</mgrwt>
</event>
<event>
 6    1  0.2238133E-007  0.2284866E+04  0.7818608E-02  0.8483912E-01
         -2   -1    0    0    0  501 -0.00000000000E+00  0.00000000000E+00  0.99853899733E+03  0.99853899733E+03  0.00000000000E+00 0.  1.
          2   -1    0    0  501    0  0.00000000000E+00 -0.00000000000E+00 -0.13070625869E+04  0.13070625869E+04  0.00000000000E+00 0. -1.
         23    2    1    2    0    0  0.55016456744E+03  0.29102262565E+03 -0.11189491145E+04  0.12837577844E+04  0.92799289987E+02 0.  0.
         11    1    3    3    0    0  0.40824569589E+03  0.23430942679E+03 -0.76488687041E+03  0.89811880073E+03  0.00000000000E+00 0.  1.
        -11    1    3    3    0    0  0.14191887155E+03  0.56713198863E+02 -0.35406224407E+03  0.38563898364E+03  0.00000000000E+00 0. -1.
         22    1    1    2    0    0 -0.55016456744E+03 -0.29102262565E+03  0.81042552491E+03  0.10218437999E+04  0.00000000000E+00 0.  1.
<mgrwt>
<rscale>  0 0.22848658E+04</rscale>
<asrwt>0</asrwt>
<pdfrwt beam="1">  1        2 0.20108655E+00 0.22848658E+04</pdfrwt>
<pdfrwt beam="2">  1       -2 0.15362138E+00 0.22848658E+04</pdfrwt>
<totfact> 0.41799730E+00</totfact>
</mgrwt>
</event>
<event>
 6    1  0.2238133E-007  0.3074260E+04  0.7818608E-02  0.8222838E-01
          2   -1    0    0  501    0  0.00000000000E+00  0.00000000000E+00  0.34698855384E+04  0.34698855384E+04  0.00000000000E+00 0. -1.
         -2   -1    0    0    0  501 -0.00000000000E+00 -0.00000000000E+00 -0.68093582640E+03  0.68093582640E+03  0.00000000000E+00 0.  1.
         23    2    1    2    0    0  0.66466547287E+03  0.11204235523E+04  0.29753427722E+03  0.13393662263E+04  0.90808119324E+02 0.  0.
         13    1    3    3    0    0  0.20976682497E+03  0.42852624736E+03  0.13058976662E+03  0.49466205907E+03  0.00000000000E+00 0. -1.
        -13    1    3    3    0    0  0.45489864790E+03  0.69189730495E+03  0.16694451060E+03  0.84470416719E+03  0.00000000000E+00 0.  1.
         22    1    1    2    0    0 -0.66466547287E+03 -0.11204235523E+04  0.24914154348E+04  0.28114551386E+04  0.00000000000E+00 0. -1.
<mgrwt>
<rscale>  0 0.30742605E+04</rscale>
<asrwt>0</asrwt>
<pdfrwt beam="1">  1        2 0.53382853E+00 0.30742605E+04</pdfrwt>
<pdfrwt beam="2">  1       -2 0.10475936E+00 0.30742605E+04</pdfrwt>
<totfact> 0.53608815E-01</totfact>
</mgrwt>
</event>
<event>
 6    1  0.2238133E-007  0.1376374E+04  0.7818608E-02  0.8971100E-01
          2   -1    0    0  501    0  0.00000000000E+00  0.00000000000E+00  0.14357502096E+04  0.14357502096E+04  0.00000000000E+00 0. -1.
         -2   -1    0    0    0  501 -0.00000000000E+00 -0.00000000000E+00 -0.32986339700E+03  0.32986339700E+03  0.00000000000E+00 0.  1.
         23    2    1    2    0    0  0.45844106057E+03  0.34064369456E+03  0.69782762132E+02  0.58251684975E+03  0.90829035497E+02 0.  0.
         13    1    3    3    0    0  0.40712702693E+03  0.26155806407E+03  0.63153498283E+02  0.48800963237E+03  0.00000000000E+00 0. -1.
        -13    1    3    3    0    0  0.51314033641E+02  0.79085630484E+02  0.66292638495E+01  0.94507217379E+02  0.00000000000E+00 0.  1.
         22    1    1    2    0    0 -0.45844106057E+03 -0.34064369456E+03  0.10361040505E+04  0.11830967568E+04  0.00000000000E+00 0. -1.
<mgrwt>
<rscale>  0 0.13763741E+04</rscale>
<asrwt>0</asrwt>
<pdfrwt beam="1">  1        2 0.22088464E+00 0.13763741E+04</pdfrwt>
<pdfrwt beam="2">  1       -2 0.50748216E-01 0.13763741E+04</pdfrwt>
<totfact> 0.49399165E+01</totfact>
</mgrwt>
</event>
<event>
 6    1  0.2238133E-007  0.3344480E+04  0.7818608E-02  0.8151669E-01
          2   -1    0    0  501    0  0.00000000000E+00  0.00000000000E+00  0.12163096919E+04  0.12163096919E+04  0.00000000000E+00 0. -1.
         -2   -1    0    0    0  501 -0.00000000000E+00 -0.00000000000E+00 -0.22990746668E+04  0.22990746668E+04  0.00000000000E+00 0.  1.
         23    2    1    2    0    0  0.15990255494E+04  0.44875283515E+03 -0.34845452080E+03  0.16994896321E+04  0.92642548400E+02 0.  0.
         11    1    3    3    0    0  0.10087718106E+04  0.25248727402E+03 -0.25247110516E+03  0.10700990834E+04  0.00000000000E+00 0.  1.
        -11    1    3    3    0    0  0.59025373888E+03  0.19626556114E+03 -0.95983415636E+02  0.62939054873E+03  0.00000000000E+00 0. -1.
         22    1    1    2    0    0 -0.15990255494E+04 -0.44875283515E+03 -0.73431045412E+03  0.18158947265E+04  0.00000000000E+00 0. -1.
<mgrwt>
<rscale>  0 0.33444801E+04</rscale>
<asrwt>0</asrwt>
<pdfrwt beam="1">  1        2 0.18712457E+00 0.33444801E+04</pdfrwt>
<pdfrwt beam="2">  1       -2 0.35370380E+00 0.33444801E+04</pdfrwt>
<totfact> 0.22711563E-01</totfact>
</mgrwt>
</event>
<event>
 6    1  0.2238133E-007  0.1663445E+04  0.7818608E-02  0.8782492E-01
          2   -1    0    0  501    0  0.00000000000E+00  0.00000000000E+00  0.27140329808E+04  0.27140329808E+04  0.00000000000E+00 0. -1.
         -2   -1    0    0    0  501 -0.00000000000E+00 -0.00000000000E+00 -0.25488351809E+03  0.25488351809E+03  0.00000000000E+00 0.  1.
         23    2    1    2    0    0  0.45660030085E+03  0.67828922462E+03  0.99215972016E+03  0.12894466386E+04  0.98648955554E+02 0.  0.
         11    1    3    3    0    0  0.27757669587E+03  0.32717494533E+03  0.53730821501E+03  0.68759900004E+03  0.00000000000E+00 0. -1.
        -11    1    3    3    0    0  0.17902360498E+03  0.35111427929E+03  0.45485150515E+03  0.60184763852E+03  0.00000000000E+00 0.  1.
         22    1    1    2    0    0 -0.45660030085E+03 -0.67828922462E+03  0.14669897426E+04  0.16794698603E+04  0.00000000000E+00 0.  1.
<mgrwt>
<rscale>  0 0.16634449E+04</rscale>
<asrwt>0</asrwt>
<pdfrwt beam="1">  1        2 0.41754351E+00 0.16634449E+04</pdfrwt>
<pdfrwt beam="2">  1       -2 0.39212851E-01 0.16634449E+04</pdfrwt>
<totfact> 0.15330717E+01</totfact>
</mgrwt>
</event>
<event>
 6    1  0.2238133E-007  0.3784568E+04  0.7818608E-02  0.8049475E-01
          2   -1    0    0  501    0  0.00000000000E+00  0.00000000000E+00  0.35546101150E+04  0.35546101150E+04  0.00000000000E+00 0. -1.
         -2   -1    0    0    0  501 -0.00000000000E+00 -0.00000000000E+00 -0.10073507390E+04  0.10073507390E+04  0.00000000000E+00 0.  1.
         23    2    1    2    0    0 -0.94658152563E+03  0.53115004647E+03 -0.59250183992E+03  0.12398775543E+04  0.90005349252E+02 0.  0.
         11    1    3    3    0    0 -0.42774205258E+03  0.29069380166E+03 -0.27206819651E+03  0.58436910718E+03  0.00000000000E+00 0. -1.
        -11    1    3    3    0    0 -0.51883947304E+03  0.24045624481E+03 -0.32043364341E+03  0.65550844715E+03  0.00000000000E+00 0.  1.
         22    1    1    2    0    0  0.94658152563E+03 -0.53115004647E+03  0.31397612159E+04  0.33220832996E+04  0.00000000000E+00 0. -1.
<mgrwt>
<rscale>  0 0.37845682E+04</rscale>
<asrwt>0</asrwt>
<pdfrwt beam="1">  1        2 0.54686309E+00 0.37845682E+04</pdfrwt>
<pdfrwt beam="2">  1       -2 0.15497704E+00 0.37845682E+04</pdfrwt>
<totfact> 0.16371549E-01</totfact>
</mgrwt>
</event>
<event>
 6    1  0.2238133E-007  0.1922212E+04  0.7818608E-02  0.8643878E-01
         -2   -1    0    0    0  501 -0.00000000000E+00  0.00000000000E+00  0.59430223642E+03  0.59430223642E+03  0.00000000000E+00 0.  1.
          2   -1    0    0  501    0  0.00000000000E+00 -0.00000000000E+00 -0.15543010879E+04  0.15543010879E+04  0.00000000000E+00 0. -1.
         23    2    1    2    0    0  0.81185458658E+03 -0.61694855945E+01  0.89222628449E+02  0.82194901883E+03  0.92160619765E+02 0.  0.
         11    1    3    3    0    0  0.52321558351E+03  0.40134169242E+02  0.59255915141E+02  0.52808764599E+03  0.00000000000E+00 0.  1.
        -11    1    3    3    0    0  0.28863900307E+03 -0.46303654837E+02  0.29966713309E+02  0.29386137284E+03  0.00000000000E+00 0. -1.
         22    1    1    2    0    0 -0.81185458658E+03  0.61694855945E+01 -0.10492214799E+04  0.13266543055E+04  0.00000000000E+00 0. -1.
<mgrwt>
<rscale>  0 0.19222119E+04</rscale>
<asrwt>0</asrwt>
<pdfrwt beam="1">  1        2 0.23912324E+00 0.19222119E+04</pdfrwt>
<pdfrwt beam="2">  1       -2 0.91431115E-01 0.19222119E+04</pdfrwt>
<totfact> 0.11269733E+01</totfact>
</mgrwt>
</event>
<event>
 6    1  0.2238133E-007  0.2856874E+04  0.7818608E-02  0.8285826E-01
          2   -1    0    0  501    0  0.00000000000E+00  0.00000000000E+00  0.11890894029E+04  0.11890894029E+04  0.00000000000E+00 0. -1.
         -2   -1    0    0    0  501 -0.00000000000E+00 -0.00000000000E+00 -0.17159621900E+04  0.17159621900E+04  0.00000000000E+00 0.  1.
         23    2    1    2    0    0 -0.74103283158E+03  0.95600681877E+03  0.50624944159E+03  0.13143221268E+04  0.89863568381E+02 0.  0.
         11    1    3    3    0    0 -0.64361549247E+03  0.85391481560E+03  0.41931740358E+03  0.11485810809E+04  0.00000000000E+00 0. -1.
        -11    1    3    3    0    0 -0.97417339108E+02  0.10209200317E+03  0.86932038016E+02  0.16574104592E+03  0.00000000000E+00 0.  1.
         22    1    1    2    0    0  0.74103283158E+03 -0.95600681877E+03 -0.10331222286E+04  0.15907294661E+04  0.00000000000E+00 0.  1.
<mgrwt>
<rscale>  0 0.28568741E+04</rscale>
<asrwt>0</asrwt>
<pdfrwt beam="1">  1        2 0.18293683E+00 0.28568741E+04</pdfrwt>
<pdfrwt beam="2">  1       -2 0.26399418E+00 0.28568741E+04</pdfrwt>
<totfact> 0.87832956E-01</totfact>
</mgrwt>
</event>
<event>
 6    1  0.2238133E-007  0.2104671E+04  0.7818608E-02  0.8559189E-01
         -2   -1    0    0    0  501 -0.00000000000E+00  0.00000000000E+00  0.53402690237E+03  0.53402690237E+03  0.00000000000E+00 0.  1.
          2   -1    0    0  501    0  0.00000000000E+00 -0.00000000000E+00 -0.20736963753E+04  0.20736963753E+04  0.00000000000E+00 0. -1.
         23    2    1    2    0    0  0.58165154006E+02  0.52239447800E+03 -0.18980112475E+04  0.19715723497E+04  0.91496768626E+02 0.  0.
         13    1    3    3    0    0 -0.41610745086E+01  0.33271934495E+03 -0.11231800860E+04  0.11714320222E+04  0.00000000000E+00 0. -1.
        -13    1    3    3    0    0  0.62326228515E+02  0.18967513304E+03 -0.77483116149E+03  0.80014032749E+03  0.00000000000E+00 0.  1.
         22    1    1    2    0    0 -0.58165154006E+02 -0.52239447800E+03  0.35834177456E+03  0.63615092799E+03  0.00000000000E+00 0.  1.
<mgrwt>
<rscale>  0 0.21046707E+04</rscale>
<asrwt>0</asrwt>
<pdfrwt beam="1">  1        2 0.31903021E+00 0.21046707E+04</pdfrwt>
<pdfrwt beam="2">  1       -2 0.82157985E-01 0.21046707E+04</pdfrwt>
<totfact> 0.72876148E+00</totfact>
</mgrwt>
</event>
<event>
 6    1  0.2238133E-007  0.2035145E+04  0.7818608E-02  0.8590363E-01
          2   -1    0    0  501    0  0.00000000000E+00  0.00000000000E+00  0.81605881756E+03  0.81605881756E+03  0.00000000000E+00 0. -1.
         -2   -1    0    0    0  501 -0.00000000000E+00 -0.00000000000E+00 -0.12688472487E+04  0.12688472487E+04  0.00000000000E+00 0.  1.
         23    2    1    2    0    0  0.59191301100E+03  0.29951499227E+02  0.61799032767E+03  0.86104935275E+03  0.90751517201E+02 0.  0.
         11    1    3    3    0    0  0.36408993874E+03  0.28954979154E+02  0.44064494971E+03  0.57233543138E+03  0.00000000000E+00 0.  1.
        -11    1    3    3    0    0  0.22782307226E+03  0.99652007360E+00  0.17734537796E+03  0.28871392136E+03  0.00000000000E+00 0. -1.
         22    1    1    2    0    0 -0.59191301100E+03 -0.29951499227E+02 -0.10707787588E+04  0.12238567135E+04  0.00000000000E+00 0.  1.
<mgrwt>
<rscale>  0 0.20351452E+04</rscale>
<asrwt>0</asrwt>
<pdfrwt beam="1">  1        2 0.12554751E+00 0.20351452E+04</pdfrwt>
<pdfrwt beam="2">  1       -2 0.19520727E+00 0.20351452E+04</pdfrwt>
<totfact> 0.44433419E+00</totfact>
</mgrwt>
</event>
<event>
 6    1  0.2238133E-007  0.2764482E+04  0.7818608E-02  0.8314381E-01
          2   -1    0    0  501    0  0.00000000000E+00  0.00000000000E+00  0.18266943564E+04  0.18266943564E+04  0.00000000000E+00 0. -1.
         -2   -1    0    0    0  501 -0.00000000000E+00 -0.00000000000E+00 -0.10459280125E+04  0.10459280125E+04  0.00000000000E+00 0.  1.
         23    2    1    2    0    0 -0.12009162395E+04 -0.65928923738E+03  0.56929773756E+03  0.14864113157E+04  0.91959624681E+02 0.  0.
         11    1    3    3    0    0 -0.81805005275E+03 -0.46648075765E+03  0.43391793727E+03  0.10368678616E+04  0.00000000000E+00 0.  1.
        -11    1    3    3    0    0 -0.38286618673E+03 -0.19280847973E+03  0.13537980029E+03  0.44954345410E+03  0.00000000000E+00 0. -1.
         22    1    1    2    0    0  0.12009162395E+04  0.65928923738E+03  0.21146860634E+03  0.13862110533E+04  0.00000000000E+00 0.  1.
<mgrwt>
<rscale>  0 0.27644824E+04</rscale>
<asrwt>0</asrwt>
<pdfrwt beam="1">  1        2 0.28102990E+00 0.27644824E+04</pdfrwt>
<pdfrwt beam="2">  1       -2 0.16091200E+00 0.27644824E+04</pdfrwt>
<totfact> 0.18052116E+00</totfact>
</mgrwt>
</event>
<event>
 6    1  0.2238133E-007  0.3317551E+04  0.7818608E-02  0.8158444E-01
          2   -1    0    0  501    0  0.00000000000E+00  0.00000000000E+00  0.29990252019E+04  0.29990252019E+04  0.00000000000E+00 0. -1.
         -2   -1    0    0    0  501 -0.00000000000E+00 -0.00000000000E+00 -0.91747698493E+03  0.91747698493E+03  0.00000000000E+00 0.  1.
         23    2    1    2    0    0 -0.10401021825E+04  0.46888116803E+03 -0.37781293718E+03  0.12053918264E+04  0.92545880239E+02 0.  0.
         11    1    3    3    0    0 -0.75233549367E+03  0.31605174457E+03 -0.23157705068E+03  0.84824838973E+03  0.00000000000E+00 0. -1.
        -11    1    3    3    0    0 -0.28776668883E+03  0.15282942346E+03 -0.14623588650E+03  0.35714343670E+03  0.00000000000E+00 0.  1.
         22    1    1    2    0    0  0.10401021825E+04 -0.46888116803E+03  0.24593611542E+04  0.27111103604E+04  0.00000000000E+00 0. -1.
<mgrwt>
<rscale>  0 0.33175513E+04</rscale>
<asrwt>0</asrwt>
<pdfrwt beam="1">  1        2 0.46138849E+00 0.33175513E+04</pdfrwt>
<pdfrwt beam="2">  1       -2 0.14115031E+00 0.33175513E+04</pdfrwt>
<totfact> 0.51090650E-01</totfact>
</mgrwt>
</event>
<event>
 6    1  0.2238133E-007  0.2057819E+04  0.7818608E-02  0.8580055E-01
         -2   -1    0    0    0  501 -0.00000000000E+00  0.00000000000E+00  0.62825528371E+03  0.62825528371E+03  0.00000000000E+00 0.  1.
          2   -1    0    0  501    0  0.00000000000E+00 -0.00000000000E+00 -0.16850715423E+04  0.16850715423E+04  0.00000000000E+00 0. -1.
         23    2    1    2    0    0  0.81535406816E+03 -0.54703382795E+03 -0.19141144233E+03  0.10045205908E+04  0.91515089609E+02 0.  0.
         13    1    3    3    0    0  0.29557280651E+03 -0.22774832806E+03 -0.35015262217E+02  0.37477813900E+03  0.00000000000E+00 0.  1.
        -13    1    3    3    0    0  0.51978126165E+03 -0.31928549989E+03 -0.15639618011E+03  0.62974245177E+03  0.00000000000E+00 0. -1.
         22    1    1    2    0    0 -0.81535406816E+03  0.54703382795E+03 -0.86540481623E+03  0.13088062352E+04  0.00000000000E+00 0. -1.
<mgrwt>
<rscale>  0 0.20578193E+04</rscale>
<asrwt>0</asrwt>
<pdfrwt beam="1">  1        2 0.25924177E+00 0.20578193E+04</pdfrwt>
<pdfrwt beam="2">  1       -2 0.96654660E-01 0.20578193E+04</pdfrwt>
<totfact> 0.82739098E+00</totfact>
</mgrwt>
</event>
<event>
 6    1  0.2402506E-007  0.3491823E+04  0.7818608E-02  0.8115730E-01
          2   -1    0    0  501    0  0.00000000000E+00  0.00000000000E+00  0.16625629145E+04  0.16625629145E+04  0.00000000000E+00 0. -1.
         -2   -1    0    0    0  501 -0.00000000000E+00 -0.00000000000E+00 -0.18334389712E+04  0.18334389712E+04  0.00000000000E+00 0.  1.
         23    2    1    2    0    0  0.17338440427E+03 -0.13086469717E+04 -0.12277010044E+04  0.18049968537E+04  0.90248752454E+02 0.  0.
         11    1    3    3    0    0  0.13107867799E+03 -0.71785745751E+03 -0.71472824996E+03  0.10214388971E+04  0.00000000000E+00 0. -1.
        -11    1    3    3    0    0  0.42305726280E+02 -0.59078951423E+03 -0.51297275444E+03  0.78355795663E+03  0.00000000000E+00 0.  1.
         22    1    1    2    0    0 -0.17338440427E+03  0.13086469717E+04  0.10568249477E+04  0.16910050320E+04  0.00000000000E+00 0. -1.
<mgrwt>
<rscale>  0 0.34918234E+04</rscale>
<asrwt>0</asrwt>
<pdfrwt beam="1">  1        2 0.25577891E+00 0.34918234E+04</pdfrwt>
<pdfrwt beam="2">  1       -2 0.28206753E+00 0.34918234E+04</pdfrwt>
<totfact> 0.34609086E-01</totfact>
</mgrwt>
</event>
<event>
 6    1  0.2238133E-007  0.3171589E+04  0.7818608E-02  0.8196361E-01
          1   -1    0    0  501    0  0.00000000000E+00  0.00000000000E+00  0.20632761375E+04  0.20632761375E+04  0.00000000000E+00 0. -1.
         -1   -1    0    0    0  501 -0.00000000000E+00 -0.00000000000E+00 -0.12188109074E+04  0.12188109074E+04  0.00000000000E+00 0.  1.
         23    2    1    2    0    0  0.73994371162E+03  0.11985184120E+04 -0.32979816945E+03  0.14482774551E+04  0.69120722318E+02 0.  0.
         11    1    3    3    0    0  0.39714027625E+03  0.57887141670E+03 -0.15691375667E+03  0.71932916187E+03  0.00000000000E+00 0.  1.
        -11    1    3    3    0    0  0.34280343537E+03  0.61964699528E+03 -0.17288441278E+03  0.72894829326E+03  0.00000000000E+00 0. -1.
         22    1    1    2    0    0 -0.73994371162E+03 -0.11985184120E+04  0.11742633996E+04  0.18338095898E+04  0.00000000000E+00 0. -1.
<mgrwt>
<rscale>  0 0.31715885E+04</rscale>
<asrwt>0</asrwt>
<pdfrwt beam="1">  1        1 0.31742710E+00 0.31715885E+04</pdfrwt>
<pdfrwt beam="2">  1       -1 0.18750937E+00 0.31715885E+04</pdfrwt>
<totfact> 0.41650609E-01</totfact>
</mgrwt>
</event>
<event>
 6    1  0.2238133E-007  0.2706358E+04  0.7818608E-02  0.8332945E-01
          2   -1    0    0  501    0  0.00000000000E+00  0.00000000000E+00  0.23402554921E+04  0.23402554921E+04  0.00000000000E+00 0. -1.
         -2   -1    0    0    0  501 -0.00000000000E+00 -0.00000000000E+00 -0.78243330074E+03  0.78243330074E+03  0.00000000000E+00 0.  1.
         23    2    1    2    0    0 -0.22152013964E+01  0.28908264031E+03  0.23033391029E+04  0.23230831741E+04  0.88151748465E+02 0.  0.
         11    1    3    3    0    0  0.42333004414E+02  0.14204196442E+03  0.11888963139E+04  0.11980995151E+04  0.00000000000E+00 0.  1.
        -11    1    3    3    0    0 -0.44548205810E+02  0.14704067589E+03  0.11144427890E+04  0.11249836589E+04  0.00000000000E+00 0. -1.
         22    1    1    2    0    0  0.22152013964E+01 -0.28908264031E+03 -0.74551691157E+03  0.79960561871E+03  0.00000000000E+00 0.  1.
<mgrwt>
<rscale>  0 0.27063583E+04</rscale>
<asrwt>0</asrwt>
<pdfrwt beam="1">  1        2 0.36003930E+00 0.27063583E+04</pdfrwt>
<pdfrwt beam="2">  1       -2 0.12037435E+00 0.27063583E+04</pdfrwt>
<totfact> 0.19866846E+00</totfact>
</mgrwt>
</event>
<event>
 6    1  0.2238133E-007  0.2036416E+04  0.7818608E-02  0.8589782E-01
          2   -1    0    0  501    0  0.00000000000E+00  0.00000000000E+00  0.29923022614E+04  0.29923022614E+04  0.00000000000E+00 0. -1.
         -2   -1    0    0    0  501 -0.00000000000E+00 -0.00000000000E+00 -0.34647153888E+03  0.34647153888E+03  0.00000000000E+00 0.  1.
         23    2    1    2    0    0  0.50632700520E+03 -0.38743549283E+03  0.26229175175E+04  0.27008096068E+04  0.90570033459E+02 0.  0.
         13    1    3    3    0    0  0.23773581391E+03 -0.23281451819E+03  0.12725291493E+04  0.13153141651E+04  0.00000000000E+00 0. -1.
        -13    1    3    3    0    0  0.26859119129E+03 -0.15462097463E+03  0.13503883683E+04  0.13854954417E+04  0.00000000000E+00 0.  1.
         22    1    1    2    0    0 -0.50632700520E+03  0.38743549283E+03  0.22913205041E+02  0.63796419356E+03  0.00000000000E+00 0.  1.
<mgrwt>
<rscale>  0 0.20364160E+04</rscale>
<asrwt>0</asrwt>
<pdfrwt beam="1">  1        2 0.46035418E+00 0.20364160E+04</pdfrwt>
<pdfrwt beam="2">  1       -2 0.53303316E-01 0.20364160E+04</pdfrwt>
<totfact> 0.54226309E+00</totfact>
</mgrwt>
</event>
<event>
 6    1  0.2238133E-007  0.2441888E+04  0.7818608E-02  0.8423986E-01
         -2   -1    0    0    0  501 -0.00000000000E+00  0.00000000000E+00  0.12453194105E+04  0.12453194105E+04  0.00000000000E+00 0.  1.
          2   -1    0    0  501    0  0.00000000000E+00 -0.00000000000E+00 -0.11970458135E+04  0.11970458135E+04  0.00000000000E+00 0. -1.
         23    2    1    2    0    0 -0.10829096452E+04  0.40819402879E+03  0.40800650828E+03  0.12304562207E+04  0.90760868462E+02 0.  0.
         13    1    3    3    0    0 -0.26125760587E+03  0.14064286078E+03  0.10134278951E+03  0.31353837389E+03  0.00000000000E+00 0.  1.
        -13    1    3    3    0    0 -0.82165203938E+03  0.26755116801E+03  0.30666371877E+03  0.91691784677E+03  0.00000000000E+00 0. -1.
         22    1    1    2    0    0  0.10829096452E+04 -0.40819402879E+03 -0.35973291133E+03  0.12119090033E+04  0.00000000000E+00 0. -1.
<mgrwt>
<rscale>  0 0.24418881E+04</rscale>
<asrwt>0</asrwt>
<pdfrwt beam="1">  1        2 0.18416089E+00 0.24418881E+04</pdfrwt>
<pdfrwt beam="2">  1       -2 0.19158760E+00 0.24418881E+04</pdfrwt>
<totfact> 0.25776919E+00</totfact>
</mgrwt>
</event>
<event>
 6    1  0.2238133E-007  0.2445808E+04  0.7818608E-02  0.8422550E-01
         -2   -1    0    0    0  501 -0.00000000000E+00  0.00000000000E+00  0.17025741750E+04  0.17025741750E+04  0.00000000000E+00 0.  1.
          2   -1    0    0  501    0  0.00000000000E+00 -0.00000000000E+00 -0.87837221859E+03  0.87837221859E+03  0.00000000000E+00 0. -1.
         23    2    1    2    0    0  0.93146059526E+03  0.54227141913E+03  0.10186032668E+04  0.14857436717E+04  0.90578752493E+02 0.  0.
         11    1    3    3    0    0  0.62509300384E+03  0.31410860674E+03  0.66505835740E+03  0.96525027792E+03  0.00000000000E+00 0.  1.
        -11    1    3    3    0    0  0.30636759141E+03  0.22816281239E+03  0.35354490941E+03  0.52049339381E+03  0.00000000000E+00 0. -1.
         22    1    1    2    0    0 -0.93146059526E+03 -0.54227141913E+03 -0.19440131038E+03  0.10952027219E+04  0.00000000000E+00 0. -1.
<mgrwt>
<rscale>  0 0.24458077E+04</rscale>
<asrwt>0</asrwt>
<pdfrwt beam="1">  1        2 0.13513419E+00 0.24458077E+04</pdfrwt>
<pdfrwt beam="2">  1       -2 0.26193449E+00 0.24458077E+04</pdfrwt>
<totfact> 0.14753165E+00</totfact>
</mgrwt>
</event>
<event>
 6    1  0.2238133E-007  0.6758121E+03  0.7818608E-02  0.9759515E-01
         -2   -1    0    0    0  501 -0.00000000000E+00  0.00000000000E+00  0.39197432734E+02  0.39197432734E+02  0.00000000000E+00 0.  1.
          2   -1    0    0  501    0  0.00000000000E+00 -0.00000000000E+00 -0.29129584509E+04  0.29129584509E+04  0.00000000000E+00 0. -1.
         23    2    1    2    0    0 -0.44714356357E+02 -0.31780468102E+03 -0.18313933839E+04  0.18615003588E+04  0.90458112822E+02 0.  0.
         13    1    3    3    0    0 -0.40538789350E+01 -0.24948353618E+03 -0.12464924963E+04  0.12712206779E+04  0.00000000000E+00 0. -1.
        -13    1    3    3    0    0 -0.40660477422E+02 -0.68321144848E+02 -0.58490088766E+03  0.59027968086E+03  0.00000000000E+00 0.  1.
         22    1    1    2    0    0  0.44714356357E+02  0.31780468102E+03 -0.10423676343E+04  0.10906555249E+04  0.00000000000E+00 0. -1.
<mgrwt>
<rscale>  0 0.67581208E+03</rscale>
<asrwt>0</asrwt>
<pdfrwt beam="1">  1        2 0.44814768E+00 0.67581208E+03</pdfrwt>
<pdfrwt beam="2">  1       -2 0.60303712E-02 0.67581208E+03</pdfrwt>
<totfact> 0.32219678E+02</totfact>
</mgrwt>
</event>
<event>
 6    1  0.2238133E-007  0.3042879E+04  0.7818608E-02  0.8231591E-01
          1   -1    0    0  501    0  0.00000000000E+00  0.00000000000E+00  0.11835667308E+04  0.11835667308E+04  0.00000000000E+00 0. -1.
         -1   -1    0    0    0  501 -0.00000000000E+00 -0.00000000000E+00 -0.19557647382E+04  0.19557647382E+04  0.00000000000E+00 0.  1.
         23    2    1    2    0    0 -0.35242189942E+03 -0.69727163820E+03 -0.17317440648E+04  0.19019481134E+04  0.89889863698E+02 0.  0.
         11    1    3    3    0    0 -0.19314348349E+03 -0.47287472753E+03 -0.10944363584E+04  0.12077689580E+04  0.00000000000E+00 0.  1.
        -11    1    3    3    0    0 -0.15927841594E+03 -0.22439691067E+03 -0.63730770633E+03  0.69417915544E+03  0.00000000000E+00 0. -1.
         22    1    1    2    0    0  0.35242189942E+03  0.69727163820E+03  0.95954605733E+03  0.12373833556E+04  0.00000000000E+00 0. -1.
<mgrwt>
<rscale>  0 0.30428790E+04</rscale>
<asrwt>0</asrwt>
<pdfrwt beam="1">  1        1 0.18208719E+00 0.30428790E+04</pdfrwt>
<pdfrwt beam="2">  1       -1 0.30088688E+00 0.30428790E+04</pdfrwt>
<totfact> 0.30357542E-01</totfact>
</mgrwt>
</event>
<event>
 6    1  0.2238133E-007  0.1733979E+04  0.7818608E-02  0.8742219E-01
          1   -1    0    0  501    0  0.00000000000E+00  0.00000000000E+00  0.21319631622E+04  0.21319631622E+04  0.00000000000E+00 0. -1.
         -1   -1    0    0    0  501 -0.00000000000E+00 -0.00000000000E+00 -0.35257219481E+03  0.35257219481E+03  0.00000000000E+00 0.  1.
         23    2    1    2    0    0 -0.16742309605E+03 -0.34900116254E+03 -0.21552019400E+03  0.45241753406E+03  0.91653513604E+02 0.  0.
         13    1    3    3    0    0 -0.74901502211E+02 -0.22853534817E+03 -0.95248414450E+02  0.25867141484E+03  0.00000000000E+00 0.  1.
        -13    1    3    3    0    0 -0.92521593838E+02 -0.12046581437E+03 -0.12027177955E+03  0.19374611922E+03  0.00000000000E+00 0. -1.
         22    1    1    2    0    0  0.16742309605E+03  0.34900116254E+03  0.19949111614E+04  0.20321178229E+04  0.00000000000E+00 0. -1.
<mgrwt>
<rscale>  0 0.17339792E+04</rscale>
<asrwt>0</asrwt>
<pdfrwt beam="1">  1        1 0.32799433E+00 0.17339792E+04</pdfrwt>
<pdfrwt beam="2">  1       -1 0.54241877E-01 0.17339792E+04</pdfrwt>
<totfact> 0.78980700E+00</totfact>
</mgrwt>
</event>
<event>
 6    1  0.2238133E-007  0.2389234E+04  0.7818608E-02  0.8443545E-01
          2   -1    0    0  501    0  0.00000000000E+00  0.00000000000E+00  0.36006112151E+04  0.36006112151E+04  0.00000000000E+00 0. -1.
         -2   -1    0    0    0  501 -0.00000000000E+00 -0.00000000000E+00 -0.39635206915E+03  0.39635206915E+03  0.00000000000E+00 0.  1.
         23    2    1    2    0    0 -0.84764026113E+03  0.83109628235E+03  0.14068892249E+04  0.18429545387E+04  0.89045481217E+02 0.  0.
         13    1    3    3    0    0 -0.37551077429E+03  0.40176984544E+03  0.70927026874E+03  0.89749187430E+03  0.00000000000E+00 0. -1.
        -13    1    3    3    0    0 -0.47212948683E+03  0.42932643691E+03  0.69761895620E+03  0.94546266443E+03  0.00000000000E+00 0.  1.
         22    1    1    2    0    0  0.84764026113E+03 -0.83109628235E+03  0.17973699210E+04  0.21540087455E+04  0.00000000000E+00 0. -1.
<mgrwt>
<rscale>  0 0.23892339E+04</rscale>
<asrwt>0</asrwt>
<pdfrwt beam="1">  1        2 0.55394017E+00 0.23892339E+04</pdfrwt>
<pdfrwt beam="2">  1       -2 0.60977244E-01 0.23892339E+04</pdfrwt>
<totfact> 0.15574038E+00</totfact>
</mgrwt>
</event>
<event>
 6    1  0.2238133E-007  0.2860548E+04  0.7818608E-02  0.8284713E-01
          2   -1    0    0  501    0  0.00000000000E+00  0.00000000000E+00  0.24399332444E+04  0.24399332444E+04  0.00000000000E+00 0. -1.
         -2   -1    0    0    0  501 -0.00000000000E+00 -0.00000000000E+00 -0.83841773537E+03  0.83841773537E+03  0.00000000000E+00 0.  1.
         23    2    1    2    0    0  0.96416997353E+03  0.76448534654E+03  0.16331027361E+04  0.20474735139E+04  0.10517443010E+03 0.  0.
         11    1    3    3    0    0  0.45031773378E+03  0.29537693116E+03  0.74515834403E+03  0.91939901593E+03  0.00000000000E+00 0.  1.
        -11    1    3    3    0    0  0.51385223975E+03  0.46910841538E+03  0.88794439207E+03  0.11280744980E+04  0.00000000000E+00 0. -1.
         22    1    1    2    0    0 -0.96416997353E+03 -0.76448534654E+03 -0.31587227072E+02  0.12308774658E+04  0.00000000000E+00 0.  1.
<mgrwt>
<rscale>  0 0.28605477E+04</rscale>
<asrwt>0</asrwt>
<pdfrwt beam="1">  1        2 0.37537434E+00 0.28605477E+04</pdfrwt>
<pdfrwt beam="2">  1       -2 0.12898735E+00 0.28605477E+04</pdfrwt>
<totfact> 0.14460881E+00</totfact>
</mgrwt>
</event>
<event>
 6    1  0.2238133E-007  0.3763698E+03  0.7818608E-02  0.1052284E+00
         -4   -1    0    0    0  501 -0.00000000000E+00  0.00000000000E+00  0.14515145889E+04  0.14515145889E+04  0.00000000000E+00 0.  1.
          4   -1    0    0  501    0  0.00000000000E+00 -0.00000000000E+00 -0.24397663516E+02  0.24397663516E+02  0.00000000000E+00 0. -1.
         23    2    1    2    0    0  0.50086897455E+02 -0.78363200134E+02  0.13466822948E+04  0.13529520222E+04  0.90975176127E+02 0.  0.
         13    1    3    3    0    0  0.82329334652E+01 -0.77526873977E+02  0.59228202029E+03  0.59739115238E+03  0.00000000000E+00 0. -1.
        -13    1    3    3    0    0  0.41853963989E+02 -0.83632615677E+00  0.75440027453E+03  0.75556086979E+03  0.00000000000E+00 0.  1.
         22    1    1    2    0    0 -0.50086897455E+02  0.78363200134E+02  0.80434630597E+02  0.12296023028E+03  0.00000000000E+00 0. -1.
<mgrwt>
<rscale>  0 0.37636984E+03</rscale>
<asrwt>0</asrwt>
<pdfrwt beam="1">  1        4 0.37534878E-02 0.37636984E+03</pdfrwt>
<pdfrwt beam="2">  1       -4 0.22330987E+00 0.37636984E+03</pdfrwt>
<totfact> 0.74331645E+01</totfact>
</mgrwt>
</event>
<event>
 6    1  0.2238133E-007  0.3112772E+04  0.7818608E-02  0.8212242E-01
          2   -1    0    0  501    0  0.00000000000E+00  0.00000000000E+00  0.27565069971E+04  0.27565069971E+04  0.00000000000E+00 0. -1.
         -2   -1    0    0    0  501 -0.00000000000E+00 -0.00000000000E+00 -0.87877043283E+03  0.87877043283E+03  0.00000000000E+00 0.  1.
         23    2    1    2    0    0 -0.48977755751E+03  0.55267044705E+03  0.25379305361E+04  0.26447307327E+04  0.90457521124E+02 0.  0.
         13    1    3    3    0    0 -0.43940562535E+03  0.44644089303E+03  0.21410316837E+04  0.22307853875E+04  0.00000000000E+00 0. -1.
        -13    1    3    3    0    0 -0.50371932156E+02  0.10622955402E+03  0.39689885246E+03  0.41394534516E+03  0.00000000000E+00 0.  1.
         22    1    1    2    0    0  0.48977755751E+03 -0.55267044705E+03 -0.66019397190E+03  0.99054669724E+03  0.00000000000E+00 0.  1.
<mgrwt>
<rscale>  0 0.31127717E+04</rscale>
<asrwt>0</asrwt>
<pdfrwt beam="1">  1        2 0.42407800E+00 0.31127717E+04</pdfrwt>
<pdfrwt beam="2">  1       -2 0.13519545E+00 0.31127717E+04</pdfrwt>
<totfact> 0.81854515E-01</totfact>
</mgrwt>
</event>
<event>
 6    1  0.2238133E-007  0.4871844E+04  0.7818608E-02  0.7848586E-01
          2   -1    0    0  501    0  0.00000000000E+00  0.00000000000E+00  0.24596273615E+04  0.24596273615E+04  0.00000000000E+00 0. -1.
         -2   -1    0    0    0  501 -0.00000000000E+00 -0.00000000000E+00 -0.24124453271E+04  0.24124453271E+04  0.00000000000E+00 0.  1.
         23    2    1    2    0    0  0.10527772355E+04  0.16135171504E+04 -0.14657180514E+04  0.24224514584E+04  0.90355743425E+02 0.  0.
         11    1    3    3    0    0  0.88007712518E+03  0.14054915558E+04 -0.12541647251E+04  0.20791516100E+04  0.00000000000E+00 0.  1.
        -11    1    3    3    0    0  0.17270011027E+03  0.20802559460E+03 -0.21155332627E+03  0.34329984846E+03  0.00000000000E+00 0. -1.
         22    1    1    2    0    0 -0.10527772355E+04 -0.16135171504E+04  0.15129000857E+04  0.24496212302E+04  0.00000000000E+00 0. -1.
<mgrwt>
<rscale>  0 0.48718442E+04</rscale>
<asrwt>0</asrwt>
<pdfrwt beam="1">  1        2 0.37840421E+00 0.48718442E+04</pdfrwt>
<pdfrwt beam="2">  1       -2 0.37114543E+00 0.48718442E+04</pdfrwt>
<totfact> 0.30847448E-02</totfact>
</mgrwt>
</event>
<event>
 6    1  0.2238133E-007  0.4273836E+04  0.7818608E-02  0.7951474E-01
          2   -1    0    0  501    0  0.00000000000E+00  0.00000000000E+00  0.12686447384E+04  0.12686447384E+04  0.00000000000E+00 0. -1.
         -2   -1    0    0    0  501 -0.00000000000E+00 -0.00000000000E+00 -0.35994454589E+04  0.35994454589E+04  0.00000000000E+00 0.  1.
         23    2    1    2    0    0  0.45316829024E+03  0.10155558996E+04 -0.32430848633E+04  0.34296960782E+04  0.92198011691E+02 0.  0.
         11    1    3    3    0    0  0.22306837445E+03  0.41509410486E+03 -0.12810582451E+04  0.13649808947E+04  0.00000000000E+00 0. -1.
        -11    1    3    3    0    0  0.23009991579E+03  0.60046179472E+03 -0.19620266182E+04  0.20647151834E+04  0.00000000000E+00 0.  1.
         22    1    1    2    0    0 -0.45316829024E+03 -0.10155558996E+04  0.91228414286E+03  0.14383941191E+04  0.00000000000E+00 0. -1.
<mgrwt>
<rscale>  0 0.42738355E+04</rscale>
<asrwt>0</asrwt>
<pdfrwt beam="1">  1        2 0.19517611E+00 0.42738355E+04</pdfrwt>
<pdfrwt beam="2">  1       -2 0.55376084E+00 0.42738355E+04</pdfrwt>
<totfact> 0.10906448E-02</totfact>
</mgrwt>
</event>
<event>
 6    1  0.2238133E-007  0.1703402E+04  0.7818608E-02  0.8759427E-01
         -1   -1    0    0    0  501 -0.00000000000E+00  0.00000000000E+00  0.41385341936E+03  0.41385341936E+03  0.00000000000E+00 0.  1.
          1   -1    0    0  501    0  0.00000000000E+00 -0.00000000000E+00 -0.17527811914E+04  0.17527811914E+04  0.00000000000E+00 0. -1.
         23    2    1    2    0    0  0.79732048393E+03 -0.20795025814E+03 -0.41727130963E+03  0.93034423281E+03  0.11163235071E+03 0.  0.
         13    1    3    3    0    0  0.23710466057E+03 -0.98898826874E+01 -0.12136916928E+03  0.26654625320E+03  0.00000000000E+00 0. -1.
        -13    1    3    3    0    0  0.56021582336E+03 -0.19806037546E+03 -0.29590214035E+03  0.66379797961E+03  0.00000000000E+00 0.  1.
         22    1    1    2    0    0 -0.79732048393E+03  0.20795025814E+03 -0.92165646245E+03  0.12362903780E+04  0.00000000000E+00 0.  1.
<mgrwt>
<rscale>  0 0.17034019E+04</rscale>
<asrwt>0</asrwt>
<pdfrwt beam="1">  1        1 0.26965864E+00 0.17034019E+04</pdfrwt>
<pdfrwt beam="2">  1       -1 0.63669757E-01 0.17034019E+04</pdfrwt>
<totfact> 0.10441089E+01</totfact>
</mgrwt>
</event>
<event>
 6    1  0.2238133E-007  0.3316842E+04  0.7818608E-02  0.8158623E-01
          2   -1    0    0  501    0  0.00000000000E+00  0.00000000000E+00  0.30397251636E+04  0.30397251636E+04  0.00000000000E+00 0. -1.
         -2   -1    0    0    0  501 -0.00000000000E+00 -0.00000000000E+00 -0.90480550223E+03  0.90480550223E+03  0.00000000000E+00 0.  1.
         23    2    1    2    0    0  0.37404161351E+03  0.10611091739E+04 -0.37875702345E+03  0.11905462281E+04  0.89909013784E+02 0.  0.
         11    1    3    3    0    0  0.20314966168E+03  0.69258712935E+03 -0.26251998695E+03  0.76802568989E+03  0.00000000000E+00 0. -1.
        -11    1    3    3    0    0  0.17089195184E+03  0.36852204457E+03 -0.11623703649E+03  0.42252053818E+03  0.00000000000E+00 0.  1.
         22    1    1    2    0    0 -0.37404161351E+03 -0.10611091739E+04  0.25136766848E+04  0.27539844377E+04  0.00000000000E+00 0. -1.
<mgrwt>
<rscale>  0 0.33168419E+04</rscale>
<asrwt>0</asrwt>
<pdfrwt beam="1">  1        2 0.46765002E+00 0.33168419E+04</pdfrwt>
<pdfrwt beam="2">  1       -2 0.13920085E+00 0.33168419E+04</pdfrwt>
<totfact> 0.49938107E-01</totfact>
</mgrwt>
</event>
<event>
 6    1  0.2238133E-007  0.1398444E+04  0.7818608E-02  0.8954946E-01
          2   -1    0    0  501    0  0.00000000000E+00  0.00000000000E+00  0.23107987109E+04  0.23107987109E+04  0.00000000000E+00 0. -1.
         -2   -1    0    0    0  501 -0.00000000000E+00 -0.00000000000E+00 -0.21157667886E+03  0.21157667886E+03  0.00000000000E+00 0.  1.
         23    2    1    2    0    0 -0.33054081776E+02  0.68436851216E+03  0.12752494397E+04  0.14507487451E+04  0.94646473804E+02 0.  0.
         13    1    3    3    0    0 -0.59763318899E+02  0.59454588963E+03  0.10844710362E+04  0.12381978426E+04  0.00000000000E+00 0. -1.
        -13    1    3    3    0    0  0.26709237123E+02  0.89822622532E+02  0.19077840356E+03  0.21255090245E+03  0.00000000000E+00 0.  1.
         22    1    1    2    0    0  0.33054081776E+02 -0.68436851216E+03  0.82397259235E+03  0.10716266447E+04  0.00000000000E+00 0.  1.
<mgrwt>
<rscale>  0 0.13984436E+04</rscale>
<asrwt>0</asrwt>
<pdfrwt beam="1">  1        2 0.35550748E+00 0.13984436E+04</pdfrwt>
<pdfrwt beam="2">  1       -2 0.32550260E-01 0.13984436E+04</pdfrwt>
<totfact> 0.38358684E+01</totfact>
</mgrwt>
</event>
<event>
 6    1  0.2238133E-007  0.5006977E+04  0.7818608E-02  0.7827432E-01
         -2   -1    0    0    0  501 -0.00000000000E+00  0.00000000000E+00  0.24699218583E+04  0.24699218583E+04  0.00000000000E+00 0.  1.
          2   -1    0    0  501    0  0.00000000000E+00 -0.00000000000E+00 -0.25375115588E+04  0.25375115588E+04  0.00000000000E+00 0. -1.
         23    2    1    2    0    0  0.35079331388E+03 -0.24680098357E+04  0.18882394557E+03  0.25014652497E+04  0.86864347458E+02 0.  0.
         11    1    3    3    0    0  0.30482401043E+03 -0.18944611512E+04  0.15526671522E+03  0.19250996036E+04  0.00000000000E+00 0.  1.
        -11    1    3    3    0    0  0.45969303451E+02 -0.57354868444E+03  0.33557230352E+02  0.57636564609E+03  0.00000000000E+00 0. -1.
         22    1    1    2    0    0 -0.35079331388E+03  0.24680098357E+04 -0.25641364609E+03  0.25059681674E+04  0.00000000000E+00 0.  1.
<mgrwt>
<rscale>  0 0.50069772E+04</rscale>
<asrwt>0</asrwt>
<pdfrwt beam="1">  1        2 0.39038639E+00 0.50069772E+04</pdfrwt>
<pdfrwt beam="2">  1       -2 0.37998798E+00 0.50069772E+04</pdfrwt>
<totfact> 0.24130734E-02</totfact>
</mgrwt>
</event>
<event>
 6    1  0.2238133E-007  0.2438448E+04  0.7818608E-02  0.8425248E-01
          2   -1    0    0  501    0  0.00000000000E+00  0.00000000000E+00  0.14956890910E+04  0.14956890910E+04  0.00000000000E+00 0. -1.
         -2   -1    0    0    0  501 -0.00000000000E+00 -0.00000000000E+00 -0.99386071913E+03  0.99386071913E+03  0.00000000000E+00 0.  1.
         23    2    1    2    0    0  0.86222160661E+03  0.69437576444E+03 -0.26600489699E+03  0.11422741405E+04  0.91911945664E+02 0.  0.
         11    1    3    3    0    0  0.33227765730E+03  0.29764602570E+03 -0.67603523273E+02  0.45118935550E+03  0.00000000000E+00 0.  1.
        -11    1    3    3    0    0  0.52994394931E+03  0.39672973874E+03 -0.19840137372E+03  0.69108478503E+03  0.00000000000E+00 0. -1.
         22    1    1    2    0    0 -0.86222160661E+03 -0.69437576444E+03  0.76783326885E+03  0.13472756696E+04  0.00000000000E+00 0. -1.
<mgrwt>
<rscale>  0 0.24384476E+04</rscale>
<asrwt>0</asrwt>
<pdfrwt beam="1">  1        2 0.23010601E+00 0.24384476E+04</pdfrwt>
<pdfrwt beam="2">  1       -2 0.15290165E+00 0.24384476E+04</pdfrwt>
<totfact> 0.32585474E+00</totfact>
</mgrwt>
</event>
<event>
 6    1  0.2238133E-007  0.5516013E+04  0.7818608E-02  0.7753490E-01
          2   -1    0    0  501    0  0.00000000000E+00  0.00000000000E+00  0.41537213592E+04  0.41537213592E+04  0.00000000000E+00 0. -1.
         -2   -1    0    0    0  501 -0.00000000000E+00 -0.00000000000E+00 -0.18312736443E+04  0.18312736443E+04  0.00000000000E+00 0.  1.
         23    2    1    2    0    0 -0.20672259214E+04 -0.33546533783E+02 -0.81783366228E+03  0.22252190118E+04  0.90550379885E+02 0.  0.
         13    1    3    3    0    0 -0.13940925399E+04  0.15139293653E+02 -0.57187050742E+03  0.15069038076E+04  0.00000000000E+00 0.  1.
        -13    1    3    3    0    0 -0.67313338149E+03 -0.48685827436E+02 -0.24596315486E+03  0.71831520422E+03  0.00000000000E+00 0. -1.
         22    1    1    2    0    0  0.20672259214E+04  0.33546533783E+02  0.31402813771E+04  0.37597759917E+04  0.00000000000E+00 0. -1.
<mgrwt>
<rscale>  0 0.55160132E+04</rscale>
<asrwt>0</asrwt>
<pdfrwt beam="1">  1        2 0.63903405E+00 0.55160132E+04</pdfrwt>
<pdfrwt beam="2">  1       -2 0.28173441E+00 0.55160132E+04</pdfrwt>
<totfact> 0.72738216E-03</totfact>
</mgrwt>
</event>
<event>
 6    1  0.2238133E-007  0.4149353E+04  0.7818608E-02  0.7975077E-01
          1   -1    0    0  501    0  0.00000000000E+00  0.00000000000E+00  0.17693651367E+04  0.17693651367E+04  0.00000000000E+00 0. -1.
         -1   -1    0    0    0  501 -0.00000000000E+00 -0.00000000000E+00 -0.24326705255E+04  0.24326705255E+04  0.00000000000E+00 0.  1.
         23    2    1    2    0    0  0.55727551425E+03  0.10391481720E+04 -0.20592509017E+04  0.23747292299E+04  0.91867933420E+02 0.  0.
         11    1    3    3    0    0  0.24785161544E+03  0.54745022940E+03 -0.10912217994E+04  0.12457516576E+04  0.00000000000E+00 0. -1.
        -11    1    3    3    0    0  0.30942389881E+03  0.49169794258E+03 -0.96802910227E+03  0.11289775723E+04  0.00000000000E+00 0.  1.
         22    1    1    2    0    0 -0.55727551425E+03 -0.10391481720E+04  0.13959455130E+04  0.18273064323E+04  0.00000000000E+00 0. -1.
<mgrwt>
<rscale>  0 0.41493529E+04</rscale>
<asrwt>0</asrwt>
<pdfrwt beam="1">  1        1 0.27221002E+00 0.41493529E+04</pdfrwt>
<pdfrwt beam="2">  1       -1 0.37425700E+00 0.41493529E+04</pdfrwt>
<totfact> 0.35336034E-02</totfact>
</mgrwt>
</event>
<event>
 6    1  0.2238133E-007  0.2038706E+04  0.7818608E-02  0.8588735E-01
          2   -1    0    0  501    0  0.00000000000E+00  0.00000000000E+00  0.35116027117E+04  0.35116027117E+04  0.00000000000E+00 0. -1.
         -2   -1    0    0    0  501 -0.00000000000E+00 -0.00000000000E+00 -0.29589918803E+03  0.29589918803E+03  0.00000000000E+00 0.  1.
         23    2    1    2    0    0 -0.44319539287E+03  0.75528879612E+03  0.64376781474E+03  0.10905667491E+04  0.89529398242E+02 0.  0.
         13    1    3    3    0    0 -0.30980562003E+03  0.59189962682E+03  0.51396339284E+03  0.84290157172E+03  0.00000000000E+00 0. -1.
        -13    1    3    3    0    0 -0.13338977283E+03  0.16338916930E+03  0.12980442189E+03  0.24766517738E+03  0.00000000000E+00 0.  1.
         22    1    1    2    0    0  0.44319539287E+03 -0.75528879612E+03  0.25719357089E+04  0.27169351506E+04  0.00000000000E+00 0. -1.
<mgrwt>
<rscale>  0 0.20387059E+04</rscale>
<asrwt>0</asrwt>
<pdfrwt beam="1">  1        2 0.54024654E+00 0.20387059E+04</pdfrwt>
<pdfrwt beam="2">  1       -2 0.45522954E-01 0.20387059E+04</pdfrwt>
<totfact> 0.33993738E+00</totfact>
</mgrwt>
</event>
<event>
 6    1  0.2238133E-007  0.3334338E+04  0.7818608E-02  0.8154213E-01
          2   -1    0    0  501    0  0.00000000000E+00  0.00000000000E+00  0.11301532186E+04  0.11301532186E+04  0.00000000000E+00 0. -1.
         -2   -1    0    0    0  501 -0.00000000000E+00 -0.00000000000E+00 -0.24593586646E+04  0.24593586646E+04  0.00000000000E+00 0.  1.
         23    2    1    2    0    0  0.12650474527E+04 -0.22361903882E+02  0.50150265630E+03  0.13641271372E+04  0.92156496559E+02 0.  0.
         13    1    3    3    0    0  0.72627515123E+03 -0.53504649727E+02  0.26589270128E+03  0.77526593594E+03  0.00000000000E+00 0. -1.
        -13    1    3    3    0    0  0.53877230143E+03  0.31142745845E+02  0.23560995502E+03  0.58886120123E+03  0.00000000000E+00 0.  1.
         22    1    1    2    0    0 -0.12650474527E+04  0.22361903882E+02 -0.18307081023E+04  0.22253847461E+04  0.00000000000E+00 0.  1.
<mgrwt>
<rscale>  0 0.33343378E+04</rscale>
<asrwt>0</asrwt>
<pdfrwt beam="1">  1        2 0.17386973E+00 0.33343378E+04</pdfrwt>
<pdfrwt beam="2">  1       -2 0.37836287E+00 0.33343378E+04</pdfrwt>
<totfact> 0.17824551E-01</totfact>
</mgrwt>
</event>
<event>
 6    1  0.2238133E-007  0.2652939E+04  0.7818608E-02  0.8350438E-01
         -2   -1    0    0    0  501 -0.00000000000E+00  0.00000000000E+00  0.14293628744E+04  0.14293628744E+04  0.00000000000E+00 0.  1.
          2   -1    0    0  501    0  0.00000000000E+00 -0.00000000000E+00 -0.12309833181E+04  0.12309833181E+04  0.00000000000E+00 0. -1.
         23    2    1    2    0    0  0.11032398939E+04  0.49013895231E+03 -0.44845369112E+03  0.12907595008E+04  0.87034015165E+02 0.  0.
         11    1    3    3    0    0  0.76522615298E+03  0.37950085130E+03 -0.29914689681E+03  0.90503084324E+03  0.00000000000E+00 0. -1.
        -11    1    3    3    0    0  0.33801374094E+03  0.11063810100E+03 -0.14930679432E+03  0.38572865759E+03  0.00000000000E+00 0.  1.
         22    1    1    2    0    0 -0.11032398939E+04 -0.49013895231E+03  0.64683324745E+03  0.13695866917E+04  0.00000000000E+00 0.  1.
<mgrwt>
<rscale>  0 0.26529394E+04</rscale>
<asrwt>0</asrwt>
<pdfrwt beam="1">  1        2 0.18938205E+00 0.26529394E+04</pdfrwt>
<pdfrwt beam="2">  1       -2 0.21990198E+00 0.26529394E+04</pdfrwt>
<totfact> 0.15823018E+00</totfact>
</mgrwt>
</event>
<event>
 6    1  0.2238133E-007  0.1074277E+04  0.7818608E-02  0.9230632E-01
         -2   -1    0    0    0  501 -0.00000000000E+00  0.00000000000E+00  0.36545678162E+03  0.36545678162E+03  0.00000000000E+00 0.  1.
          2   -1    0    0  501    0  0.00000000000E+00 -0.00000000000E+00 -0.78947234203E+03  0.78947234203E+03  0.00000000000E+00 0. -1.
         23    2    1    2    0    0  0.12590042890E+03 -0.51248137564E+03 -0.13149186265E+03  0.55155677415E+03  0.91851438705E+02 0.  0.
         11    1    3    3    0    0  0.31288242240E+02 -0.37406620404E+02 -0.27954769600E+02  0.56211017567E+02  0.00000000000E+00 0.  1.
        -11    1    3    3    0    0  0.94612186660E+02 -0.47507475524E+03 -0.10353709305E+03  0.49534575659E+03  0.00000000000E+00 0. -1.
         22    1    1    2    0    0 -0.12590042890E+03  0.51248137564E+03 -0.29252369776E+03  0.60337234949E+03  0.00000000000E+00 0. -1.
<mgrwt>
<rscale>  0 0.10742775E+04</rscale>
<asrwt>0</asrwt>
<pdfrwt beam="1">  1        2 0.12145728E+00 0.10742775E+04</pdfrwt>
<pdfrwt beam="2">  1       -2 0.56224121E-01 0.10742775E+04</pdfrwt>
<totfact> 0.10354174E+02</totfact>
</mgrwt>
</event>
<event>
 6    1  0.2238133E-007  0.1486287E+04  0.7818608E-02  0.8893623E-01
         -2   -1    0    0    0  501 -0.00000000000E+00  0.00000000000E+00  0.87120879897E+03  0.87120879897E+03  0.00000000000E+00 0.  1.
          2   -1    0    0  501    0  0.00000000000E+00 -0.00000000000E+00 -0.63390367048E+03  0.63390367048E+03  0.00000000000E+00 0. -1.
         23    2    1    2    0    0  0.16861479417E+03  0.10768340647E+03  0.84085803356E+03  0.86926439478E+03  0.92475351260E+02 0.  0.
         11    1    3    3    0    0  0.44820395689E+01  0.39477635005E+02  0.21578197776E+03  0.21940928483E+03  0.00000000000E+00 0. -1.
        -11    1    3    3    0    0  0.16413275460E+03  0.68205771469E+02  0.62507605580E+03  0.64985510995E+03  0.00000000000E+00 0.  1.
         22    1    1    2    0    0 -0.16861479417E+03 -0.10768340647E+03 -0.60355290507E+03  0.63584807467E+03  0.00000000000E+00 0. -1.
<mgrwt>
<rscale>  0 0.14862873E+04</rscale>
<asrwt>0</asrwt>
<pdfrwt beam="1">  1        2 0.97523642E-01 0.14862873E+04</pdfrwt>
<pdfrwt beam="2">  1       -2 0.13403212E+00 0.14862873E+04</pdfrwt>
<totfact> 0.18016142E+01</totfact>
</mgrwt>
</event>
<event>
 6    1  0.2238133E-007  0.2242425E+04  0.7818608E-02  0.8500974E-01
         -2   -1    0    0    0  501 -0.00000000000E+00  0.00000000000E+00  0.61323749601E+03  0.61323749601E+03  0.00000000000E+00 0.  1.
          2   -1    0    0  501    0  0.00000000000E+00 -0.00000000000E+00 -0.20499687607E+04  0.20499687607E+04  0.00000000000E+00 0. -1.
         23    2    1    2    0    0 -0.12186818723E+03 -0.92890703001E+03 -0.14470115498E+04  0.17262826688E+04  0.92137407494E+02 0.  0.
         11    1    3    3    0    0 -0.81403046378E+01 -0.46648594819E+02 -0.41746347869E+02  0.63127755533E+02  0.00000000000E+00 0. -1.
        -11    1    3    3    0    0 -0.11372788259E+03 -0.88225843519E+03 -0.14052652019E+04  0.16631549132E+04  0.00000000000E+00 0.  1.
         22    1    1    2    0    0  0.12186818723E+03  0.92890703001E+03  0.10280285026E+02  0.93692358799E+03  0.00000000000E+00 0.  1.
<mgrwt>
<rscale>  0 0.22424252E+04</rscale>
<asrwt>0</asrwt>
<pdfrwt beam="1">  1        2 0.31537980E+00 0.22424252E+04</pdfrwt>
<pdfrwt beam="2">  1       -2 0.94344232E-01 0.22424252E+04</pdfrwt>
<totfact> 0.54060596E+00</totfact>
</mgrwt>
</event>
<event>
 6    1  0.2238133E-007  0.2144546E+04  0.7818608E-02  0.8541871E-01
          2   -1    0    0  501    0  0.00000000000E+00  0.00000000000E+00  0.50214415076E+03  0.50214415076E+03  0.00000000000E+00 0. -1.
         -2   -1    0    0    0  501 -0.00000000000E+00 -0.00000000000E+00 -0.22897193312E+04  0.22897193312E+04  0.00000000000E+00 0.  1.
         23    2    1    2    0    0  0.31377172798E+03 -0.74995792273E+03  0.11013449429E+02  0.81808268293E+03  0.90820685414E+02 0.  0.
         13    1    3    3    0    0  0.10762325546E+03 -0.31339110799E+03  0.43501165948E+02  0.33419919677E+03  0.00000000000E+00 0. -1.
        -13    1    3    3    0    0  0.20614847253E+03 -0.43656681474E+03 -0.32487716519E+02  0.48388348616E+03  0.00000000000E+00 0.  1.
         22    1    1    2    0    0 -0.31377172798E+03  0.74995792273E+03 -0.17985886299E+04  0.19737807990E+04  0.00000000000E+00 0.  1.
<mgrwt>
<rscale>  0 0.21445458E+04</rscale>
<asrwt>0</asrwt>
<pdfrwt beam="1">  1        2 0.77252947E-01 0.21445458E+04</pdfrwt>
<pdfrwt beam="2">  1       -2 0.35226451E+00 0.21445458E+04</pdfrwt>
<totfact> 0.84841884E-01</totfact>
</mgrwt>
</event>
<event>
 6    1  0.2238133E-007  0.2530827E+04  0.7818608E-02  0.8392085E-01
          2   -1    0    0  501    0  0.00000000000E+00  0.00000000000E+00  0.17152685138E+04  0.17152685138E+04  0.00000000000E+00 0. -1.
         -2   -1    0    0    0  501 -0.00000000000E+00 -0.00000000000E+00 -0.93354002329E+03  0.93354002329E+03  0.00000000000E+00 0.  1.
         23    2    1    2    0    0 -0.50076186713E+03  0.73950069844E+03  0.13270213842E+04  0.16024013169E+04  0.95291635583E+02 0.  0.
         13    1    3    3    0    0 -0.19002232795E+03  0.21197945431E+03  0.46113820142E+03  0.54193377361E+03  0.00000000000E+00 0. -1.
        -13    1    3    3    0    0 -0.31073953919E+03  0.52752124413E+03  0.86588318280E+03  0.10604675433E+04  0.00000000000E+00 0.  1.
         22    1    1    2    0    0  0.50076186713E+03 -0.73950069844E+03 -0.54529289366E+03  0.10464072202E+04  0.00000000000E+00 0.  1.
<mgrwt>
<rscale>  0 0.25308274E+04</rscale>
<asrwt>0</asrwt>
<pdfrwt beam="1">  1        2 0.26388746E+00 0.25308274E+04</pdfrwt>
<pdfrwt beam="2">  1       -2 0.14362154E+00 0.25308274E+04</pdfrwt>
<totfact> 0.28749857E+00</totfact>
</mgrwt>
</event>
<event>
 6    1  0.2238133E-007  0.2783596E+04  0.7818608E-02  0.8308379E-01
          2   -1    0    0  501    0  0.00000000000E+00  0.00000000000E+00  0.12491756836E+04  0.12491756836E+04  0.00000000000E+00 0. -1.
         -2   -1    0    0    0  501 -0.00000000000E+00 -0.00000000000E+00 -0.15507039589E+04  0.15507039589E+04  0.00000000000E+00 0.  1.
         23    2    1    2    0    0  0.10397251722E+04  0.88918939333E+03  0.98299276014E+02  0.13745557208E+04  0.89746705299E+02 0.  0.
         11    1    3    3    0    0  0.72830007677E+03  0.63657255586E+03  0.29794835737E+02  0.96774653341E+03  0.00000000000E+00 0.  1.
        -11    1    3    3    0    0  0.31142509544E+03  0.25261683747E+03  0.68504440277E+02  0.40680918744E+03  0.00000000000E+00 0. -1.
         22    1    1    2    0    0 -0.10397251722E+04 -0.88918939333E+03 -0.39982755127E+03  0.14253239217E+04  0.00000000000E+00 0.  1.
<mgrwt>
<rscale>  0 0.27835960E+04</rscale>
<asrwt>0</asrwt>
<pdfrwt beam="1">  1        2 0.19218087E+00 0.27835960E+04</pdfrwt>
<pdfrwt beam="2">  1       -2 0.23856984E+00 0.27835960E+04</pdfrwt>
<totfact> 0.11664815E+00</totfact>
</mgrwt>
</event>
<event>
 6    1  0.2238133E-007  0.2155413E+04  0.7818608E-02  0.8537219E-01
         -1   -1    0    0    0  501 -0.00000000000E+00  0.00000000000E+00  0.87998989703E+03  0.87998989703E+03  0.00000000000E+00 0.  1.
          1   -1    0    0  501    0  0.00000000000E+00 -0.00000000000E+00 -0.13198462795E+04  0.13198462795E+04  0.00000000000E+00 0. -1.
         23    2    1    2    0    0 -0.24291228705E+03 -0.10367002533E+04 -0.58344798898E+02  0.10687725697E+04  0.71532480444E+02 0.  0.
         11    1    3    3    0    0 -0.66132956375E+02 -0.17002414701E+03 -0.18235728511E+02  0.18334208540E+03  0.00000000000E+00 0. -1.
        -11    1    3    3    0    0 -0.17677933067E+03 -0.86667610628E+03 -0.40109070387E+02  0.88543048427E+03  0.00000000000E+00 0.  1.
         22    1    1    2    0    0  0.24291228705E+03  0.10367002533E+04 -0.38151158356E+03  0.11310636069E+04  0.00000000000E+00 0.  1.
<mgrwt>
<rscale>  0 0.21554131E+04</rscale>
<asrwt>0</asrwt>
<pdfrwt beam="1">  1        1 0.20305327E+00 0.21554131E+04</pdfrwt>
<pdfrwt beam="2">  1       -1 0.13538306E+00 0.21554131E+04</pdfrwt>
<totfact> 0.36647216E+00</totfact>
</mgrwt>
</event>
<event>
 6    1  0.2238133E-007  0.1809064E+04  0.7818608E-02  0.8701494E-01
          2   -1    0    0  501    0  0.00000000000E+00  0.00000000000E+00  0.46097320848E+03  0.46097320848E+03  0.00000000000E+00 0. -1.
         -2   -1    0    0    0  501 -0.00000000000E+00 -0.00000000000E+00 -0.17748928071E+04  0.17748928071E+04  0.00000000000E+00 0.  1.
         23    2    1    2    0    0  0.22803257309E+03 -0.34489353056E+03  0.33174232872E+03  0.53905913768E+03  0.97884520931E+02 0.  0.
         11    1    3    3    0    0  0.43741668299E+02 -0.14070523762E+03  0.14407705678E+03  0.20608128428E+03  0.00000000000E+00 0. -1.
        -11    1    3    3    0    0  0.18429090479E+03 -0.20418829293E+03  0.18766527194E+03  0.33297785340E+03  0.00000000000E+00 0.  1.
         22    1    1    2    0    0 -0.22803257309E+03  0.34489353056E+03 -0.16456619273E+04  0.16968068779E+04  0.00000000000E+00 0.  1.
<mgrwt>
<rscale>  0 0.18090639E+04</rscale>
<asrwt>0</asrwt>
<pdfrwt beam="1">  1        2 0.70918955E-01 0.18090639E+04</pdfrwt>
<pdfrwt beam="2">  1       -2 0.27306043E+00 0.18090639E+04</pdfrwt>
<totfact> 0.29648411E+00</totfact>
</mgrwt>
</event>
<event>
 6    1  0.2238133E-007  0.9187618E+03  0.7818608E-02  0.9402428E-01
          1   -1    0    0  501    0  0.00000000000E+00  0.00000000000E+00  0.20632811974E+04  0.20632811974E+04  0.00000000000E+00 0. -1.
         -1   -1    0    0    0  501 -0.00000000000E+00 -0.00000000000E+00 -0.10227922137E+03  0.10227922137E+03  0.00000000000E+00 0.  1.
         23    2    1    2    0    0  0.44021466646E+03  0.36194748985E+02  0.12459373188E+04  0.13250745614E+04  0.91453695825E+02 0.  0.
         11    1    3    3    0    0  0.21545891350E+03 -0.27825556706E+02  0.61580781621E+03  0.65300541461E+03  0.00000000000E+00 0.  1.
        -11    1    3    3    0    0  0.22475575296E+03  0.64020305690E+02  0.63012950255E+03  0.67206914675E+03  0.00000000000E+00 0. -1.
         22    1    1    2    0    0 -0.44021466646E+03 -0.36194748985E+02  0.71506465731E+03  0.84048585743E+03  0.00000000000E+00 0.  1.
<mgrwt>
<rscale>  0 0.91876176E+03</rscale>
<asrwt>0</asrwt>
<pdfrwt beam="1">  1        1 0.31742785E+00 0.91876176E+03</pdfrwt>
<pdfrwt beam="2">  1       -1 0.15735266E-01 0.91876176E+03</pdfrwt>
<totfact> 0.83399713E+01</totfact>
</mgrwt>
</event>
<event>
 6    1  0.2238133E-007  0.1425409E+04  0.7818608E-02  0.8935629E-01
         -2   -1    0    0    0  501 -0.00000000000E+00  0.00000000000E+00  0.47218116621E+03  0.47218116621E+03  0.00000000000E+00 0.  1.
          2   -1    0    0  501    0  0.00000000000E+00 -0.00000000000E+00 -0.10757476444E+04  0.10757476444E+04  0.00000000000E+00 0. -1.
         23    2    1    2    0    0  0.31890869490E+03  0.83626849295E+02 -0.98583186513E+03  0.10431288189E+04  0.86931357472E+02 0.  0.
         11    1    3    3    0    0  0.17307750056E+03  0.88431603006E+01 -0.42908166606E+03  0.46275814291E+03  0.00000000000E+00 0. -1.
        -11    1    3    3    0    0  0.14583119434E+03  0.74783688994E+02 -0.55675019907E+03  0.58037067599E+03  0.00000000000E+00 0.  1.
         22    1    1    2    0    0 -0.31890869490E+03 -0.83626849295E+02  0.38226538693E+03  0.50479999172E+03  0.00000000000E+00 0.  1.
<mgrwt>
<rscale>  0 0.14254091E+04</rscale>
<asrwt>0</asrwt>
<pdfrwt beam="1">  1        2 0.16549964E+00 0.14254091E+04</pdfrwt>
<pdfrwt beam="2">  1       -2 0.72643257E-01 0.14254091E+04</pdfrwt>
<totfact> 0.37557002E+01</totfact>
</mgrwt>
</event>
<event>
 6    1  0.2238133E-007  0.3113120E+04  0.7818608E-02  0.8212146E-01
         -2   -1    0    0    0  501 -0.00000000000E+00  0.00000000000E+00  0.10686721389E+04  0.10686721389E+04  0.00000000000E+00 0.  1.
          2   -1    0    0  501    0  0.00000000000E+00 -0.00000000000E+00 -0.22671869500E+04  0.22671869500E+04  0.00000000000E+00 0. -1.
         23    2    1    2    0    0  0.11930625723E+04 -0.98036809025E+03 -0.40713881097E+03  0.16006945816E+04  0.10927597349E+03 0.  0.
         13    1    3    3    0    0  0.64872977242E+02 -0.60223725778E+02 -0.50091454200E+02  0.10170818112E+03  0.00000000000E+00 0. -1.
        -13    1    3    3    0    0  0.11281895950E+04 -0.92014436448E+03 -0.35704735677E+03  0.14989864005E+04  0.00000000000E+00 0.  1.
         22    1    1    2    0    0 -0.11930625723E+04  0.98036809025E+03 -0.79137600012E+03  0.17351645073E+04  0.00000000000E+00 0. -1.
<mgrwt>
<rscale>  0 0.31131203E+04</rscale>
<asrwt>0</asrwt>
<pdfrwt beam="1">  1        2 0.34879799E+00 0.31131203E+04</pdfrwt>
<pdfrwt beam="2">  1       -2 0.16441110E+00 0.31131203E+04</pdfrwt>
<totfact> 0.93828787E-01</totfact>
</mgrwt>
</event>
<event>
 6    1  0.2238133E-007  0.1104855E+04  0.7818608E-02  0.9200473E-01
          2   -1    0    0  501    0  0.00000000000E+00  0.00000000000E+00  0.18527126779E+04  0.18527126779E+04  0.00000000000E+00 0. -1.
         -2   -1    0    0    0  501 -0.00000000000E+00 -0.00000000000E+00 -0.16471853046E+03  0.16471853046E+03  0.00000000000E+00 0.  1.
         23    2    1    2    0    0  0.37587432269E+03 -0.32441979784E+03  0.42202541401E+03  0.65757586837E+03  0.88152486659E+02 0.  0.
         13    1    3    3    0    0  0.24720909421E+03 -0.23374370287E+03  0.23687304890E+03  0.41455674664E+03  0.00000000000E+00 0.  1.
        -13    1    3    3    0    0  0.12866522848E+03 -0.90676094967E+02  0.18515236511E+03  0.24301912173E+03  0.00000000000E+00 0. -1.
         22    1    1    2    0    0 -0.37587432269E+03  0.32441979784E+03  0.12659687334E+04  0.13598553400E+04  0.00000000000E+00 0.  1.
<mgrwt>
<rscale>  0 0.11048549E+04</rscale>
<asrwt>0</asrwt>
<pdfrwt beam="1">  1        2 0.28503271E+00 0.11048549E+04</pdfrwt>
<pdfrwt beam="2">  1       -2 0.25341314E-01 0.11048549E+04</pdfrwt>
<totfact> 0.11216971E+02</totfact>
</mgrwt>
</event>
<event>
 6    1  0.2238133E-007  0.2138165E+04  0.7818608E-02  0.8544615E-01
         -2   -1    0    0    0  501 -0.00000000000E+00  0.00000000000E+00  0.76742000606E+03  0.76742000606E+03  0.00000000000E+00 0.  1.
          2   -1    0    0  501    0  0.00000000000E+00 -0.00000000000E+00 -0.14893246097E+04  0.14893246097E+04  0.00000000000E+00 0. -1.
         23    2    1    2    0    0 -0.94300031948E+03  0.33539940279E+03  0.28460172441E+02  0.10058290874E+04  0.95602351715E+02 0.  0.
         13    1    3    3    0    0 -0.58670509557E+03  0.17172769840E+03  0.48386851902E+02  0.61323287502E+03  0.00000000000E+00 0. -1.
        -13    1    3    3    0    0 -0.35629522391E+03  0.16367170439E+03 -0.19926679461E+02  0.39259621236E+03  0.00000000000E+00 0.  1.
         22    1    1    2    0    0  0.94300031948E+03 -0.33539940279E+03 -0.75036477605E+03  0.12509155284E+04  0.00000000000E+00 0. -1.
<mgrwt>
<rscale>  0 0.21381651E+04</rscale>
<asrwt>0</asrwt>
<pdfrwt beam="1">  1        2 0.22912686E+00 0.21381651E+04</pdfrwt>
<pdfrwt beam="2">  1       -2 0.11806462E+00 0.21381651E+04</pdfrwt>
<totfact> 0.65384323E+00</totfact>
</mgrwt>
</event>
<event>
 6    1  0.2366719E-007  0.2906251E+04  0.7818608E-02  0.8271020E-01
          2   -1    0    0  501    0  0.00000000000E+00  0.00000000000E+00  0.14150400566E+04  0.14150400566E+04  0.00000000000E+00 0. -1.
         -2   -1    0    0    0  501 -0.00000000000E+00 -0.00000000000E+00 -0.14922359129E+04  0.14922359129E+04  0.00000000000E+00 0.  1.
         23    2    1    2    0    0  0.21228228501E+03  0.29141009838E+03 -0.14453456420E+04  0.14924199874E+04  0.91157993270E+02 0.  0.
         13    1    3    3    0    0  0.19400403648E+03  0.20085804423E+03 -0.11091438521E+04  0.11437576687E+04  0.00000000000E+00 0. -1.
        -13    1    3    3    0    0  0.18278248525E+02  0.90552054147E+02 -0.33620178994E+03  0.34866231863E+03  0.00000000000E+00 0.  1.
         22    1    1    2    0    0 -0.21228228501E+03 -0.29141009838E+03  0.13681497857E+04  0.14148559821E+04  0.00000000000E+00 0. -1.
<mgrwt>
<rscale>  0 0.29062509E+04</rscale>
<asrwt>0</asrwt>
<pdfrwt beam="1">  1        2 0.21769847E+00 0.29062509E+04</pdfrwt>
<pdfrwt beam="2">  1       -2 0.22957476E+00 0.29062509E+04</pdfrwt>
<totfact> 0.10527924E+00</totfact>
</mgrwt>
</event>
<event>
 6    1  0.2238133E-007  0.1320259E+04  0.7818608E-02  0.9013652E-01
         -2   -1    0    0    0  501 -0.00000000000E+00  0.00000000000E+00  0.32968830854E+03  0.32968830854E+03  0.00000000000E+00 0.  1.
          2   -1    0    0  501    0  0.00000000000E+00 -0.00000000000E+00 -0.13217665809E+04  0.13217665809E+04  0.00000000000E+00 0. -1.
         23    2    1    2    0    0 -0.35465783931E+03 -0.19903207715E+03 -0.11438635694E+04  0.12173641994E+04  0.90309346176E+02 0.  0.
         11    1    3    3    0    0 -0.24661591616E+03 -0.97618573189E+02 -0.80344716980E+03  0.84609464635E+03  0.00000000000E+00 0. -1.
        -11    1    3    3    0    0 -0.10804192315E+03 -0.10141350396E+03 -0.34041639958E+03  0.37126955308E+03  0.00000000000E+00 0.  1.
         22    1    1    2    0    0  0.35465783931E+03  0.19903207715E+03  0.15178529705E+03  0.43409068997E+03  0.00000000000E+00 0.  1.
<mgrwt>
<rscale>  0 0.13202590E+04</rscale>
<asrwt>0</asrwt>
<pdfrwt beam="1">  1        2 0.20334870E+00 0.13202590E+04</pdfrwt>
<pdfrwt beam="2">  1       -2 0.50721280E-01 0.13202590E+04</pdfrwt>
<totfact> 0.57739337E+01</totfact>
</mgrwt>
</event>
<event>
 6    1  0.2238133E-007  0.1286960E+04  0.7818608E-02  0.9039970E-01
          2   -1    0    0  501    0  0.00000000000E+00  0.00000000000E+00  0.10198594324E+04  0.10198594324E+04  0.00000000000E+00 0. -1.
         -2   -1    0    0    0  501 -0.00000000000E+00 -0.00000000000E+00 -0.40600381598E+03  0.40600381598E+03  0.00000000000E+00 0.  1.
         23    2    1    2    0    0  0.13997441692E+03  0.62093114332E+03  0.23210656055E+03  0.68364989375E+03  0.91407875095E+02 0.  0.
         11    1    3    3    0    0  0.58658474583E+02  0.17824322677E+03  0.10906543762E+03  0.21704085839E+03  0.00000000000E+00 0. -1.
        -11    1    3    3    0    0  0.81315942339E+02  0.44268791656E+03  0.12304112293E+03  0.46660903535E+03  0.00000000000E+00 0.  1.
         22    1    1    2    0    0 -0.13997441692E+03 -0.62093114332E+03  0.38174905588E+03  0.74221335464E+03  0.00000000000E+00 0. -1.
<mgrwt>
<rscale>  0 0.12869605E+04</rscale>
<asrwt>0</asrwt>
<pdfrwt beam="1">  1        2 0.15690145E+00 0.12869605E+04</pdfrwt>
<pdfrwt beam="2">  1       -2 0.62462126E-01 0.12869605E+04</pdfrwt>
<totfact> 0.57067750E+01</totfact>
</mgrwt>
</event>
<event>
 6    1  0.2238133E-007  0.3566393E+04  0.7818608E-02  0.8098234E-01
          2   -1    0    0  501    0  0.00000000000E+00  0.00000000000E+00  0.16273471864E+04  0.16273471864E+04  0.00000000000E+00 0. -1.
         -2   -1    0    0    0  501 -0.00000000000E+00 -0.00000000000E+00 -0.19539710213E+04  0.19539710213E+04  0.00000000000E+00 0.  1.
         23    2    1    2    0    0 -0.11162993274E+04  0.12557037200E+04 -0.75975586406E+03  0.18462333753E+04  0.91829638992E+02 0.  0.
         11    1    3    3    0    0 -0.53778483904E+03  0.67345099507E+03 -0.39564979576E+03  0.94830772260E+03  0.00000000000E+00 0. -1.
        -11    1    3    3    0    0 -0.57851448836E+03  0.58225272488E+03 -0.36410606830E+03  0.89792565274E+03  0.00000000000E+00 0.  1.
         22    1    1    2    0    0  0.11162993274E+04 -0.12557037200E+04  0.43313202919E+03  0.17350848323E+04  0.00000000000E+00 0. -1.
<mgrwt>
<rscale>  0 0.35663927E+04</rscale>
<asrwt>0</asrwt>
<pdfrwt beam="1">  1        2 0.25036111E+00 0.35663927E+04</pdfrwt>
<pdfrwt beam="2">  1       -2 0.30061093E+00 0.35663927E+04</pdfrwt>
<totfact> 0.27723245E-01</totfact>
</mgrwt>
</event>
<event>
 6    1  0.2238133E-007  0.3378329E+04  0.7818608E-02  0.8143246E-01
         -2   -1    0    0    0  501 -0.00000000000E+00  0.00000000000E+00  0.16259096799E+04  0.16259096799E+04  0.00000000000E+00 0.  1.
          2   -1    0    0  501    0  0.00000000000E+00 -0.00000000000E+00 -0.17548801325E+04  0.17548801325E+04  0.00000000000E+00 0. -1.
         23    2    1    2    0    0  0.54973186253E+03  0.13288806400E+04  0.81985854935E+03  0.16578837352E+04  0.91003090433E+02 0.  0.
         13    1    3    3    0    0  0.36207068608E+03  0.83518936832E+03  0.47114811097E+03  0.10249961001E+04  0.00000000000E+00 0.  1.
        -13    1    3    3    0    0  0.18766117645E+03  0.49369127164E+03  0.34871043838E+03  0.63288763511E+03  0.00000000000E+00 0. -1.
         22    1    1    2    0    0 -0.54973186253E+03 -0.13288806400E+04 -0.94882900199E+03  0.17229060772E+04  0.00000000000E+00 0. -1.
<mgrwt>
<rscale>  0 0.33783289E+04</rscale>
<asrwt>0</asrwt>
<pdfrwt beam="1">  1        2 0.26998156E+00 0.33783289E+04</pdfrwt>
<pdfrwt beam="2">  1       -2 0.25013995E+00 0.33783289E+04</pdfrwt>
<totfact> 0.48657268E-01</totfact>
</mgrwt>
</event>
<event>
 6    1  0.2238133E-007  0.1414042E+04  0.7818608E-02  0.8943717E-01
         -2   -1    0    0    0  501 -0.00000000000E+00  0.00000000000E+00  0.50130120084E+03  0.50130120084E+03  0.00000000000E+00 0.  1.
          2   -1    0    0  501    0  0.00000000000E+00 -0.00000000000E+00 -0.99716173707E+03  0.99716173707E+03  0.00000000000E+00 0. -1.
         23    2    1    2    0    0  0.54809210795E+03  0.25773137659E+03  0.13473169189E+03  0.62411919576E+03  0.67392287661E+02 0.  0.
         11    1    3    3    0    0  0.26275530729E+03  0.16011674915E+03  0.61509402087E+02  0.31378516761E+03  0.00000000000E+00 0. -1.
        -11    1    3    3    0    0  0.28533680067E+03  0.97614627443E+02  0.73222289803E+02  0.31033402815E+03  0.00000000000E+00 0.  1.
         22    1    1    2    0    0 -0.54809210795E+03 -0.25773137659E+03 -0.63059222812E+03  0.87434374216E+03  0.00000000000E+00 0.  1.
<mgrwt>
<rscale>  0 0.14140415E+04</rscale>
<asrwt>0</asrwt>
<pdfrwt beam="1">  1        2 0.15340950E+00 0.14140415E+04</pdfrwt>
<pdfrwt beam="2">  1       -2 0.77123261E-01 0.14140415E+04</pdfrwt>
<totfact> 0.36915858E+01</totfact>
</mgrwt>
</event>
<event>
 6    1  0.2238133E-007  0.1909976E+04  0.7818608E-02  0.8649907E-01
          2   -1    0    0  501    0  0.00000000000E+00  0.00000000000E+00  0.20365178756E+04  0.20365178756E+04  0.00000000000E+00 0. -1.
         -2   -1    0    0    0  501 -0.00000000000E+00 -0.00000000000E+00 -0.44782404796E+03  0.44782404796E+03  0.00000000000E+00 0.  1.
         23    2    1    2    0    0  0.69144422725E+03  0.33777616341E+03  0.15269364642E+04  0.17123303770E+04  0.91392005308E+02 0.  0.
         13    1    3    3    0    0  0.57247411114E+03  0.24426898746E+03  0.11887780635E+04  0.13418596165E+04  0.00000000000E+00 0. -1.
        -13    1    3    3    0    0  0.11897011610E+03  0.93507175943E+02  0.33815840064E+03  0.37047076053E+03  0.00000000000E+00 0.  1.
         22    1    1    2    0    0 -0.69144422725E+03 -0.33777616341E+03  0.61757363448E+02  0.77201154648E+03  0.00000000000E+00 0.  1.
<mgrwt>
<rscale>  0 0.19099756E+04</rscale>
<asrwt>0</asrwt>
<pdfrwt beam="1">  1        2 0.31331044E+00 0.19099756E+04</pdfrwt>
<pdfrwt beam="2">  1       -2 0.68896008E-01 0.19099756E+04</pdfrwt>
<totfact> 0.11481997E+01</totfact>
</mgrwt>
</event>
<event>
 6    1  0.2238133E-007  0.2131828E+04  0.7818608E-02  0.8547351E-01
          2   -1    0    0  501    0  0.00000000000E+00  0.00000000000E+00  0.77871560120E+03  0.77871560120E+03  0.00000000000E+00 0. -1.
         -2   -1    0    0    0  501 -0.00000000000E+00 -0.00000000000E+00 -0.14590345375E+04  0.14590345375E+04  0.00000000000E+00 0.  1.
         23    2    1    2    0    0  0.24223138729E+03  0.59404741591E+03  0.55017970717E+03  0.85005590403E+03  0.91263094717E+02 0.  0.
         13    1    3    3    0    0  0.68418222448E+02  0.28672383357E+03  0.25946972721E+03  0.39270364047E+03  0.00000000000E+00 0.  1.
        -13    1    3    3    0    0  0.17381316484E+03  0.30732358233E+03  0.29070997996E+03  0.45735226356E+03  0.00000000000E+00 0. -1.
         22    1    1    2    0    0 -0.24223138729E+03 -0.59404741591E+03 -0.12304986434E+04  0.13876942346E+04  0.00000000000E+00 0.  1.
<mgrwt>
<rscale>  0 0.21318283E+04</rscale>
<asrwt>0</asrwt>
<pdfrwt beam="1">  1        2 0.11980240E+00 0.21318283E+04</pdfrwt>
<pdfrwt beam="2">  1       -2 0.22446685E+00 0.21318283E+04</pdfrwt>
<totfact> 0.30378998E+00</totfact>
</mgrwt>
</event>
<event>
 6    1  0.2238133E-007  0.6477290E+04  0.7818608E-02  0.7633885E-01
         -2   -1    0    0    0  501 -0.00000000000E+00  0.00000000000E+00  0.31735510529E+04  0.31735510529E+04  0.00000000000E+00 0.  1.
          2   -1    0    0  501    0  0.00000000000E+00 -0.00000000000E+00 -0.33050739069E+04  0.33050739069E+04  0.00000000000E+00 0. -1.
         23    2    1    2    0    0  0.73275644665E+03  0.15275347498E+04 -0.28257322637E+04  0.32960067349E+04  0.92753158448E+02 0.  0.
         11    1    3    3    0    0  0.15335658877E+03  0.41338253155E+03 -0.74082250133E+03  0.86210285882E+03  0.00000000000E+00 0.  1.
        -11    1    3    3    0    0  0.57939985788E+03  0.11141522182E+04 -0.20849097624E+04  0.24339038761E+04  0.00000000000E+00 0. -1.
         22    1    1    2    0    0 -0.73275644665E+03 -0.15275347498E+04  0.26942094097E+04  0.31826182249E+04  0.00000000000E+00 0.  1.
<mgrwt>
<rscale>  0 0.64772898E+04</rscale>
<asrwt>0</asrwt>
<pdfrwt beam="1">  1        2 0.50847291E+00 0.64772898E+04</pdfrwt>
<pdfrwt beam="2">  1       -2 0.48823862E+00 0.64772898E+04</pdfrwt>
<totfact> 0.14163441E-03</totfact>
</mgrwt>
</event>
<event>
 6    1  0.2238133E-007  0.3737869E+04  0.7818608E-02  0.8059621E-01
         -2   -1    0    0    0  501 -0.00000000000E+00  0.00000000000E+00  0.20771161138E+04  0.20771161138E+04  0.00000000000E+00 0.  1.
          2   -1    0    0  501    0  0.00000000000E+00 -0.00000000000E+00 -0.16816182358E+04  0.16816182358E+04  0.00000000000E+00 0. -1.
         23    2    1    2    0    0  0.15061153203E+03  0.94614148450E+03  0.18099028531E+04  0.20503992022E+04  0.10257196738E+03 0.  0.
         13    1    3    3    0    0  0.26413648274E+02  0.49089072361E+03  0.91409176679E+03  0.10378993889E+04  0.00000000000E+00 0.  1.
        -13    1    3    3    0    0  0.12419788376E+03  0.45525076088E+03  0.89581108629E+03  0.10124998133E+04  0.00000000000E+00 0. -1.
         22    1    1    2    0    0 -0.15061153203E+03 -0.94614148450E+03 -0.14144049751E+04  0.17083351474E+04  0.00000000000E+00 0. -1.
<mgrwt>
<rscale>  0 0.37378691E+04</rscale>
<asrwt>0</asrwt>
<pdfrwt beam="1">  1        2 0.25871050E+00 0.37378691E+04</pdfrwt>
<pdfrwt beam="2">  1       -2 0.31955633E+00 0.37378691E+04</pdfrwt>
<totfact> 0.19495192E-01</totfact>
</mgrwt>
</event>
<event>
 6    1  0.2238133E-007  0.1550506E+04  0.7818608E-02  0.8851545E-01
          2   -1    0    0  501    0  0.00000000000E+00  0.00000000000E+00  0.99768510639E+03  0.99768510639E+03  0.00000000000E+00 0. -1.
         -2   -1    0    0    0  501 -0.00000000000E+00 -0.00000000000E+00 -0.60241144486E+03  0.60241144486E+03  0.00000000000E+00 0.  1.
         23    2    1    2    0    0 -0.29780685418E+03 -0.71128078946E+03  0.14690900685E+03  0.78997663078E+03  0.88721683022E+02 0.  0.
         13    1    3    3    0    0 -0.21809018762E+03 -0.43531563589E+03  0.12006780129E+03  0.50147712779E+03  0.00000000000E+00 0.  1.
        -13    1    3    3    0    0 -0.79716666551E+02 -0.27596515358E+03  0.26841205561E+02  0.28849950300E+03  0.00000000000E+00 0. -1.
         22    1    1    2    0    0  0.29780685418E+03  0.71128078946E+03  0.24836465468E+03  0.81011992047E+03  0.00000000000E+00 0. -1.
<mgrwt>
<rscale>  0 0.15505056E+04</rscale>
<asrwt>0</asrwt>
<pdfrwt beam="1">  1        2 0.15349002E+00 0.15505056E+04</pdfrwt>
<pdfrwt beam="2">  1       -2 0.92678683E-01 0.15505056E+04</pdfrwt>
<totfact> 0.24026264E+01</totfact>
</mgrwt>
</event>
<event>
 6    1  0.2238133E-007  0.1309772E+04  0.7818608E-02  0.9021851E-01
         -2   -1    0    0    0  501 -0.00000000000E+00  0.00000000000E+00  0.53034911530E+03  0.53034911530E+03  0.00000000000E+00 0.  1.
          2   -1    0    0  501    0  0.00000000000E+00 -0.00000000000E+00 -0.80866725263E+03  0.80866725263E+03  0.00000000000E+00 0. -1.
         23    2    1    2    0    0 -0.22288740005E+03  0.57117386060E+03  0.86168322584E+02  0.62573609231E+03  0.90566579194E+02 0.  0.
         11    1    3    3    0    0 -0.14123233386E+03  0.29654777460E+03  0.84770214644E+02  0.33922432702E+03  0.00000000000E+00 0.  1.
        -11    1    3    3    0    0 -0.81655066192E+02  0.27462608600E+03  0.13981079398E+01  0.28651176529E+03  0.00000000000E+00 0. -1.
         22    1    1    2    0    0  0.22288740005E+03 -0.57117386060E+03 -0.36448645992E+03  0.71328027562E+03  0.00000000000E+00 0. -1.
<mgrwt>
<rscale>  0 0.13097724E+04</rscale>
<asrwt>0</asrwt>
<pdfrwt beam="1">  1        2 0.12441035E+00 0.13097724E+04</pdfrwt>
<pdfrwt beam="2">  1       -2 0.81592172E-01 0.13097724E+04</pdfrwt>
<totfact> 0.43991416E+01</totfact>
</mgrwt>
</event>
<event>
 6    1  0.2238133E-007  0.4873537E+04  0.7818608E-02  0.7848317E-01
         -2   -1    0    0    0  501 -0.00000000000E+00  0.00000000000E+00  0.20966501899E+04  0.20966501899E+04  0.00000000000E+00 0.  1.
          2   -1    0    0  501    0  0.00000000000E+00 -0.00000000000E+00 -0.28320601983E+04  0.28320601983E+04  0.00000000000E+00 0. -1.
         23    2    1    2    0    0  0.15183370798E+04 -0.15315790906E+04  0.77744054139E+03  0.22943606043E+04  0.92708081688E+02 0.  0.
         13    1    3    3    0    0  0.79040396101E+03 -0.82650622766E+03  0.36809320345E+03  0.12013923474E+04  0.00000000000E+00 0.  1.
        -13    1    3    3    0    0  0.72793311880E+03 -0.70507286290E+03  0.40934733794E+03  0.10929682569E+04  0.00000000000E+00 0. -1.
         22    1    1    2    0    0 -0.15183370798E+04  0.15315790906E+04 -0.15128505498E+04  0.26343497840E+04  0.00000000000E+00 0. -1.
<mgrwt>
<rscale>  0 0.48735365E+04</rscale>
<asrwt>0</asrwt>
<pdfrwt beam="1">  1        2 0.43570157E+00 0.48735365E+04</pdfrwt>
<pdfrwt beam="2">  1       -2 0.32256157E+00 0.48735365E+04</pdfrwt>
<totfact> 0.37528019E-02</totfact>
</mgrwt>
</event>
<event>
 6    1  0.2238133E-007  0.3990546E+04  0.7818608E-02  0.8006456E-01
         -2   -1    0    0    0  501 -0.00000000000E+00  0.00000000000E+00  0.16244601375E+04  0.16244601375E+04  0.00000000000E+00 0.  1.
          2   -1    0    0  501    0  0.00000000000E+00 -0.00000000000E+00 -0.24507303415E+04  0.24507303415E+04  0.00000000000E+00 0. -1.
         23    2    1    2    0    0  0.49735454480E+03  0.16978995726E+04 -0.13529870885E+04  0.22292069531E+04  0.92547696632E+02 0.  0.
         11    1    3    3    0    0  0.23858131269E+03  0.85338607011E+03 -0.73415092715E+03  0.11507242985E+04  0.00000000000E+00 0.  1.
        -11    1    3    3    0    0  0.25877323211E+03  0.84451350249E+03 -0.61883616133E+03  0.10784826545E+04  0.00000000000E+00 0. -1.
         22    1    1    2    0    0 -0.49735454480E+03 -0.16978995726E+04  0.52671688442E+03  0.18459835260E+04  0.00000000000E+00 0.  1.
<mgrwt>
<rscale>  0 0.39905457E+04</rscale>
<asrwt>0</asrwt>
<pdfrwt beam="1">  1        2 0.37703544E+00 0.39905457E+04</pdfrwt>
<pdfrwt beam="2">  1       -2 0.24991695E+00 0.39905457E+04</pdfrwt>
<totfact> 0.18881412E-01</totfact>
</mgrwt>
</event>
<event>
 6    1  0.2238133E-007  0.1918686E+04  0.7818608E-02  0.8645611E-01
         -2   -1    0    0    0  501 -0.00000000000E+00  0.00000000000E+00  0.61796602885E+03  0.61796602885E+03  0.00000000000E+00 0.  1.
          2   -1    0    0  501    0  0.00000000000E+00 -0.00000000000E+00 -0.14893040541E+04  0.14893040541E+04  0.00000000000E+00 0. -1.
         23    2    1    2    0    0  0.67096558100E+03 -0.65459346193E+03 -0.22391435000E+03  0.96804015596E+03  0.90976349300E+02 0.  0.
         13    1    3    3    0    0  0.52283208279E+03 -0.46001366142E+03 -0.14766432260E+03  0.71187829554E+03  0.00000000000E+00 0.  1.
        -13    1    3    3    0    0  0.14813349821E+03 -0.19457980051E+03 -0.76250027395E+02  0.25616186042E+03  0.00000000000E+00 0. -1.
         22    1    1    2    0    0 -0.67096558100E+03  0.65459346193E+03 -0.64742367528E+03  0.11392299270E+04  0.00000000000E+00 0. -1.
<mgrwt>
<rscale>  0 0.19186863E+04</rscale>
<asrwt>0</asrwt>
<pdfrwt beam="1">  1        2 0.22912370E+00 0.19186863E+04</pdfrwt>
<pdfrwt beam="2">  1       -2 0.95071698E-01 0.19186863E+04</pdfrwt>
<totfact> 0.11200039E+01</totfact>
</mgrwt>
</event>
<event>
 6    1  0.2238133E-007  0.2171268E+04  0.7818608E-02  0.8530483E-01
          2   -1    0    0  501    0  0.00000000000E+00  0.00000000000E+00  0.14687434198E+04  0.14687434198E+04  0.00000000000E+00 0. -1.
         -2   -1    0    0    0  501 -0.00000000000E+00 -0.00000000000E+00 -0.80245579215E+03  0.80245579215E+03  0.00000000000E+00 0.  1.
         23    2    1    2    0    0  0.96419187586E+02 -0.76353396270E+03  0.11318019716E+04  0.13717636243E+04  0.92081301226E+02 0.  0.
         13    1    3    3    0    0  0.74669999835E+02 -0.29416351732E+03  0.40008720026E+03  0.50217283042E+03  0.00000000000E+00 0. -1.
        -13    1    3    3    0    0  0.21749187750E+02 -0.46937044537E+03  0.73171477137E+03  0.86959079387E+03  0.00000000000E+00 0.  1.
         22    1    1    2    0    0 -0.96419187586E+02  0.76353396270E+03 -0.46551434397E+03  0.89943558767E+03  0.00000000000E+00 0.  1.
<mgrwt>
<rscale>  0 0.21712684E+04</rscale>
<asrwt>0</asrwt>
<pdfrwt beam="1">  1        2 0.22596053E+00 0.21712684E+04</pdfrwt>
<pdfrwt beam="2">  1       -2 0.12345474E+00 0.21712684E+04</pdfrwt>
<totfact> 0.59935231E+00</totfact>
</mgrwt>
</event>
<event>
 6    1  0.2238133E-007  0.3327773E+03  0.7818608E-02  0.1069915E+00
         -4   -1    0    0    0  501 -0.00000000000E+00  0.00000000000E+00  0.19099020220E+04  0.19099020220E+04  0.00000000000E+00 0.  1.
          4   -1    0    0  501    0  0.00000000000E+00 -0.00000000000E+00 -0.14495601309E+02  0.14495601309E+02  0.00000000000E+00 0. -1.
         23    2    1    2    0    0  0.37856538376E+02  0.66754393298E+02  0.17897717102E+04  0.17938297919E+04  0.93023015138E+02 0.  0.
         11    1    3    3    0    0 -0.24729352686E+02  0.19750312290E+02  0.91975442585E+03  0.92029876649E+03  0.00000000000E+00 0.  1.
        -11    1    3    3    0    0  0.62585891062E+02  0.47004081008E+02  0.87001728434E+03  0.87353102546E+03  0.00000000000E+00 0. -1.
         22    1    1    2    0    0 -0.37856538376E+02 -0.66754393298E+02  0.10563471045E+03  0.13056783131E+03  0.00000000000E+00 0. -1.
<mgrwt>
<rscale>  0 0.33277727E+03</rscale>
<asrwt>0</asrwt>
<pdfrwt beam="1">  1        4 0.22300940E-02 0.33277727E+03</pdfrwt>
<pdfrwt beam="2">  1       -4 0.29383088E+00 0.33277727E+03</pdfrwt>
<totfact> 0.63785362E+01</totfact>
</mgrwt>
</event>
<event>
 6    1  0.2238133E-007  0.3530876E+04  0.7818608E-02  0.8106511E-01
          2   -1    0    0  501    0  0.00000000000E+00  0.00000000000E+00  0.39228698184E+04  0.39228698184E+04  0.00000000000E+00 0. -1.
         -2   -1    0    0    0  501 -0.00000000000E+00 -0.00000000000E+00 -0.79451302304E+03  0.79451302304E+03  0.00000000000E+00 0.  1.
         23    2    1    2    0    0 -0.12932201521E+04 -0.15437026769E+03 -0.24907221368E+02  0.13057377104E+04  0.89900262592E+02 0.  0.
         13    1    3    3    0    0 -0.49730261609E+03 -0.21178090008E+02  0.12159038086E+02  0.49790184341E+03  0.00000000000E+00 0. -1.
        -13    1    3    3    0    0 -0.79591753601E+03 -0.13319217768E+03 -0.37066259454E+02  0.80783586694E+03  0.00000000000E+00 0.  1.
         22    1    1    2    0    0  0.12932201521E+04  0.15437026769E+03  0.31532640168E+04  0.34116451311E+04  0.00000000000E+00 0. -1.
<mgrwt>
<rscale>  0 0.35308759E+04</rscale>
<asrwt>0</asrwt>
<pdfrwt beam="1">  1        2 0.60351842E+00 0.35308759E+04</pdfrwt>
<pdfrwt beam="2">  1       -2 0.12223277E+00 0.35308759E+04</pdfrwt>
<totfact> 0.16351260E-01</totfact>
</mgrwt>
</event>
<event>
 6    1  0.2238133E-007  0.9238346E+03  0.7818608E-02  0.9396268E-01
          2   -1    0    0  501    0  0.00000000000E+00  0.00000000000E+00  0.19580300545E+04  0.19580300545E+04  0.00000000000E+00 0. -1.
         -2   -1    0    0    0  501 -0.00000000000E+00 -0.00000000000E+00 -0.10897053474E+03  0.10897053474E+03  0.00000000000E+00 0.  1.
         23    2    1    2    0    0 -0.23065515696E+03  0.39445978574E+03  0.98813863688E+03  0.10923288032E+04  0.89240823167E+02 0.  0.
         13    1    3    3    0    0 -0.97445513734E+02  0.12550905178E+03  0.25930629064E+03  0.30411823785E+03  0.00000000000E+00 0. -1.
        -13    1    3    3    0    0 -0.13320964323E+03  0.26895073396E+03  0.72883234624E+03  0.78821056531E+03  0.00000000000E+00 0.  1.
         22    1    1    2    0    0  0.23065515696E+03 -0.39445978574E+03  0.86092088289E+03  0.97467178609E+03  0.00000000000E+00 0.  1.
<mgrwt>
<rscale>  0 0.92383458E+03</rscale>
<asrwt>0</asrwt>
<pdfrwt beam="1">  1        2 0.30123537E+00 0.92383458E+03</pdfrwt>
<pdfrwt beam="2">  1       -2 0.16764699E-01 0.92383458E+03</pdfrwt>
<totfact> 0.20621091E+02</totfact>
</mgrwt>
</event>
<event>
 6    1  0.2238133E-007  0.2480688E+04  0.7818608E-02  0.8409898E-01
          2   -1    0    0  501    0  0.00000000000E+00  0.00000000000E+00  0.14933663590E+04  0.14933663590E+04  0.00000000000E+00 0. -1.
         -2   -1    0    0    0  501 -0.00000000000E+00 -0.00000000000E+00 -0.10301911354E+04  0.10301911354E+04  0.00000000000E+00 0.  1.
         23    2    1    2    0    0 -0.11737365663E+04 -0.11138772071E+03  0.61818697371E+03  0.13344009050E+04  0.91683636590E+02 0.  0.
         13    1    3    3    0    0 -0.55079770465E+03 -0.75411975067E+02  0.24672767656E+03  0.60822662209E+03  0.00000000000E+00 0. -1.
        -13    1    3    3    0    0 -0.62293886169E+03 -0.35975745647E+02  0.37145929715E+03  0.72617428288E+03  0.00000000000E+00 0.  1.
         22    1    1    2    0    0  0.11737365663E+04  0.11138772071E+03 -0.15501175017E+03  0.11891565894E+04  0.00000000000E+00 0.  1.
<mgrwt>
<rscale>  0 0.24806876E+04</rscale>
<asrwt>0</asrwt>
<pdfrwt beam="1">  1        2 0.22974867E+00 0.24806876E+04</pdfrwt>
<pdfrwt beam="2">  1       -2 0.15849094E+00 0.24806876E+04</pdfrwt>
<totfact> 0.29568015E+00</totfact>
</mgrwt>
</event>
<event>
 6    1  0.2238133E-007  0.8682594E+03  0.7818608E-02  0.9466152E-01
         -2   -1    0    0    0  501 -0.00000000000E+00  0.00000000000E+00  0.19511366055E+03  0.19511366055E+03  0.00000000000E+00 0.  1.
          2   -1    0    0  501    0  0.00000000000E+00 -0.00000000000E+00 -0.96594256676E+03  0.96594256676E+03  0.00000000000E+00 0. -1.
         23    2    1    2    0    0  0.22180354781E+03  0.24069810979E+03 -0.76123648899E+03  0.83360484414E+03  0.91014559995E+02 0.  0.
         11    1    3    3    0    0  0.10813523680E+03  0.55164216195E+02 -0.29965127315E+03  0.32330667436E+03  0.00000000000E+00 0.  1.
        -11    1    3    3    0    0  0.11366831101E+03  0.18553389360E+03 -0.46158521584E+03  0.51029816978E+03  0.00000000000E+00 0. -1.
         22    1    1    2    0    0 -0.22180354781E+03 -0.24069810979E+03 -0.95924172206E+01  0.32745138318E+03  0.00000000000E+00 0.  1.
<mgrwt>
<rscale>  0 0.86825939E+03</rscale>
<asrwt>0</asrwt>
<pdfrwt beam="1">  1        2 0.14860655E+00 0.86825939E+03</pdfrwt>
<pdfrwt beam="2">  1       -2 0.30017486E-01 0.86825939E+03</pdfrwt>
<totfact> 0.27209116E+02</totfact>
</mgrwt>
</event>
<event>
 6    1  0.2238133E-007  0.7621831E+03  0.7818608E-02  0.9616429E-01
          2   -1    0    0  501    0  0.00000000000E+00  0.00000000000E+00  0.14231433843E+04  0.14231433843E+04  0.00000000000E+00 0. -1.
         -2   -1    0    0    0  501 -0.00000000000E+00 -0.00000000000E+00 -0.10204927500E+03  0.10204927500E+03  0.00000000000E+00 0.  1.
         23    2    1    2    0    0  0.10795632992E+02  0.25096961602E+03  0.11371658949E+03  0.29196000923E+03  0.95952542482E+02 0.  0.
         13    1    3    3    0    0 -0.35309068076E+02  0.77185119356E+02  0.61233036894E+02  0.10466020135E+03  0.00000000000E+00 0. -1.
        -13    1    3    3    0    0  0.46104701069E+02  0.17378449666E+03  0.52483552595E+02  0.18729980788E+03  0.00000000000E+00 0.  1.
         22    1    1    2    0    0 -0.10795632992E+02 -0.25096961602E+03  0.12073775198E+04  0.12332326500E+04  0.00000000000E+00 0.  1.
<mgrwt>
<rscale>  0 0.76218305E+03</rscale>
<asrwt>0</asrwt>
<pdfrwt beam="1">  1        2 0.21894512E+00 0.76218305E+03</pdfrwt>
<pdfrwt beam="2">  1       -2 0.15699889E-01 0.76218305E+03</pdfrwt>
<totfact> 0.45988702E+02</totfact>
</mgrwt>
</event>
<event>
 6    1  0.2238133E-007  0.8265222E+03  0.7818608E-02  0.9522401E-01
          2   -1    0    0  501    0  0.00000000000E+00  0.00000000000E+00  0.13024745395E+03  0.13024745395E+03  0.00000000000E+00 0. -1.
         -2   -1    0    0    0  501 -0.00000000000E+00 -0.00000000000E+00 -0.13112329736E+04  0.13112329736E+04  0.00000000000E+00 0.  1.
         23    2    1    2    0    0 -0.28110107191E+03  0.27867911832E+03 -0.42379970287E+03  0.58707406946E+03  0.91487219103E+02 0.  0.
         13    1    3    3    0    0 -0.17391445714E+03  0.22021957992E+03 -0.32955448079E+03  0.43283837352E+03  0.00000000000E+00 0. -1.
        -13    1    3    3    0    0 -0.10718661477E+03  0.58459538400E+02 -0.94245222073E+02  0.15423569593E+03  0.00000000000E+00 0.  1.
         22    1    1    2    0    0  0.28110107191E+03 -0.27867911832E+03 -0.75718581683E+03  0.85440635814E+03  0.00000000000E+00 0.  1.
<mgrwt>
<rscale>  0 0.82652225E+03</rscale>
<asrwt>0</asrwt>
<pdfrwt beam="1">  1        2 0.20038070E-01 0.82652225E+03</pdfrwt>
<pdfrwt beam="2">  1       -2 0.20172814E+00 0.82652225E+03</pdfrwt>
<totfact> 0.37189822E+01</totfact>
</mgrwt>
</event>
<event>
 6    1  0.2238133E-007  0.4470042E+04  0.7818608E-02  0.7915903E-01
         -2   -1    0    0    0  501 -0.00000000000E+00  0.00000000000E+00  0.21614307425E+04  0.21614307425E+04  0.00000000000E+00 0.  1.
          2   -1    0    0  501    0  0.00000000000E+00 -0.00000000000E+00 -0.23111172746E+04  0.23111172746E+04  0.00000000000E+00 0. -1.
         23    2    1    2    0    0  0.57526836273E+03 -0.19113714764E+04 -0.10788252051E+04  0.22708274890E+04  0.92298711067E+02 0.  0.
         13    1    3    3    0    0  0.24023009004E+03 -0.84461949229E+03 -0.42489028277E+03  0.97551234503E+03  0.00000000000E+00 0. -1.
        -13    1    3    3    0    0  0.33503827269E+03 -0.10667519841E+04 -0.65393492228E+03  0.12953151440E+04  0.00000000000E+00 0.  1.
         22    1    1    2    0    0 -0.57526836273E+03  0.19113714764E+04  0.92913867296E+03  0.22017205280E+04  0.00000000000E+00 0. -1.
<mgrwt>
<rscale>  0 0.44700425E+04</rscale>
<asrwt>0</asrwt>
<pdfrwt beam="1">  1        2 0.35555650E+00 0.44700425E+04</pdfrwt>
<pdfrwt beam="2">  1       -2 0.33252781E+00 0.44700425E+04</pdfrwt>
<totfact> 0.67943306E-02</totfact>
</mgrwt>
</event>
<event>
 6    1  0.2238133E-007  0.2604860E+04  0.7818608E-02  0.8366552E-01
         -2   -1    0    0    0  501 -0.00000000000E+00  0.00000000000E+00  0.93978394791E+03  0.93978394791E+03  0.00000000000E+00 0.  1.
          2   -1    0    0  501    0  0.00000000000E+00 -0.00000000000E+00 -0.18050152866E+04  0.18050152866E+04  0.00000000000E+00 0. -1.
         23    2    1    2    0    0 -0.91876501295E+02  0.30730926686E+03  0.89541580558E+03  0.95517395429E+03  0.87792602673E+02 0.  0.
         11    1    3    3    0    0 -0.74959584118E+02  0.16033222512E+03  0.38471253921E+03  0.42347266675E+03  0.00000000000E+00 0. -1.
        -11    1    3    3    0    0 -0.16916917177E+02  0.14697704174E+03  0.51070326637E+03  0.53170128754E+03  0.00000000000E+00 0.  1.
         22    1    1    2    0    0  0.91876501295E+02 -0.30730926686E+03 -0.17606471443E+04  0.17896252803E+04  0.00000000000E+00 0. -1.
<mgrwt>
<rscale>  0 0.26048604E+04</rscale>
<asrwt>0</asrwt>
<pdfrwt beam="1">  1        2 0.27769466E+00 0.26048604E+04</pdfrwt>
<pdfrwt beam="2">  1       -2 0.14458215E+00 0.26048604E+04</pdfrwt>
<totfact> 0.25033092E+00</totfact>
</mgrwt>
</event>
<event>
 6    1  0.2238133E-007  0.6939308E+03  0.7818608E-02  0.9727668E-01
         -2   -1    0    0    0  501 -0.00000000000E+00  0.00000000000E+00  0.45639506129E+03  0.45639506129E+03  0.00000000000E+00 0.  1.
          2   -1    0    0  501    0  0.00000000000E+00 -0.00000000000E+00 -0.26377366021E+03  0.26377366021E+03  0.00000000000E+00 0. -1.
         23    2    1    2    0    0 -0.75428291759E+02 -0.30771527781E+03  0.22945052715E+03  0.40121025410E+03  0.89129143307E+02 0.  0.
         11    1    3    3    0    0 -0.32740716827E+01 -0.19661751496E+03  0.13828824539E+03  0.24040134265E+03  0.00000000000E+00 0.  1.
        -11    1    3    3    0    0 -0.72154220076E+02 -0.11109776286E+03  0.91162281761E+02  0.16080891145E+03  0.00000000000E+00 0. -1.
         22    1    1    2    0    0  0.75428291759E+02  0.30771527781E+03 -0.36829126066E+02  0.31895846740E+03  0.00000000000E+00 0. -1.
<mgrwt>
<rscale>  0 0.69393082E+03</rscale>
<asrwt>0</asrwt>
<pdfrwt beam="1">  1        2 0.40580563E-01 0.69393082E+03</pdfrwt>
<pdfrwt beam="2">  1       -2 0.70214625E-01 0.69393082E+03</pdfrwt>
<totfact> 0.23636536E+02</totfact>
</mgrwt>
</event>
<event>
 6    1  0.2238133E-007  0.9216652E+03  0.7818608E-02  0.9398897E-01
          2   -1    0    0  501    0  0.00000000000E+00  0.00000000000E+00  0.10273127091E+04  0.10273127091E+04  0.00000000000E+00 0. -1.
         -2   -1    0    0    0  501 -0.00000000000E+00 -0.00000000000E+00 -0.20672059413E+03  0.20672059413E+03  0.00000000000E+00 0.  1.
         23    2    1    2    0    0 -0.25314501312E+03  0.32379233365E+03  0.67969749054E+03  0.79955065895E+03  0.91480624135E+02 0.  0.
         13    1    3    3    0    0 -0.21125614781E+02  0.80821809694E+02  0.10929880955E+03  0.13756702472E+03  0.00000000000E+00 0.  1.
        -13    1    3    3    0    0 -0.23201939834E+03  0.24297052395E+03  0.57039868098E+03  0.66198363423E+03  0.00000000000E+00 0. -1.
         22    1    1    2    0    0  0.25314501312E+03 -0.32379233365E+03  0.14089462446E+03  0.43448264430E+03  0.00000000000E+00 0. -1.
<mgrwt>
<rscale>  0 0.92166522E+03</rscale>
<asrwt>0</asrwt>
<pdfrwt beam="1">  1        2 0.15804811E+00 0.92166522E+03</pdfrwt>
<pdfrwt beam="2">  1       -2 0.31803169E-01 0.92166522E+03</pdfrwt>
<totfact> 0.22245334E+02</totfact>
</mgrwt>
</event>
<event>
 6    1  0.2238133E-007  0.7611569E+03  0.7818608E-02  0.9618008E-01
          2   -1    0    0  501    0  0.00000000000E+00  0.00000000000E+00  0.42958738004E+03  0.42958738004E+03  0.00000000000E+00 0. -1.
         -2   -1    0    0    0  501 -0.00000000000E+00 -0.00000000000E+00 -0.33716060048E+03  0.33716060048E+03  0.00000000000E+00 0.  1.
         23    2    1    2    0    0  0.57600776808E+02 -0.31742279054E+03 -0.14540740660E+03  0.36594855743E+03  0.93273551157E+02 0.  0.
         13    1    3    3    0    0  0.43747842685E+02 -0.11348305415E+03 -0.97801205293E+02  0.15606842434E+03  0.00000000000E+00 0.  1.
        -13    1    3    3    0    0  0.13852934123E+02 -0.20393973639E+03 -0.47606201309E+02  0.20988013309E+03  0.00000000000E+00 0. -1.
         22    1    1    2    0    0 -0.57600776808E+02  0.31742279054E+03  0.23783418616E+03  0.40079942309E+03  0.00000000000E+00 0. -1.
<mgrwt>
<rscale>  0 0.76115685E+03</rscale>
<asrwt>0</asrwt>
<pdfrwt beam="1">  1        2 0.66090366E-01 0.76115685E+03</pdfrwt>
<pdfrwt beam="2">  1       -2 0.51870862E-01 0.76115685E+03</pdfrwt>
<totfact> 0.25951604E+02</totfact>
</mgrwt>
</event>
<event>
 6    1  0.2238133E-007  0.1957331E+04  0.7818608E-02  0.8626834E-01
         -2   -1    0    0    0  501 -0.00000000000E+00  0.00000000000E+00  0.10679401057E+04  0.10679401057E+04  0.00000000000E+00 0.  1.
          2   -1    0    0  501    0  0.00000000000E+00 -0.00000000000E+00 -0.89685412994E+03  0.89685412994E+03  0.00000000000E+00 0. -1.
         23    2    1    2    0    0 -0.32251192584E+03 -0.67764428081E+02  0.10086080092E+04  0.10647669491E+04  0.88501862055E+02 0.  0.
         11    1    3    3    0    0 -0.10104842844E+03 -0.44187523846E+02  0.23243362565E+03  0.25727167059E+03  0.00000000000E+00 0.  1.
        -11    1    3    3    0    0 -0.22146349740E+03 -0.23576904235E+02  0.77617438354E+03  0.80749527847E+03  0.00000000000E+00 0. -1.
         22    1    1    2    0    0  0.32251192584E+03  0.67764428081E+02 -0.83752203345E+03  0.90002728655E+03  0.00000000000E+00 0. -1.
<mgrwt>
<rscale>  0 0.19573313E+04</rscale>
<asrwt>0</asrwt>
<pdfrwt beam="1">  1        2 0.13797756E+00 0.19573313E+04</pdfrwt>
<pdfrwt beam="2">  1       -2 0.16429848E+00 0.19573313E+04</pdfrwt>
<totfact> 0.64328719E+00</totfact>
</mgrwt>
</event>
<event>
 6    1  0.3154379E-007  0.3761591E+04  0.7818608E-02  0.8054448E-01
          2   -1    0    0  501    0  0.00000000000E+00  0.00000000000E+00  0.19545266899E+04  0.19545266899E+04  0.00000000000E+00 0. -1.
         -2   -1    0    0    0  501 -0.00000000000E+00 -0.00000000000E+00 -0.18098460712E+04  0.18098460712E+04  0.00000000000E+00 0.  1.
         23    2    1    2    0    0  0.13959151274E+04 -0.62705431927E+03 -0.10199538161E+04  0.18413154221E+04  0.91435957868E+02 0.  0.
         11    1    3    3    0    0  0.95289101584E+03 -0.46524251297E+03 -0.73585244412E+03  0.12907093799E+04  0.00000000000E+00 0.  1.
        -11    1    3    3    0    0  0.44302411158E+03 -0.16181180630E+03 -0.28410137201E+03  0.55060604218E+03  0.00000000000E+00 0. -1.
         22    1    1    2    0    0 -0.13959151274E+04  0.62705431927E+03  0.11646344348E+04  0.19230573390E+04  0.00000000000E+00 0.  1.
<mgrwt>
<rscale>  0 0.37615914E+04</rscale>
<asrwt>0</asrwt>
<pdfrwt beam="1">  1        2 0.30069641E+00 0.37615914E+04</pdfrwt>
<pdfrwt beam="2">  1       -2 0.27843786E+00 0.37615914E+04</pdfrwt>
<totfact> 0.24521487E-01</totfact>
</mgrwt>
</event>
<event>
 6    1  0.2238133E-007  0.1969099E+04  0.7818608E-02  0.8621206E-01
         -2   -1    0    0    0  501 -0.00000000000E+00  0.00000000000E+00  0.14375353970E+04  0.14375353970E+04  0.00000000000E+00 0.  1.
          2   -1    0    0  501    0  0.00000000000E+00 -0.00000000000E+00 -0.67430496042E+03  0.67430496042E+03  0.00000000000E+00 0. -1.
         23    2    1    2    0    0 -0.17222031797E+03 -0.90961528856E+03  0.73509249174E+03  0.11856375961E+04  0.91190606513E+02 0.  0.
         13    1    3    3    0    0 -0.30979571252E+01 -0.21611984149E+03  0.15838245972E+03  0.26795967377E+03  0.00000000000E+00 0. -1.
        -13    1    3    3    0    0 -0.16912236085E+03 -0.69349544708E+03  0.57671003202E+03  0.91767792231E+03  0.00000000000E+00 0.  1.
         22    1    1    2    0    0  0.17222031797E+03  0.90961528856E+03  0.28137944809E+02  0.92620276130E+03  0.00000000000E+00 0. -1.
<mgrwt>
<rscale>  0 0.19690985E+04</rscale>
<asrwt>0</asrwt>
<pdfrwt beam="1">  1        2 0.10373922E+00 0.19690985E+04</pdfrwt>
<pdfrwt beam="2">  1       -2 0.22115929E+00 0.19690985E+04</pdfrwt>
<totfact> 0.38853786E+00</totfact>
</mgrwt>
</event>
<event>
 6    1  0.2238133E-007  0.1350709E+04  0.7818608E-02  0.8990292E-01
         -2   -1    0    0    0  501 -0.00000000000E+00  0.00000000000E+00  0.92753254437E+03  0.92753254437E+03  0.00000000000E+00 0.  1.
          2   -1    0    0  501    0  0.00000000000E+00 -0.00000000000E+00 -0.49173880492E+03  0.49173880492E+03  0.00000000000E+00 0. -1.
         23    2    1    2    0    0 -0.24493059199E+02 -0.62557394606E+03  0.47594086908E+03  0.79193215559E+03  0.93242459526E+02 0.  0.
         11    1    3    3    0    0 -0.10640513068E+02 -0.51185523785E+03  0.34203277227E+03  0.61570725377E+03  0.00000000000E+00 0.  1.
        -11    1    3    3    0    0 -0.13852546131E+02 -0.11371870820E+03  0.13390809681E+03  0.17622490182E+03  0.00000000000E+00 0. -1.
         22    1    1    2    0    0  0.24493059199E+02  0.62557394606E+03 -0.40147129624E+02  0.62733919370E+03  0.00000000000E+00 0. -1.
<mgrwt>
<rscale>  0 0.13507091E+04</rscale>
<asrwt>0</asrwt>
<pdfrwt beam="1">  1        2 0.75652124E-01 0.13507091E+04</pdfrwt>
<pdfrwt beam="2">  1       -2 0.14269731E+00 0.13507091E+04</pdfrwt>
<totfact> 0.20938967E+01</totfact>
</mgrwt>
</event>
<event>
 6    1  0.2238133E-007  0.1393796E+04  0.7818608E-02  0.8958322E-01
          2   -1    0    0  501    0  0.00000000000E+00  0.00000000000E+00  0.12170933074E+04  0.12170933074E+04  0.00000000000E+00 0. -1.
         -2   -1    0    0    0  501 -0.00000000000E+00 -0.00000000000E+00 -0.39903808391E+03  0.39903808391E+03  0.00000000000E+00 0.  1.
         23    2    1    2    0    0  0.39957003229E+03  0.43127118031E+03 -0.16741624763E+02  0.59508446804E+03  0.90521822919E+02 0.  0.
         13    1    3    3    0    0  0.17342017723E+03  0.13756752346E+03  0.21673900627E+02  0.22241658964E+03  0.00000000000E+00 0. -1.
        -13    1    3    3    0    0  0.22614985506E+03  0.29370365686E+03 -0.38415525389E+02  0.37266787839E+03  0.00000000000E+00 0.  1.
         22    1    1    2    0    0 -0.39957003229E+03 -0.43127118031E+03  0.83479684828E+03  0.10210469233E+04  0.00000000000E+00 0. -1.
<mgrwt>
<rscale>  0 0.13937957E+04</rscale>
<asrwt>0</asrwt>
<pdfrwt beam="1">  1        2 0.18724512E+00 0.13937957E+04</pdfrwt>
<pdfrwt beam="2">  1       -2 0.61390475E-01 0.13937957E+04</pdfrwt>
<totfact> 0.44443602E+01</totfact>
</mgrwt>
</event>
<event>
 6    1  0.2238133E-007  0.8577106E+03  0.7818608E-02  0.9480046E-01
         -2   -1    0    0    0  501 -0.00000000000E+00  0.00000000000E+00  0.33101695078E+03  0.33101695078E+03  0.00000000000E+00 0.  1.
          2   -1    0    0  501    0  0.00000000000E+00 -0.00000000000E+00 -0.55561157813E+03  0.55561157813E+03  0.00000000000E+00 0. -1.
         23    2    1    2    0    0  0.36866122581E+03  0.13962943816E+03  0.47049549222E+02  0.40788220978E+03  0.93524101474E+02 0.  0.
         11    1    3    3    0    0  0.11977271072E+03  0.70335009092E+01  0.37545423248E+02  0.12571647137E+03  0.00000000000E+00 0. -1.
        -11    1    3    3    0    0  0.24888851509E+03  0.13259593725E+03  0.95041259741E+01  0.28216573841E+03  0.00000000000E+00 0.  1.
         22    1    1    2    0    0 -0.36866122581E+03 -0.13962943816E+03 -0.27164417657E+03  0.47874631913E+03  0.00000000000E+00 0. -1.
<mgrwt>
<rscale>  0 0.85771056E+03</rscale>
<asrwt>0</asrwt>
<pdfrwt beam="1">  1        2 0.85478703E-01 0.85771056E+03</pdfrwt>
<pdfrwt beam="2">  1       -2 0.50925686E-01 0.85771056E+03</pdfrwt>
<totfact> 0.19926665E+02</totfact>
</mgrwt>
</event>
<event>
 6    1  0.2238133E-007  0.1587316E+04  0.7818608E-02  0.8828378E-01
          2   -1    0    0  501    0  0.00000000000E+00  0.00000000000E+00  0.49346126687E+03  0.49346126687E+03  0.00000000000E+00 0. -1.
         -2   -1    0    0    0  501 -0.00000000000E+00 -0.00000000000E+00 -0.12764788323E+04  0.12764788323E+04  0.00000000000E+00 0.  1.
         23    2    1    2    0    0  0.42994583769E+03  0.60058034096E+03 -0.72445462143E+02  0.74501918357E+03  0.65230894590E+02 0.  0.
         11    1    3    3    0    0  0.12841746245E+03  0.22982705804E+03 -0.36368164188E+02  0.26577088749E+03  0.00000000000E+00 0. -1.
        -11    1    3    3    0    0  0.30152837524E+03  0.37075328291E+03 -0.36077297956E+02  0.47924829608E+03  0.00000000000E+00 0.  1.
         22    1    1    2    0    0 -0.42994583769E+03 -0.60058034096E+03 -0.71057210329E+03  0.10249209156E+04  0.00000000000E+00 0.  1.
<mgrwt>
<rscale>  0 0.15873158E+04</rscale>
<asrwt>0</asrwt>
<pdfrwt beam="1">  1        2 0.75917119E-01 0.15873158E+04</pdfrwt>
<pdfrwt beam="2">  1       -2 0.19638136E+00 0.15873158E+04</pdfrwt>
<totfact> 0.84254051E+00</totfact>
</mgrwt>
</event>
<event>
 6    1  0.2238133E-007  0.4439150E+03  0.7818608E-02  0.1029552E+00
          2   -1    0    0  501    0  0.00000000000E+00  0.00000000000E+00  0.17251222458E+03  0.17251222458E+03  0.00000000000E+00 0. -1.
         -2   -1    0    0    0  501 -0.00000000000E+00 -0.00000000000E+00 -0.28557470637E+03  0.28557470637E+03  0.00000000000E+00 0.  1.
         23    2    1    2    0    0 -0.11906663695E+03 -0.15816058845E+03  0.18426089948E+02  0.22042986653E+03  0.95174416190E+02 0.  0.
         11    1    3    3    0    0 -0.72975165892E+02 -0.24740056087E+02  0.18617992619E+02  0.79272156912E+02  0.00000000000E+00 0.  1.
        -11    1    3    3    0    0 -0.46091471055E+02 -0.13342053236E+03 -0.19190267174E+00  0.14115770962E+03  0.00000000000E+00 0. -1.
         22    1    1    2    0    0  0.11906663695E+03  0.15816058845E+03 -0.13148857173E+03  0.23765706442E+03  0.00000000000E+00 0.  1.
<mgrwt>
<rscale>  0 0.44391498E+03</rscale>
<asrwt>0</asrwt>
<pdfrwt beam="1">  1        2 0.26540342E-01 0.44391498E+03</pdfrwt>
<pdfrwt beam="2">  1       -2 0.43934570E-01 0.44391498E+03</pdfrwt>
<totfact> 0.10057533E+03</totfact>
</mgrwt>
</event>
<event>
 6    1  0.2238133E-007  0.1467760E+04  0.7818608E-02  0.8906180E-01
          1   -1    0    0  501    0  0.00000000000E+00  0.00000000000E+00  0.34818867169E+03  0.34818867169E+03  0.00000000000E+00 0. -1.
         -1   -1    0    0    0  501 -0.00000000000E+00 -0.00000000000E+00 -0.15468044677E+04  0.15468044677E+04  0.00000000000E+00 0.  1.
         23    2    1    2    0    0  0.12027997294E+03  0.63950156298E+03 -0.17052262903E+03  0.67827415749E+03  0.86881210626E+02 0.  0.
         13    1    3    3    0    0  0.47759089268E+02  0.39109074073E+03 -0.67478271039E+02  0.39973267962E+03  0.00000000000E+00 0. -1.
        -13    1    3    3    0    0  0.72520883673E+02  0.24841082225E+03 -0.10304435799E+03  0.27854147787E+03  0.00000000000E+00 0.  1.
         22    1    1    2    0    0 -0.12027997294E+03 -0.63950156298E+03 -0.10280931669E+04  0.12167189819E+04  0.00000000000E+00 0.  1.
<mgrwt>
<rscale>  0 0.14677599E+04</rscale>
<asrwt>0</asrwt>
<pdfrwt beam="1">  1        1 0.53567489E-01 0.14677599E+04</pdfrwt>
<pdfrwt beam="2">  1       -1 0.23796991E+00 0.14677599E+04</pdfrwt>
<totfact> 0.58496665E+00</totfact>
</mgrwt>
</event>
<event>
 6    1  0.2238133E-007  0.4666140E+04  0.7818608E-02  0.7882179E-01
         -2   -1    0    0    0  501 -0.00000000000E+00  0.00000000000E+00  0.29466706893E+04  0.29466706893E+04  0.00000000000E+00 0.  1.
          2   -1    0    0  501    0  0.00000000000E+00 -0.00000000000E+00 -0.18472427414E+04  0.18472427414E+04  0.00000000000E+00 0. -1.
         23    2    1    2    0    0  0.37734133336E+03 -0.10680753504E+04  0.26442694762E+04  0.28782655550E+04  0.95289593226E+02 0.  0.
         11    1    3    3    0    0  0.26969039271E+02 -0.73951883427E+02  0.12980731201E+03  0.15180957939E+03  0.00000000000E+00 0. -1.
        -11    1    3    3    0    0  0.35037229409E+03 -0.99412346700E+03  0.25144621642E+04  0.27264559756E+04  0.00000000000E+00 0.  1.
         22    1    1    2    0    0 -0.37734133336E+03  0.10680753504E+04 -0.15448415283E+04  0.19156478757E+04  0.00000000000E+00 0. -1.
<mgrwt>
<rscale>  0 0.46661402E+04</rscale>
<asrwt>0</asrwt>
<pdfrwt beam="1">  1        2 0.28419119E+00 0.46661402E+04</pdfrwt>
<pdfrwt beam="2">  1       -2 0.45333395E+00 0.46661402E+04</pdfrwt>
<totfact> 0.20075149E-02</totfact>
</mgrwt>
</event>
<event>
 6    1  0.2238133E-007  0.1755676E+04  0.7818608E-02  0.8730232E-01
         -2   -1    0    0    0  501 -0.00000000000E+00  0.00000000000E+00  0.85411991548E+03  0.85411991548E+03  0.00000000000E+00 0.  1.
          2   -1    0    0  501    0  0.00000000000E+00 -0.00000000000E+00 -0.90221491489E+03  0.90221491489E+03  0.00000000000E+00 0. -1.
         23    2    1    2    0    0  0.63076894318E+03  0.60729051267E+03 -0.22238308231E+01  0.87953645527E+03  0.83115607813E+02 0.  0.
         11    1    3    3    0    0  0.54615068287E+03  0.49559553586E+03  0.19408002040E+02  0.73774804243E+03  0.00000000000E+00 0. -1.
        -11    1    3    3    0    0  0.84618260313E+02  0.11169497681E+03 -0.21631832863E+02  0.14178841284E+03  0.00000000000E+00 0.  1.
         22    1    1    2    0    0 -0.63076894318E+03 -0.60729051267E+03 -0.45871168590E+02  0.87679837510E+03  0.00000000000E+00 0.  1.
<mgrwt>
<rscale>  0 0.17556762E+04</rscale>
<asrwt>0</asrwt>
<pdfrwt beam="1">  1        2 0.13880229E+00 0.17556762E+04</pdfrwt>
<pdfrwt beam="2">  1       -2 0.13140306E+00 0.17556762E+04</pdfrwt>
<totfact> 0.11698653E+01</totfact>
</mgrwt>
</event>
<event>
 6    1  0.2238133E-007  0.2872394E+04  0.7818608E-02  0.8281139E-01
          2   -1    0    0  501    0  0.00000000000E+00  0.00000000000E+00  0.42139380604E+04  0.42139380604E+04  0.00000000000E+00 0. -1.
         -2   -1    0    0    0  501 -0.00000000000E+00 -0.00000000000E+00 -0.48948548087E+03  0.48948548087E+03  0.00000000000E+00 0.  1.
         23    2    1    2    0    0 -0.98190859984E+02  0.14311873319E+04  0.18381320625E+04  0.23335831000E+04  0.94562052209E+02 0.  0.
         13    1    3    3    0    0 -0.66552549354E+02  0.83011076109E+03  0.99221028050E+03  0.12953742155E+04  0.00000000000E+00 0. -1.
        -13    1    3    3    0    0 -0.31638310629E+02  0.60107657079E+03  0.84592178196E+03  0.10382088845E+04  0.00000000000E+00 0.  1.
         22    1    1    2    0    0  0.98190859984E+02 -0.14311873319E+04  0.18863205171E+04  0.23698404413E+04  0.00000000000E+00 0. -1.
<mgrwt>
<rscale>  0 0.28723938E+04</rscale>
<asrwt>0</asrwt>
<pdfrwt beam="1">  1        2 0.64829814E+00 0.28723938E+04</pdfrwt>
<pdfrwt beam="2">  1       -2 0.75305461E-01 0.28723938E+04</pdfrwt>
<totfact> 0.30966778E-01</totfact>
</mgrwt>
</event>
<event>
 6    1  0.2238133E-007  0.4482796E+04  0.7818608E-02  0.7913656E-01
         -2   -1    0    0    0  501 -0.00000000000E+00  0.00000000000E+00  0.23664664347E+04  0.23664664347E+04  0.00000000000E+00 0.  1.
          2   -1    0    0  501    0  0.00000000000E+00 -0.00000000000E+00 -0.21229395010E+04  0.21229395010E+04  0.00000000000E+00 0. -1.
         23    2    1    2    0    0 -0.93021516429E+03 -0.16758041460E+04  0.12821053613E+04  0.23094369135E+04  0.12682630634E+03 0.  0.
         13    1    3    3    0    0 -0.24423144666E+03 -0.41766726257E+03  0.25996185091E+03  0.54924958415E+03  0.00000000000E+00 0. -1.
        -13    1    3    3    0    0 -0.68598371763E+03 -0.12581368835E+04  0.10221435104E+04  0.17601873293E+04  0.00000000000E+00 0.  1.
         22    1    1    2    0    0  0.93021516429E+03  0.16758041460E+04 -0.10385784276E+04  0.21799690223E+04  0.00000000000E+00 0. -1.
<mgrwt>
<rscale>  0 0.44827960E+04</rscale>
<asrwt>0</asrwt>
<pdfrwt beam="1">  1        2 0.32660608E+00 0.44827960E+04</pdfrwt>
<pdfrwt beam="2">  1       -2 0.36407176E+00 0.44827960E+04</pdfrwt>
<totfact> 0.54832827E-02</totfact>
</mgrwt>
</event>
<event>
 6    1  0.2238133E-007  0.1273818E+04  0.7818608E-02  0.9050589E-01
          2   -1    0    0  501    0  0.00000000000E+00  0.00000000000E+00  0.12355731016E+04  0.12355731016E+04  0.00000000000E+00 0. -1.
         -2   -1    0    0    0  501 -0.00000000000E+00 -0.00000000000E+00 -0.32831190791E+03  0.32831190791E+03  0.00000000000E+00 0.  1.
         23    2    1    2    0    0  0.62119797095E+03  0.97640805669E+02  0.55132669030E+03  0.84131320218E+03  0.91794001341E+02 0.  0.
         13    1    3    3    0    0  0.18294823204E+03  0.44335935379E+02  0.11495625565E+03  0.22056897217E+03  0.00000000000E+00 0. -1.
        -13    1    3    3    0    0  0.43824973891E+03  0.53304870290E+02  0.43637043465E+03  0.62074423001E+03  0.00000000000E+00 0.  1.
         22    1    1    2    0    0 -0.62119797095E+03 -0.97640805669E+02  0.35593450340E+03  0.72257180733E+03  0.00000000000E+00 0.  1.
<mgrwt>
<rscale>  0 0.12738185E+04</rscale>
<asrwt>0</asrwt>
<pdfrwt beam="1">  1        2 0.19008817E+00 0.12738185E+04</pdfrwt>
<pdfrwt beam="2">  1       -2 0.50509525E-01 0.12738185E+04</pdfrwt>
<totfact> 0.65637563E+01</totfact>
</mgrwt>
</event>
<event>
 6    1  0.2238133E-007  0.1888176E+04  0.7818608E-02  0.8660764E-01
          2   -1    0    0  501    0  0.00000000000E+00  0.00000000000E+00  0.10592853928E+04  0.10592853928E+04  0.00000000000E+00 0. -1.
         -2   -1    0    0    0  501 -0.00000000000E+00 -0.00000000000E+00 -0.84141823735E+03  0.84141823735E+03  0.00000000000E+00 0.  1.
         23    2    1    2    0    0  0.22856208347E+03 -0.15632971893E+03  0.10152273010E+04  0.10566285100E+04  0.95382013194E+02 0.  0.
         11    1    3    3    0    0  0.10680512675E+03 -0.27867250615E+02  0.49357443349E+03  0.50576638892E+03  0.00000000000E+00 0.  1.
        -11    1    3    3    0    0  0.12175695672E+03 -0.12846246832E+03  0.52165286746E+03  0.55086212105E+03  0.00000000000E+00 0. -1.
         22    1    1    2    0    0 -0.22856208347E+03  0.15632971893E+03 -0.79736014546E+03  0.84407512023E+03  0.00000000000E+00 0.  1.
<mgrwt>
<rscale>  0 0.18881759E+04</rscale>
<asrwt>0</asrwt>
<pdfrwt beam="1">  1        2 0.16296698E+00 0.18881759E+04</pdfrwt>
<pdfrwt beam="2">  1       -2 0.12944896E+00 0.18881759E+04</pdfrwt>
<totfact> 0.95054115E+00</totfact>
</mgrwt>
</event>
<event>
 6    1  0.2238133E-007  0.4968223E+03  0.7818608E-02  0.1014612E+00
         -2   -1    0    0    0  501 -0.00000000000E+00  0.00000000000E+00  0.18034593110E+03  0.18034593110E+03  0.00000000000E+00 0.  1.
          2   -1    0    0  501    0  0.00000000000E+00 -0.00000000000E+00 -0.34216516073E+03  0.34216516073E+03  0.00000000000E+00 0. -1.
         23    2    1    2    0    0  0.66038156905E+02 -0.19900496643E+03  0.38557105737E+02  0.23248576431E+03  0.92730606457E+02 0.  0.
         13    1    3    3    0    0  0.19293103493E+02 -0.98386825076E+02  0.63622053494E+02  0.11874323931E+03  0.00000000000E+00 0. -1.
        -13    1    3    3    0    0  0.46745053413E+02 -0.10061814135E+03 -0.25064947757E+02  0.11374252500E+03  0.00000000000E+00 0.  1.
         22    1    1    2    0    0 -0.66038156905E+02  0.19900496643E+03 -0.20037633537E+03  0.29002532753E+03  0.00000000000E+00 0. -1.
<mgrwt>
<rscale>  0 0.49682228E+03</rscale>
<asrwt>0</asrwt>
<pdfrwt beam="1">  1        2 0.52640794E-01 0.49682228E+03</pdfrwt>
<pdfrwt beam="2">  1       -2 0.27745528E-01 0.49682228E+03</pdfrwt>
<totfact> 0.11235498E+03</totfact>
</mgrwt>
</event>
<event>
 6    1  0.2238133E-007  0.3604145E+04  0.7818608E-02  0.8089543E-01
         -2   -1    0    0    0  501 -0.00000000000E+00  0.00000000000E+00  0.19775412906E+04  0.19775412906E+04  0.00000000000E+00 0.  1.
          2   -1    0    0  501    0  0.00000000000E+00 -0.00000000000E+00 -0.16421736379E+04  0.16421736379E+04  0.00000000000E+00 0. -1.
         23    2    1    2    0    0  0.15797074071E+04 -0.66142315533E+03 -0.39185589840E+03  0.17591208901E+04  0.89438125654E+02 0.  0.
         13    1    3    3    0    0  0.13491097697E+04 -0.54611153979E+03 -0.36022966088E+03  0.14993666640E+04  0.00000000000E+00 0. -1.
        -13    1    3    3    0    0  0.23059763745E+03 -0.11531161554E+03 -0.31626237521E+02  0.25975422609E+03  0.00000000000E+00 0.  1.
         22    1    1    2    0    0 -0.15797074071E+04  0.66142315533E+03  0.72722355106E+03  0.18605940384E+04  0.00000000000E+00 0.  1.
<mgrwt>
<rscale>  0 0.36041455E+04</rscale>
<asrwt>0</asrwt>
<pdfrwt beam="1">  1        2 0.25264210E+00 0.36041455E+04</pdfrwt>
<pdfrwt beam="2">  1       -2 0.30423712E+00 0.36041455E+04</pdfrwt>
<totfact> 0.25762572E-01</totfact>
</mgrwt>
</event>
<event>
 6    1  0.2238133E-007  0.1545701E+04  0.7818608E-02  0.8854618E-01
          2   -1    0    0  501    0  0.00000000000E+00  0.00000000000E+00  0.30129486831E+04  0.30129486831E+04  0.00000000000E+00 0. -1.
         -2   -1    0    0    0  501 -0.00000000000E+00 -0.00000000000E+00 -0.19824363755E+03  0.19824363755E+03  0.00000000000E+00 0.  1.
         23    2    1    2    0    0 -0.69726625500E+03 -0.13623686650E+02  0.20898084227E+04  0.22052892691E+04  0.98161509166E+02 0.  0.
         11    1    3    3    0    0 -0.13376585320E+03 -0.29577505614E+02  0.50294647798E+03  0.52127084326E+03  0.00000000000E+00 0. -1.
        -11    1    3    3    0    0 -0.56350040179E+03  0.15953818964E+02  0.15868619447E+04  0.16840184259E+04  0.00000000000E+00 0.  1.
         22    1    1    2    0    0  0.69726625500E+03  0.13623686650E+02  0.72489662286E+03  0.10059030515E+04  0.00000000000E+00 0.  1.
<mgrwt>
<rscale>  0 0.15457010E+04</rscale>
<asrwt>0</asrwt>
<pdfrwt beam="1">  1        2 0.46353053E+00 0.15457010E+04</pdfrwt>
<pdfrwt beam="2">  1       -2 0.30499023E-01 0.15457010E+04</pdfrwt>
<totfact> 0.16471809E+01</totfact>
</mgrwt>
</event>
<event>
 6    1  0.2238133E-007  0.5423463E+04  0.7818608E-02  0.7766309E-01
          2   -1    0    0  501    0  0.00000000000E+00  0.00000000000E+00  0.20414518311E+04  0.20414518311E+04  0.00000000000E+00 0. -1.
         -2   -1    0    0    0  501 -0.00000000000E+00 -0.00000000000E+00 -0.36020866925E+04  0.36020866925E+04  0.00000000000E+00 0.  1.
         23    2    1    2    0    0 -0.23536477075E+04  0.34088565020E+03  0.57360261899E+03  0.24480995585E+04  0.91164282231E+02 0.  0.
         13    1    3    3    0    0 -0.17503746667E+04  0.29280102190E+03  0.41954215588E+03  0.18236116727E+04  0.00000000000E+00 0. -1.
        -13    1    3    3    0    0 -0.60327304077E+03  0.48084628305E+02  0.15406046311E+03  0.62448788578E+03  0.00000000000E+00 0.  1.
         22    1    1    2    0    0  0.23536477075E+04 -0.34088565020E+03 -0.21342374803E+04  0.31954389651E+04  0.00000000000E+00 0.  1.
<mgrwt>
<rscale>  0 0.54234625E+04</rscale>
<asrwt>0</asrwt>
<pdfrwt beam="1">  1        2 0.31406951E+00 0.54234625E+04</pdfrwt>
<pdfrwt beam="2">  1       -2 0.55416718E+00 0.54234625E+04</pdfrwt>
<totfact> 0.36771825E-03</totfact>
</mgrwt>
</event>
<event>
 6    1  0.2238133E-007  0.1849705E+04  0.7818608E-02  0.8680305E-01
          2   -1    0    0  501    0  0.00000000000E+00  0.00000000000E+00  0.13950684370E+04  0.13950684370E+04  0.00000000000E+00 0. -1.
         -2   -1    0    0    0  501 -0.00000000000E+00 -0.00000000000E+00 -0.61312537360E+03  0.61312537360E+03  0.00000000000E+00 0.  1.
         23    2    1    2    0    0 -0.82650457083E+03  0.40820528286E+03  0.43240598012E+03  0.10223350321E+04  0.91938173093E+02 0.  0.
         11    1    3    3    0    0 -0.53073090034E+03  0.21263267554E+03  0.26116886255E+03  0.62856751272E+03  0.00000000000E+00 0. -1.
        -11    1    3    3    0    0 -0.29577367049E+03  0.19557260732E+03  0.17123711757E+03  0.39376751939E+03  0.00000000000E+00 0.  1.
         22    1    1    2    0    0  0.82650457083E+03 -0.40820528286E+03  0.34953708331E+03  0.98585877851E+03  0.00000000000E+00 0.  1.
<mgrwt>
<rscale>  0 0.18497047E+04</rscale>
<asrwt>0</asrwt>
<pdfrwt beam="1">  1        2 0.21462591E+00 0.18497047E+04</pdfrwt>
<pdfrwt beam="2">  1       -2 0.94326981E-01 0.18497047E+04</pdfrwt>
<totfact> 0.12980109E+01</totfact>
</mgrwt>
</event>
<event>
 6    1  0.2238133E-007  0.3646013E+04  0.7818608E-02  0.8080032E-01
          2   -1    0    0  501    0  0.00000000000E+00  0.00000000000E+00  0.24718304182E+04  0.24718304182E+04  0.00000000000E+00 0. -1.
         -2   -1    0    0    0  501 -0.00000000000E+00 -0.00000000000E+00 -0.13444907728E+04  0.13444907728E+04  0.00000000000E+00 0.  1.
         23    2    1    2    0    0  0.97719667620E+02 -0.91366936012E+03  0.22106697630E+04  0.23957772892E+04  0.91362931562E+02 0.  0.
         11    1    3    3    0    0  0.67239058301E+02 -0.77492807994E+03  0.17876862314E+04  0.19495785908E+04  0.00000000000E+00 0. -1.
        -11    1    3    3    0    0  0.30480609319E+02 -0.13874128018E+03  0.42298353167E+03  0.44619869838E+03  0.00000000000E+00 0.  1.
         22    1    1    2    0    0 -0.97719667620E+02  0.91366936012E+03 -0.10833301177E+04  0.14205439018E+04  0.00000000000E+00 0.  1.
<mgrwt>
<rscale>  0 0.36460133E+04</rscale>
<asrwt>0</asrwt>
<pdfrwt beam="1">  1        2 0.38028160E+00 0.36460133E+04</pdfrwt>
<pdfrwt beam="2">  1       -2 0.20684473E+00 0.36460133E+04</pdfrwt>
<totfact> 0.35217400E-01</totfact>
</mgrwt>
</event>
<event>
 6    1  0.2238133E-007  0.2825982E+04  0.7818608E-02  0.8295247E-01
          2   -1    0    0  501    0  0.00000000000E+00  0.00000000000E+00  0.16849305966E+04  0.16849305966E+04  0.00000000000E+00 0. -1.
         -2   -1    0    0    0  501 -0.00000000000E+00 -0.00000000000E+00 -0.11849412945E+04  0.11849412945E+04  0.00000000000E+00 0.  1.
         23    2    1    2    0    0  0.66677458572E+03  0.55059637113E+03 -0.88270727743E+03  0.12390455536E+04  0.91197775854E+02 0.  0.
         11    1    3    3    0    0  0.39605711733E+03  0.32605758779E+03 -0.58660982837E+03  0.77928549421E+03  0.00000000000E+00 0.  1.
        -11    1    3    3    0    0  0.27071746838E+03  0.22453878334E+03 -0.29609744905E+03  0.45976005943E+03  0.00000000000E+00 0. -1.
         22    1    1    2    0    0 -0.66677458572E+03 -0.55059637113E+03  0.13826965795E+04  0.16308263375E+04  0.00000000000E+00 0. -1.
<mgrwt>
<rscale>  0 0.28259822E+04</rscale>
<asrwt>0</asrwt>
<pdfrwt beam="1">  1        2 0.25922009E+00 0.28259822E+04</pdfrwt>
<pdfrwt beam="2">  1       -2 0.18229866E+00 0.28259822E+04</pdfrwt>
<totfact> 0.15180484E+00</totfact>
</mgrwt>
</event>
<event>
 6    1  0.2238133E-007  0.1666490E+04  0.7818608E-02  0.8780711E-01
         -1   -1    0    0    0  501 -0.00000000000E+00  0.00000000000E+00  0.17428098021E+04  0.17428098021E+04  0.00000000000E+00 0.  1.
          1   -1    0    0  501    0  0.00000000000E+00 -0.00000000000E+00 -0.39837799149E+03  0.39837799149E+03  0.00000000000E+00 0. -1.
         23    2    1    2    0    0 -0.50275335643E+01  0.80524375476E+03  0.93316977979E+03  0.12369869096E+04  0.10434556006E+03 0.  0.
         13    1    3    3    0    0  0.38844522346E+02  0.21978004681E+03  0.29367006601E+03  0.36885535588E+03  0.00000000000E+00 0.  1.
        -13    1    3    3    0    0 -0.43872055910E+02  0.58546370794E+03  0.63949971378E+03  0.86813155370E+03  0.00000000000E+00 0. -1.
         22    1    1    2    0    0  0.50275335643E+01 -0.80524375476E+03  0.41126203086E+03  0.90420088404E+03  0.00000000000E+00 0. -1.
<mgrwt>
<rscale>  0 0.16664898E+04</rscale>
<asrwt>0</asrwt>
<pdfrwt beam="1">  1        1 0.61288922E-01 0.16664898E+04</pdfrwt>
<pdfrwt beam="2">  1       -1 0.26812458E+00 0.16664898E+04</pdfrwt>
<totfact> 0.30609480E+00</totfact>
</mgrwt>
</event>
<event>
 6    1  0.2238133E-007  0.4926846E+04  0.7818608E-02  0.7839892E-01
          2   -1    0    0  501    0  0.00000000000E+00  0.00000000000E+00  0.27664755290E+04  0.27664755290E+04  0.00000000000E+00 0. -1.
         -2   -1    0    0    0  501 -0.00000000000E+00 -0.00000000000E+00 -0.21935683607E+04  0.21935683607E+04  0.00000000000E+00 0.  1.
         23    2    1    2    0    0  0.13939798516E+04  0.17859759543E+03  0.23223651991E+04  0.27160117310E+04  0.90899268191E+02 0.  0.
         11    1    3    3    0    0  0.97631194585E+03  0.98888981087E+02  0.16821371113E+04  0.19474468690E+04  0.00000000000E+00 0. -1.
        -11    1    3    3    0    0  0.41766790579E+03  0.79708614346E+02  0.64022808772E+03  0.76856486196E+03  0.00000000000E+00 0.  1.
         22    1    1    2    0    0 -0.13939798516E+04 -0.17859759543E+03 -0.17494580308E+04  0.22440321587E+04  0.00000000000E+00 0.  1.
<mgrwt>
<rscale>  0 0.49268461E+04</rscale>
<asrwt>0</asrwt>
<pdfrwt beam="1">  1        2 0.42561162E+00 0.49268461E+04</pdfrwt>
<pdfrwt beam="2">  1       -2 0.33747205E+00 0.49268461E+04</pdfrwt>
<totfact> 0.33078958E-02</totfact>
</mgrwt>
</event>
<event>
 6    1  0.2238133E-007  0.3517518E+04  0.7818608E-02  0.8109651E-01
          2   -1    0    0  501    0  0.00000000000E+00  0.00000000000E+00  0.33684956152E+04  0.33684956152E+04  0.00000000000E+00 0. -1.
         -2   -1    0    0    0  501 -0.00000000000E+00 -0.00000000000E+00 -0.91828346010E+03  0.91828346010E+03  0.00000000000E+00 0.  1.
         23    2    1    2    0    0  0.78086417358E+03  0.14313081106E+04  0.20256951691E+04  0.26019626354E+04  0.91525257610E+02 0.  0.
         11    1    3    3    0    0  0.37274160973E+03  0.67451992973E+03  0.10301349647E+04  0.12865035906E+04  0.00000000000E+00 0.  1.
        -11    1    3    3    0    0  0.40812256385E+03  0.75678818082E+03  0.99556020439E+03  0.13154590447E+04  0.00000000000E+00 0. -1.
         22    1    1    2    0    0 -0.78086417358E+03 -0.14313081106E+04  0.42451698602E+03  0.16848164400E+04  0.00000000000E+00 0.  1.
<mgrwt>
<rscale>  0 0.35175183E+04</rscale>
<asrwt>0</asrwt>
<pdfrwt beam="1">  1        2 0.51823009E+00 0.35175183E+04</pdfrwt>
<pdfrwt beam="2">  1       -2 0.14127438E+00 0.35175183E+04</pdfrwt>
<totfact> 0.28792361E-01</totfact>
</mgrwt>
</event>
<event>
 6    1  0.2238133E-007  0.1343961E+04  0.7818608E-02  0.8995412E-01
          2   -1    0    0  501    0  0.00000000000E+00  0.00000000000E+00  0.17015165953E+04  0.17015165953E+04  0.00000000000E+00 0. -1.
         -2   -1    0    0    0  501 -0.00000000000E+00 -0.00000000000E+00 -0.26538550011E+03  0.26538550011E+03  0.00000000000E+00 0.  1.
         23    2    1    2    0    0  0.26612827062E+03 -0.59179644538E+03  0.94495482734E+03  0.11530830644E+04  0.12495454545E+03 0.  0.
         11    1    3    3    0    0  0.20927539898E+03 -0.35620197456E+03  0.66410591842E+03  0.78212064937E+03  0.00000000000E+00 0. -1.
        -11    1    3    3    0    0  0.56852871639E+02 -0.23559447082E+03  0.28084890893E+03  0.37096241500E+03  0.00000000000E+00 0.  1.
         22    1    1    2    0    0 -0.26612827062E+03  0.59179644538E+03  0.49117626782E+03  0.81381903102E+03  0.00000000000E+00 0.  1.
<mgrwt>
<rscale>  0 0.13439611E+04</rscale>
<asrwt>0</asrwt>
<pdfrwt beam="1">  1        2 0.26177178E+00 0.13439611E+04</pdfrwt>
<pdfrwt beam="2">  1       -2 0.40828539E-01 0.13439611E+04</pdfrwt>
<totfact> 0.54327420E+01</totfact>
</mgrwt>
</event>
<event>
 6    1  0.2238133E-007  0.1780856E+04  0.7818608E-02  0.8716547E-01
         -2   -1    0    0    0  501 -0.00000000000E+00  0.00000000000E+00  0.96254696680E+03  0.96254696680E+03  0.00000000000E+00 0.  1.
          2   -1    0    0  501    0  0.00000000000E+00 -0.00000000000E+00 -0.82371263471E+03  0.82371263471E+03  0.00000000000E+00 0. -1.
         23    2    1    2    0    0 -0.42243897912E+03  0.75011721654E+03  0.28799204579E+03  0.91254422841E+03  0.93096835232E+02 0.  0.
         13    1    3    3    0    0 -0.19202580122E+03  0.36692722462E+03  0.18568603294E+03  0.45385988954E+03  0.00000000000E+00 0. -1.
        -13    1    3    3    0    0 -0.23041317791E+03  0.38318999193E+03  0.10230601284E+03  0.45868433888E+03  0.00000000000E+00 0.  1.
         22    1    1    2    0    0  0.42243897912E+03 -0.75011721654E+03 -0.14915771369E+03  0.87371537310E+03  0.00000000000E+00 0. -1.
<mgrwt>
<rscale>  0 0.17808561E+04</rscale>
<asrwt>0</asrwt>
<pdfrwt beam="1">  1        2 0.12672502E+00 0.17808561E+04</pdfrwt>
<pdfrwt beam="2">  1       -2 0.14808415E+00 0.17808561E+04</pdfrwt>
<totfact> 0.97050944E+00</totfact>
</mgrwt>
</event>
<event>
 6    1  0.2238133E-007  0.1759080E+04  0.7818608E-02  0.8728368E-01
          2   -1    0    0  501    0  0.00000000000E+00  0.00000000000E+00  0.74989672384E+03  0.74989672384E+03  0.00000000000E+00 0. -1.
         -2   -1    0    0    0  501 -0.00000000000E+00 -0.00000000000E+00 -0.10315957334E+04  0.10315957334E+04  0.00000000000E+00 0.  1.
         23    2    1    2    0    0 -0.55504018561E+03  0.52720437210E+03  0.29235272449E+03  0.82464897425E+03  0.92529766063E+02 0.  0.
         13    1    3    3    0    0 -0.54366853275E+03  0.49031268723E+03  0.28320165405E+03  0.78497463757E+03  0.00000000000E+00 0. -1.
        -13    1    3    3    0    0 -0.11371652864E+02  0.36891684864E+02  0.91510704328E+01  0.39674336680E+02  0.00000000000E+00 0.  1.
         22    1    1    2    0    0  0.55504018561E+03 -0.52720437210E+03 -0.57405173409E+03  0.95684348303E+03  0.00000000000E+00 0.  1.
<mgrwt>
<rscale>  0 0.17590796E+04</rscale>
<asrwt>0</asrwt>
<pdfrwt beam="1">  1        2 0.11536873E+00 0.17590796E+04</pdfrwt>
<pdfrwt beam="2">  1       -2 0.15870704E+00 0.17590796E+04</pdfrwt>
<totfact> 0.91430933E+00</totfact>
</mgrwt>
</event>
<event>
 6    1  0.2238133E-007  0.1253731E+04  0.7818608E-02  0.9067084E-01
          1   -1    0    0  501    0  0.00000000000E+00  0.00000000000E+00  0.22306337606E+04  0.22306337606E+04  0.00000000000E+00 0. -1.
         -1   -1    0    0    0  501 -0.00000000000E+00 -0.00000000000E+00 -0.17616520219E+03  0.17616520219E+03  0.00000000000E+00 0.  1.
         23    2    1    2    0    0  0.26977878389E+02  0.61958679921E+03  0.91057710458E+03  0.11056059464E+04  0.92726682746E+02 0.  0.
         13    1    3    3    0    0 -0.66872821147E+01  0.24843373302E+03  0.43994017899E+03  0.50528348532E+03  0.00000000000E+00 0. -1.
        -13    1    3    3    0    0  0.33665160504E+02  0.37115306619E+03  0.47063692559E+03  0.60032246110E+03  0.00000000000E+00 0.  1.
         22    1    1    2    0    0 -0.26977878389E+02 -0.61958679921E+03  0.11438914538E+04  0.13011930163E+04  0.00000000000E+00 0. -1.
<mgrwt>
<rscale>  0 0.12537305E+04</rscale>
<asrwt>0</asrwt>
<pdfrwt beam="1">  1        1 0.34317440E+00 0.12537305E+04</pdfrwt>
<pdfrwt beam="2">  1       -1 0.27102340E-01 0.12537305E+04</pdfrwt>
<totfact> 0.25015122E+01</totfact>
</mgrwt>
</event>
<event>
 6    1  0.2238133E-007  0.1790680E+04  0.7818608E-02  0.8711272E-01
         -2   -1    0    0    0  501 -0.00000000000E+00  0.00000000000E+00  0.55974722920E+03  0.55974722920E+03  0.00000000000E+00 0.  1.
          2   -1    0    0  501    0  0.00000000000E+00 -0.00000000000E+00 -0.14321349875E+04  0.14321349875E+04  0.00000000000E+00 0. -1.
         23    2    1    2    0    0 -0.44821795046E+03  0.62362923340E+03  0.69844520661E+02  0.77631057366E+03  0.89258600963E+02 0.  0.
         13    1    3    3    0    0 -0.24646689706E+03  0.41685997545E+03  0.42850707945E+02  0.48616288798E+03  0.00000000000E+00 0. -1.
        -13    1    3    3    0    0 -0.20175105339E+03  0.20676925795E+03  0.26993812716E+02  0.29014768567E+03  0.00000000000E+00 0.  1.
         22    1    1    2    0    0  0.44821795046E+03 -0.62362923340E+03 -0.94223227896E+03  0.12155716430E+04  0.00000000000E+00 0. -1.
<mgrwt>
<rscale>  0 0.17906799E+04</rscale>
<asrwt>0</asrwt>
<pdfrwt beam="1">  1        2 0.22032846E+00 0.17906799E+04</pdfrwt>
<pdfrwt beam="2">  1       -2 0.86114958E-01 0.17906799E+04</pdfrwt>
<totfact> 0.15328502E+01</totfact>
</mgrwt>
</event>
<event>
 6    1  0.2238133E-007  0.2439860E+04  0.7818608E-02  0.8424729E-01
         -2   -1    0    0    0  501 -0.00000000000E+00  0.00000000000E+00  0.85595351441E+03  0.85595351441E+03  0.00000000000E+00 0.  1.
          2   -1    0    0  501    0  0.00000000000E+00 -0.00000000000E+00 -0.17386806233E+04  0.17386806233E+04  0.00000000000E+00 0. -1.
         23    2    1    2    0    0  0.11505714192E+04  0.38818243223E+03 -0.33994737661E+03  0.12645551817E+04  0.95054707552E+02 0.  0.
         13    1    3    3    0    0  0.51639374513E+03  0.17793017577E+03 -0.20196949311E+03  0.58233437440E+03  0.00000000000E+00 0. -1.
        -13    1    3    3    0    0  0.63417767406E+03  0.21025225646E+03 -0.13797788351E+03  0.68222080733E+03  0.00000000000E+00 0.  1.
         22    1    1    2    0    0 -0.11505714192E+04 -0.38818243223E+03 -0.54277973227E+03  0.13300789560E+04  0.00000000000E+00 0. -1.
<mgrwt>
<rscale>  0 0.24398605E+04</rscale>
<asrwt>0</asrwt>
<pdfrwt beam="1">  1        2 0.26748932E+00 0.24398605E+04</pdfrwt>
<pdfrwt beam="2">  1       -2 0.13168516E+00 0.24398605E+04</pdfrwt>
<totfact> 0.35165315E+00</totfact>
</mgrwt>
</event>
<event>
 6    1  0.2238133E-007  0.1042340E+04  0.7818608E-02  0.9263289E-01
          2   -1    0    0  501    0  0.00000000000E+00  0.00000000000E+00  0.36480167525E+03  0.36480167525E+03  0.00000000000E+00 0. -1.
         -2   -1    0    0    0  501 -0.00000000000E+00 -0.00000000000E+00 -0.74456340009E+03  0.74456340009E+03  0.00000000000E+00 0.  1.
         23    2    1    2    0    0  0.24391969605E+03  0.14496086028E+03 -0.65161844703E+03  0.71640636690E+03  0.90116662671E+02 0.  0.
         11    1    3    3    0    0  0.20746019058E+03  0.11779786141E+03 -0.44575869543E+03  0.50558568153E+03  0.00000000000E+00 0. -1.
        -11    1    3    3    0    0  0.36459505474E+02  0.27162998874E+02 -0.20585975161E+03  0.21082068537E+03  0.00000000000E+00 0.  1.
         22    1    1    2    0    0 -0.24391969605E+03 -0.14496086028E+03  0.27185672219E+03  0.39295870844E+03  0.00000000000E+00 0. -1.
<mgrwt>
<rscale>  0 0.10423396E+04</rscale>
<asrwt>0</asrwt>
<pdfrwt beam="1">  1        2 0.56123335E-01 0.10423396E+04</pdfrwt>
<pdfrwt beam="2">  1       -2 0.11454821E+00 0.10423396E+04</pdfrwt>
<totfact> 0.52301890E+01</totfact>
</mgrwt>
</event>
<event>
 6    1  0.2238133E-007  0.3491504E+04  0.7818608E-02  0.8115806E-01
          2   -1    0    0  501    0  0.00000000000E+00  0.00000000000E+00  0.29133050186E+04  0.29133050186E+04  0.00000000000E+00 0. -1.
         -2   -1    0    0    0  501 -0.00000000000E+00 -0.00000000000E+00 -0.10461141555E+04  0.10461141555E+04  0.00000000000E+00 0.  1.
         23    2    1    2    0    0  0.14854156549E+04 -0.83605412459E+03  0.51257280458E+03  0.17821648821E+04  0.89076484655E+02 0.  0.
         13    1    3    3    0    0  0.13255223870E+04 -0.75020336313E+03  0.48595967631E+03  0.15987405955E+04  0.00000000000E+00 0. -1.
        -13    1    3    3    0    0  0.15989326784E+03 -0.85850761454E+02  0.26613128271E+02  0.18342428666E+03  0.00000000000E+00 0.  1.
         22    1    1    2    0    0 -0.14854156549E+04  0.83605412459E+03  0.13546180585E+04  0.21772542919E+04  0.00000000000E+00 0. -1.
<mgrwt>
<rscale>  0 0.34915038E+04</rscale>
<asrwt>0</asrwt>
<pdfrwt beam="1">  1        2 0.44820077E+00 0.34915038E+04</pdfrwt>
<pdfrwt beam="2">  1       -2 0.16094064E+00 0.34915038E+04</pdfrwt>
<totfact> 0.40162713E-01</totfact>
</mgrwt>
</event>
<event>
 6    1  0.2238133E-007  0.5351258E+04  0.7818608E-02  0.7776494E-01
          1   -1    0    0  501    0  0.00000000000E+00  0.00000000000E+00  0.30745297874E+04  0.30745297874E+04  0.00000000000E+00 0. -1.
         -1   -1    0    0    0  501 -0.00000000000E+00 -0.00000000000E+00 -0.23284834077E+04  0.23284834077E+04  0.00000000000E+00 0.  1.
         23    2    1    2    0    0  0.11181127867E+04  0.60055493817E+03  0.27504619883E+04  0.30305620640E+04  0.91776015856E+02 0.  0.
         13    1    3    3    0    0  0.59750337647E+03  0.31835068787E+03  0.15755946945E+04  0.17148924417E+04  0.00000000000E+00 0.  1.
        -13    1    3    3    0    0  0.52060941024E+03  0.28220425030E+03  0.11748672938E+04  0.13156696223E+04  0.00000000000E+00 0. -1.
         22    1    1    2    0    0 -0.11181127867E+04 -0.60055493817E+03 -0.20044156086E+04  0.23724511311E+04  0.00000000000E+00 0.  1.
<mgrwt>
<rscale>  0 0.53512584E+04</rscale>
<asrwt>0</asrwt>
<pdfrwt beam="1">  1        1 0.47300458E+00 0.53512584E+04</pdfrwt>
<pdfrwt beam="2">  1       -1 0.35822822E+00 0.53512584E+04</pdfrwt>
<totfact> 0.50698019E-03</totfact>
</mgrwt>
</event>
<event>
 6    1  0.2238133E-007  0.1080667E+04  0.7818608E-02  0.9224243E-01
          2   -1    0    0  501    0  0.00000000000E+00  0.00000000000E+00  0.61240524764E+03  0.61240524764E+03  0.00000000000E+00 0. -1.
         -2   -1    0    0    0  501 -0.00000000000E+00 -0.00000000000E+00 -0.47674366537E+03  0.47674366537E+03  0.00000000000E+00 0.  1.
         23    2    1    2    0    0 -0.21448486402E+03  0.41426076375E+03  0.33538715726E+03  0.58169838086E+03  0.90954514777E+02 0.  0.
         13    1    3    3    0    0 -0.12294353948E+03  0.30117743502E+03  0.19365329298E+03  0.37858230168E+03  0.00000000000E+00 0.  1.
        -13    1    3    3    0    0 -0.91541324542E+02  0.11308332873E+03  0.14173386428E+03  0.20311607917E+03  0.00000000000E+00 0. -1.
         22    1    1    2    0    0  0.21448486402E+03 -0.41426076375E+03 -0.19972557499E+03  0.50745053216E+03  0.00000000000E+00 0.  1.
<mgrwt>
<rscale>  0 0.10806671E+04</rscale>
<asrwt>0</asrwt>
<pdfrwt beam="1">  1        2 0.94216192E-01 0.10806671E+04</pdfrwt>
<pdfrwt beam="2">  1       -2 0.73345179E-01 0.10806671E+04</pdfrwt>
<totfact> 0.80728216E+01</totfact>
</mgrwt>
</event>
<event>
 6    1  0.2238133E-007  0.1748201E+04  0.7818608E-02  0.8734341E-01
          2   -1    0    0  501    0  0.00000000000E+00  0.00000000000E+00  0.46323759976E+03  0.46323759976E+03  0.00000000000E+00 0. -1.
         -2   -1    0    0    0  501 -0.00000000000E+00 -0.00000000000E+00 -0.16493734970E+04  0.16493734970E+04  0.00000000000E+00 0.  1.
         23    2    1    2    0    0  0.28888544664E+03  0.29942022929E+03  0.33094686048E+03  0.53950990207E+03  0.91857688700E+02 0.  0.
         13    1    3    3    0    0  0.24099224662E+02  0.65989684256E+02  0.33142917185E+02  0.77677950649E+02  0.00000000000E+00 0.  1.
        -13    1    3    3    0    0  0.26478622198E+03  0.23343054504E+03  0.29780394330E+03  0.46183195142E+03  0.00000000000E+00 0. -1.
         22    1    1    2    0    0 -0.28888544664E+03 -0.29942022929E+03 -0.15170827577E+04  0.15731011947E+04  0.00000000000E+00 0.  1.
<mgrwt>
<rscale>  0 0.17482012E+04</rscale>
<asrwt>0</asrwt>
<pdfrwt beam="1">  1        2 0.71267323E-01 0.17482012E+04</pdfrwt>
<pdfrwt beam="2">  1       -2 0.25374977E+00 0.17482012E+04</pdfrwt>
<totfact> 0.38865419E+00</totfact>
</mgrwt>
</event>
<event>
 6    1  0.2238133E-007  0.1908019E+04  0.7818608E-02  0.8650875E-01
         -2   -1    0    0    0  501 -0.00000000000E+00  0.00000000000E+00  0.43237700076E+03  0.43237700076E+03  0.00000000000E+00 0.  1.
          2   -1    0    0  501    0  0.00000000000E+00 -0.00000000000E+00 -0.21049541778E+04  0.21049541778E+04  0.00000000000E+00 0. -1.
         23    2    1    2    0    0  0.44186107777E+03 -0.84266167727E+03 -0.86978378538E+03  0.12924226903E+04  0.92264092294E+02 0.  0.
         11    1    3    3    0    0  0.15840778845E+03 -0.21325971984E+03 -0.23963250925E+03  0.35776595008E+03  0.00000000000E+00 0.  1.
        -11    1    3    3    0    0  0.28345328932E+03 -0.62940195744E+03 -0.63015127613E+03  0.93465674023E+03  0.00000000000E+00 0. -1.
         22    1    1    2    0    0 -0.44186107777E+03  0.84266167727E+03 -0.80279339164E+03  0.12449084882E+04  0.00000000000E+00 0. -1.
<mgrwt>
<rscale>  0 0.19080186E+04</rscale>
<asrwt>0</asrwt>
<pdfrwt beam="1">  1        2 0.32383911E+00 0.19080186E+04</pdfrwt>
<pdfrwt beam="2">  1       -2 0.66519538E-01 0.19080186E+04</pdfrwt>
<totfact> 0.11349945E+01</totfact>
</mgrwt>
</event>
<event>
 6    1  0.2238133E-007  0.9345035E+03  0.7818608E-02  0.9383449E-01
          2   -1    0    0  501    0  0.00000000000E+00  0.00000000000E+00  0.11636997454E+04  0.11636997454E+04  0.00000000000E+00 0. -1.
         -2   -1    0    0    0  501 -0.00000000000E+00 -0.00000000000E+00 -0.18761212831E+03  0.18761212831E+03  0.00000000000E+00 0.  1.
         23    2    1    2    0    0  0.12835781041E+03 -0.38182604836E+03  0.16303531669E+03  0.44394155137E+03  0.90756420413E+02 0.  0.
         11    1    3    3    0    0 -0.16413338558E+01 -0.95775700665E+02  0.16317164256E+02  0.97169587136E+02  0.00000000000E+00 0.  1.
        -11    1    3    3    0    0  0.12999914426E+03 -0.28605034769E+03  0.14671815244E+03  0.34677196423E+03  0.00000000000E+00 0. -1.
         22    1    1    2    0    0 -0.12835781041E+03  0.38182604836E+03  0.81305230044E+03  0.90737032239E+03  0.00000000000E+00 0. -1.
<mgrwt>
<rscale>  0 0.93450347E+03</rscale>
<asrwt>0</asrwt>
<pdfrwt beam="1">  1        2 0.17903073E+00 0.93450347E+03</pdfrwt>
<pdfrwt beam="2">  1       -2 0.28863405E-01 0.93450347E+03</pdfrwt>
<totfact> 0.21942650E+02</totfact>
</mgrwt>
</event>
<event>
 6    1  0.2238133E-007  0.4107924E+04  0.7818608E-02  0.7983122E-01
          2   -1    0    0  501    0  0.00000000000E+00  0.00000000000E+00  0.45354069489E+04  0.45354069489E+04  0.00000000000E+00 0. -1.
         -2   -1    0    0    0  501 -0.00000000000E+00 -0.00000000000E+00 -0.93018314554E+03  0.93018314554E+03  0.00000000000E+00 0.  1.
         23    2    1    2    0    0 -0.56938415018E+03 -0.11095119724E+04  0.39734964230E+04  0.41652671155E+04  0.74573400811E+02 0.  0.
         11    1    3    3    0    0 -0.35959512839E+03 -0.67206256619E+03  0.25397756839E+04  0.26516857419E+04  0.00000000000E+00 0.  1.
        -11    1    3    3    0    0 -0.20978902179E+03 -0.43744940624E+03  0.14337207391E+04  0.15135813736E+04  0.00000000000E+00 0. -1.
         22    1    1    2    0    0  0.56938415018E+03  0.11095119724E+04 -0.36827261960E+03  0.13003229790E+04  0.00000000000E+00 0.  1.
<mgrwt>
<rscale>  0 0.41079236E+04</rscale>
<asrwt>0</asrwt>
<pdfrwt beam="1">  1        2 0.69775490E+00 0.41079236E+04</pdfrwt>
<pdfrwt beam="2">  1       -2 0.14310510E+00 0.41079236E+04</pdfrwt>
<totfact> 0.29887467E-02</totfact>
</mgrwt>
</event>
<event>
 6    1  0.2238133E-007  0.8596301E+03  0.7818608E-02  0.9477502E-01
         -2   -1    0    0    0  501 -0.00000000000E+00  0.00000000000E+00  0.84451663104E+02  0.84451663104E+02  0.00000000000E+00 0.  1.
          2   -1    0    0  501    0  0.00000000000E+00 -0.00000000000E+00 -0.21875350977E+04  0.21875350977E+04  0.00000000000E+00 0. -1.
         23    2    1    2    0    0  0.33871269577E+03 -0.11224187200E+03 -0.45312421348E+03  0.58388428777E+03  0.90965820829E+02 0.  0.
         11    1    3    3    0    0  0.71082633614E+02 -0.62925317953E+02 -0.13825681939E+03  0.16771190938E+03  0.00000000000E+00 0. -1.
        -11    1    3    3    0    0  0.26763006216E+03 -0.49316554045E+02 -0.31486739409E+03  0.41617237839E+03  0.00000000000E+00 0.  1.
         22    1    1    2    0    0 -0.33871269577E+03  0.11224187200E+03 -0.16499592211E+04  0.16881024730E+04  0.00000000000E+00 0. -1.
<mgrwt>
<rscale>  0 0.85963010E+03</rscale>
<asrwt>0</asrwt>
<pdfrwt beam="1">  1        2 0.33654389E+00 0.85963010E+03</pdfrwt>
<pdfrwt beam="2">  1       -2 0.12992562E-01 0.85963010E+03</pdfrwt>
<totfact> 0.23854501E+02</totfact>
</mgrwt>
</event>
<event>
 6    1  0.2238133E-007  0.2611883E+04  0.7818608E-02  0.8364176E-01
          2   -1    0    0  501    0  0.00000000000E+00  0.00000000000E+00  0.27313633253E+04  0.27313633253E+04  0.00000000000E+00 0. -1.
         -2   -1    0    0    0  501 -0.00000000000E+00 -0.00000000000E+00 -0.62440752170E+03  0.62440752170E+03  0.00000000000E+00 0.  1.
         23    2    1    2    0    0 -0.10222008503E+04  0.61496456944E+03  0.17322357858E+04  0.21053744731E+04  0.94259505259E+02 0.  0.
         13    1    3    3    0    0 -0.44941140134E+03  0.32506223293E+03  0.80924894468E+03  0.98108099431E+03  0.00000000000E+00 0.  1.
        -13    1    3    3    0    0 -0.57278944898E+03  0.28990233650E+03  0.92298684114E+03  0.11242934788E+04  0.00000000000E+00 0. -1.
         22    1    1    2    0    0  0.10222008503E+04 -0.61496456944E+03  0.37472001776E+03  0.12503963739E+04  0.00000000000E+00 0.  1.
<mgrwt>
<rscale>  0 0.26118835E+04</rscale>
<asrwt>0</asrwt>
<pdfrwt beam="1">  1        2 0.42020974E+00 0.26118835E+04</pdfrwt>
<pdfrwt beam="2">  1       -2 0.96062697E-01 0.26118835E+04</pdfrwt>
<totfact> 0.20403782E+00</totfact>
</mgrwt>
</event>
<event>
 6    1  0.2238133E-007  0.1581937E+04  0.7818608E-02  0.8831722E-01
         -2   -1    0    0    0  501 -0.00000000000E+00  0.00000000000E+00  0.15922111606E+04  0.15922111606E+04  0.00000000000E+00 0.  1.
          2   -1    0    0  501    0  0.00000000000E+00 -0.00000000000E+00 -0.39293252120E+03  0.39293252120E+03  0.00000000000E+00 0. -1.
         23    2    1    2    0    0 -0.65639960164E+03 -0.31402281444E+03  0.22218180689E+03  0.76687072998E+03  0.96203930080E+02 0.  0.
         13    1    3    3    0    0 -0.13921791561E+03 -0.86239098252E+02  0.88520364178E+02  0.18615763473E+03  0.00000000000E+00 0. -1.
        -13    1    3    3    0    0 -0.51718168603E+03 -0.22778371619E+03  0.13366144271E+03  0.58071309525E+03  0.00000000000E+00 0.  1.
         22    1    1    2    0    0  0.65639960164E+03  0.31402281444E+03  0.97709683253E+03  0.12182729518E+04  0.00000000000E+00 0.  1.
<mgrwt>
<rscale>  0 0.15819375E+04</rscale>
<asrwt>0</asrwt>
<pdfrwt beam="1">  1        2 0.60451158E-01 0.15819375E+04</pdfrwt>
<pdfrwt beam="2">  1       -2 0.24495556E+00 0.15819375E+04</pdfrwt>
<totfact> 0.53789502E+00</totfact>
</mgrwt>
</event>
<event>
 6    1  0.2238133E-007  0.2166140E+04  0.7818608E-02  0.8532655E-01
         -2   -1    0    0    0  501 -0.00000000000E+00  0.00000000000E+00  0.51803929414E+03  0.51803929414E+03  0.00000000000E+00 0.  1.
          2   -1    0    0  501    0  0.00000000000E+00 -0.00000000000E+00 -0.22643859734E+04  0.22643859734E+04  0.00000000000E+00 0. -1.
         23    2    1    2    0    0  0.16972455661E+03  0.21049300085E+03 -0.22193526470E+04  0.22375873339E+04  0.90317088442E+02 0.  0.
         11    1    3    3    0    0  0.98256625395E+02  0.16205120082E+03 -0.12350395349E+04  0.12494949415E+04  0.00000000000E+00 0. -1.
        -11    1    3    3    0    0  0.71467931213E+02  0.48441800033E+02 -0.98431311213E+03  0.98809239238E+03  0.00000000000E+00 0.  1.
         22    1    1    2    0    0 -0.16972455661E+03 -0.21049300085E+03  0.47300596770E+03  0.54483793370E+03  0.00000000000E+00 0.  1.
<mgrwt>
<rscale>  0 0.21661403E+04</rscale>
<asrwt>0</asrwt>
<pdfrwt beam="1">  1        2 0.34836708E+00 0.21661403E+04</pdfrwt>
<pdfrwt beam="2">  1       -2 0.79698352E-01 0.21661403E+04</pdfrwt>
<totfact> 0.60682672E+00</totfact>
</mgrwt>
</event>
<event>
 6    1  0.2238133E-007  0.1579403E+04  0.7818608E-02  0.8833302E-01
         -2   -1    0    0    0  501 -0.00000000000E+00  0.00000000000E+00  0.96972822571E+03  0.96972822571E+03  0.00000000000E+00 0.  1.
          2   -1    0    0  501    0  0.00000000000E+00 -0.00000000000E+00 -0.64309625709E+03  0.64309625709E+03  0.00000000000E+00 0. -1.
         23    2    1    2    0    0  0.63189013614E+03 -0.45918806239E+02  0.64082801019E+03  0.90563792081E+03  0.90143352796E+02 0.  0.
         13    1    3    3    0    0  0.49400657807E+03 -0.41796123584E+02  0.44561816988E+03  0.66660705701E+03  0.00000000000E+00 0. -1.
        -13    1    3    3    0    0  0.13788355807E+03 -0.41226826560E+01  0.19520984031E+03  0.23903086380E+03  0.00000000000E+00 0.  1.
         22    1    1    2    0    0 -0.63189013614E+03  0.45918806239E+02 -0.31419604157E+03  0.70718656199E+03  0.00000000000E+00 0. -1.
<mgrwt>
<rscale>  0 0.15794032E+04</rscale>
<asrwt>0</asrwt>
<pdfrwt beam="1">  1        2 0.98937886E-01 0.15794032E+04</pdfrwt>
<pdfrwt beam="2">  1       -2 0.14918896E+00 0.15794032E+04</pdfrwt>
<totfact> 0.13291971E+01</totfact>
</mgrwt>
</event>
<event>
 6    1  0.2238133E-007  0.3110332E+04  0.7818608E-02  0.8212908E-01
          2   -1    0    0  501    0  0.00000000000E+00  0.00000000000E+00  0.14669928713E+04  0.14669928713E+04  0.00000000000E+00 0. -1.
         -2   -1    0    0    0  501 -0.00000000000E+00 -0.00000000000E+00 -0.16486391327E+04  0.16486391327E+04  0.00000000000E+00 0.  1.
         23    2    1    2    0    0  0.31683619562E+02  0.15516800578E+04 -0.10973530614E+02  0.15542723291E+04  0.83229809640E+02 0.  0.
         13    1    3    3    0    0  0.37993281720E+02  0.47727346485E+03 -0.29452190367E+02  0.47968831675E+03  0.00000000000E+00 0. -1.
        -13    1    3    3    0    0 -0.63096621583E+01  0.10744065929E+04  0.18478659754E+02  0.10745840124E+04  0.00000000000E+00 0.  1.
         22    1    1    2    0    0 -0.31683619562E+02 -0.15516800578E+04 -0.17067273076E+03  0.15613596749E+04  0.00000000000E+00 0.  1.
<mgrwt>
<rscale>  0 0.31103324E+04</rscale>
<asrwt>0</asrwt>
<pdfrwt beam="1">  1        2 0.22569121E+00 0.31103324E+04</pdfrwt>
<pdfrwt beam="2">  1       -2 0.25363679E+00 0.31103324E+04</pdfrwt>
<totfact> 0.68617182E-01</totfact>
</mgrwt>
</event>
<event>
 6    1  0.2238133E-007  0.4321986E+04  0.7818608E-02  0.7942565E-01
         -2   -1    0    0    0  501 -0.00000000000E+00  0.00000000000E+00  0.14487037794E+04  0.14487037794E+04  0.00000000000E+00 0.  1.
          2   -1    0    0  501    0  0.00000000000E+00 -0.00000000000E+00 -0.32234962377E+04  0.32234962377E+04  0.00000000000E+00 0. -1.
         23    2    1    2    0    0  0.37005285378E+03 -0.15530579919E+04 -0.24606640596E+04  0.29345728723E+04  0.89006111886E+02 0.  0.
         13    1    3    3    0    0  0.14006429480E+03 -0.51428883343E+03 -0.75196597575E+03  0.92171787417E+03  0.00000000000E+00 0.  1.
        -13    1    3    3    0    0  0.22998855899E+03 -0.10387691585E+04 -0.17086980838E+04  0.20128549982E+04  0.00000000000E+00 0. -1.
         22    1    1    2    0    0 -0.37005285378E+03  0.15530579919E+04  0.68587160123E+03  0.17376271448E+04  0.00000000000E+00 0. -1.
<mgrwt>
<rscale>  0 0.43219862E+04</rscale>
<asrwt>0</asrwt>
<pdfrwt beam="1">  1        2 0.49592250E+00 0.43219862E+04</pdfrwt>
<pdfrwt beam="2">  1       -2 0.22287751E+00 0.43219862E+04</pdfrwt>
<totfact> 0.91089791E-02</totfact>
</mgrwt>
</event>
<event>
 6    1  0.2238133E-007  0.1598735E+04  0.7818608E-02  0.8821326E-01
          2   -1    0    0  501    0  0.00000000000E+00  0.00000000000E+00  0.22109490620E+04  0.22109490620E+04  0.00000000000E+00 0. -1.
         -2   -1    0    0    0  501 -0.00000000000E+00 -0.00000000000E+00 -0.28901074532E+03  0.28901074532E+03  0.00000000000E+00 0.  1.
         23    2    1    2    0    0  0.32808431993E+03 -0.41107376097E+02  0.20976374377E+04  0.21255278129E+04  0.91959370040E+02 0.  0.
         13    1    3    3    0    0  0.11622433579E+03  0.16657769077E+02  0.55031185859E+03  0.56269771565E+03  0.00000000000E+00 0. -1.
        -13    1    3    3    0    0  0.21185998414E+03 -0.57765145174E+02  0.15473255791E+04  0.15628300972E+04  0.00000000000E+00 0.  1.
         22    1    1    2    0    0 -0.32808431993E+03  0.41107376097E+02 -0.17569912104E+03  0.37443199447E+03  0.00000000000E+00 0.  1.
<mgrwt>
<rscale>  0 0.15987345E+04</rscale>
<asrwt>0</asrwt>
<pdfrwt beam="1">  1        2 0.34014600E+00 0.15987345E+04</pdfrwt>
<pdfrwt beam="2">  1       -2 0.44463193E-01 0.15987345E+04</pdfrwt>
<totfact> 0.23439857E+01</totfact>
</mgrwt>
</event>
<event>
 6    1  0.2238133E-007  0.3189145E+04  0.7818608E-02  0.8191690E-01
          2   -1    0    0  501    0  0.00000000000E+00  0.00000000000E+00  0.32925920192E+04  0.32925920192E+04  0.00000000000E+00 0. -1.
         -2   -1    0    0    0  501 -0.00000000000E+00 -0.00000000000E+00 -0.77223684849E+03  0.77223684849E+03  0.00000000000E+00 0.  1.
         23    2    1    2    0    0  0.30448027330E+03 -0.10378334515E+04 -0.22966848551E+03  0.11097592205E+04  0.94928417522E+02 0.  0.
         13    1    3    3    0    0  0.17943586480E+03 -0.72363904884E+03 -0.18917790661E+03  0.76918072190E+03  0.00000000000E+00 0. -1.
        -13    1    3    3    0    0  0.12504440850E+03 -0.31419440265E+03 -0.40490578897E+02  0.34057849863E+03  0.00000000000E+00 0.  1.
         22    1    1    2    0    0 -0.30448027330E+03  0.10378334515E+04  0.27500236563E+04  0.29550696472E+04  0.00000000000E+00 0. -1.
<mgrwt>
<rscale>  0 0.31891446E+04</rscale>
<asrwt>0</asrwt>
<pdfrwt beam="1">  1        2 0.50655261E+00 0.31891446E+04</pdfrwt>
<pdfrwt beam="2">  1       -2 0.11880567E+00 0.31891446E+04</pdfrwt>
<totfact> 0.51635172E-01</totfact>
</mgrwt>
</event>
<event>
 6    1  0.2238133E-007  0.3561633E+04  0.7818608E-02  0.8099337E-01
         -2   -1    0    0    0  501 -0.00000000000E+00  0.00000000000E+00  0.12997530452E+04  0.12997530452E+04  0.00000000000E+00 0.  1.
          2   -1    0    0  501    0  0.00000000000E+00 -0.00000000000E+00 -0.24399303366E+04  0.24399303366E+04  0.00000000000E+00 0. -1.
         23    2    1    2    0    0  0.15617199575E+04 -0.82633246176E+03 -0.34243000050E+03  0.18010768454E+04  0.69461748570E+02 0.  0.
         13    1    3    3    0    0  0.13614747762E+04 -0.73292521628E+03 -0.27895257012E+03  0.15711802810E+04  0.00000000000E+00 0.  1.
        -13    1    3    3    0    0  0.20024518132E+03 -0.93407245489E+02 -0.63477430372E+02  0.22989656439E+03  0.00000000000E+00 0. -1.
         22    1    1    2    0    0 -0.15617199575E+04  0.82633246176E+03 -0.79774729089E+03  0.19386065365E+04  0.00000000000E+00 0. -1.
<mgrwt>
<rscale>  0 0.35616327E+04</rscale>
<asrwt>0</asrwt>
<pdfrwt beam="1">  1        2 0.37537389E+00 0.35616327E+04</pdfrwt>
<pdfrwt beam="2">  1       -2 0.19996201E+00 0.35616327E+04</pdfrwt>
<totfact> 0.41025280E-01</totfact>
</mgrwt>
</event>
<event>
 6    1  0.2238133E-007  0.1878282E+04  0.7818608E-02  0.8665743E-01
         -2   -1    0    0    0  501 -0.00000000000E+00  0.00000000000E+00  0.61380302689E+03  0.61380302689E+03  0.00000000000E+00 0.  1.
          2   -1    0    0  501    0  0.00000000000E+00 -0.00000000000E+00 -0.14369206308E+04  0.14369206308E+04  0.00000000000E+00 0. -1.
         23    2    1    2    0    0  0.29517285587E+03  0.28458208634E+03 -0.13322845117E+04  0.13969921235E+04  0.92146590358E+02 0.  0.
         11    1    3    3    0    0  0.22462825386E+03  0.24172094168E+03 -0.11588707034E+04  0.12049349249E+04  0.00000000000E+00 0.  1.
        -11    1    3    3    0    0  0.70544602009E+02  0.42861144665E+02 -0.17341380830E+03  0.19205719852E+03  0.00000000000E+00 0. -1.
         22    1    1    2    0    0 -0.29517285587E+03 -0.28458208634E+03  0.50916690787E+03  0.65373153418E+03  0.00000000000E+00 0.  1.
<mgrwt>
<rscale>  0 0.18782824E+04</rscale>
<asrwt>0</asrwt>
<pdfrwt beam="1">  1        2 0.22106471E+00 0.18782824E+04</pdfrwt>
<pdfrwt beam="2">  1       -2 0.94431235E-01 0.18782824E+04</pdfrwt>
<totfact> 0.12224715E+01</totfact>
</mgrwt>
</event>
<event>
 6    1  0.2238133E-007  0.4082145E+04  0.7818608E-02  0.7988177E-01
         -2   -1    0    0    0  501 -0.00000000000E+00  0.00000000000E+00  0.10417038969E+04  0.10417038969E+04  0.00000000000E+00 0.  1.
          2   -1    0    0  501    0  0.00000000000E+00 -0.00000000000E+00 -0.39991953283E+04  0.39991953283E+04  0.00000000000E+00 0. -1.
         23    2    1    2    0    0 -0.12168720125E+04  0.86852967973E+02 -0.34986168901E+04  0.37063065177E+04  0.89816070385E+02 0.  0.
         11    1    3    3    0    0 -0.10693205836E+04  0.74263030622E+02 -0.29778607967E+04  0.31649038583E+04  0.00000000000E+00 0.  1.
        -11    1    3    3    0    0 -0.14755142886E+03  0.12589937350E+02 -0.52075609348E+03  0.54140265938E+03  0.00000000000E+00 0. -1.
         22    1    1    2    0    0  0.12168720125E+04 -0.86852967973E+02  0.54112545876E+03  0.13345927075E+04  0.00000000000E+00 0.  1.
<mgrwt>
<rscale>  0 0.40821452E+04</rscale>
<asrwt>0</asrwt>
<pdfrwt beam="1">  1        2 0.61526081E+00 0.40821452E+04</pdfrwt>
<pdfrwt beam="2">  1       -2 0.16026214E+00 0.40821452E+04</pdfrwt>
<totfact> 0.67082128E-02</totfact>
</mgrwt>
</event>
<event>
 6    1  0.2238133E-007  0.3763188E+04  0.7818608E-02  0.8054101E-01
          1   -1    0    0  501    0  0.00000000000E+00  0.00000000000E+00  0.24492347136E+04  0.24492347136E+04  0.00000000000E+00 0. -1.
         -1   -1    0    0    0  501 -0.00000000000E+00 -0.00000000000E+00 -0.14455110025E+04  0.14455110025E+04  0.00000000000E+00 0.  1.
         23    2    1    2    0    0  0.15288208437E+04 -0.15666992790E+03  0.16237645819E+04  0.22375525107E+04  0.90505151221E+02 0.  0.
         13    1    3    3    0    0  0.14871159336E+04 -0.15540648757E+03  0.15559192588E+04  0.21579040099E+04  0.00000000000E+00 0.  1.
        -13    1    3    3    0    0  0.41704910161E+02 -0.12634403289E+01  0.67845323104E+02  0.79648500803E+02  0.00000000000E+00 0. -1.
         22    1    1    2    0    0 -0.15288208437E+04  0.15666992790E+03 -0.62004087075E+03  0.16571932054E+04  0.00000000000E+00 0.  1.
<mgrwt>
<rscale>  0 0.37631879E+04</rscale>
<asrwt>0</asrwt>
<pdfrwt beam="1">  1        1 0.37680534E+00 0.37631879E+04</pdfrwt>
<pdfrwt beam="2">  1       -1 0.22238631E+00 0.37631879E+04</pdfrwt>
<totfact> 0.12436922E-01</totfact>
</mgrwt>
</event>
<event>
 6    1  0.2238133E-007  0.2573907E+04  0.7818608E-02  0.8377119E-01
          1   -1    0    0  501    0  0.00000000000E+00  0.00000000000E+00  0.19947595779E+04  0.19947595779E+04  0.00000000000E+00 0. -1.
         -1   -1    0    0    0  501 -0.00000000000E+00 -0.00000000000E+00 -0.83030006167E+03  0.83030006167E+03  0.00000000000E+00 0.  1.
         23    2    1    2    0    0  0.22711387163E+03 -0.73100311147E+03  0.17161129356E+04  0.18815196272E+04  0.95531357434E+02 0.  0.
         11    1    3    3    0    0  0.14585703626E+03 -0.40365778166E+03  0.85423640560E+03  0.95599880563E+03  0.00000000000E+00 0.  1.
        -11    1    3    3    0    0  0.81256835378E+02 -0.32734532981E+03  0.86187653002E+03  0.92552082161E+03  0.00000000000E+00 0. -1.
         22    1    1    2    0    0 -0.22711387163E+03  0.73100311147E+03 -0.55165341941E+03  0.94354001230E+03  0.00000000000E+00 0.  1.
<mgrwt>
<rscale>  0 0.25739068E+04</rscale>
<asrwt>0</asrwt>
<pdfrwt beam="1">  1        1 0.30688609E+00 0.25739068E+04</pdfrwt>
<pdfrwt beam="2">  1       -1 0.12773847E+00 0.25739068E+04</pdfrwt>
<totfact> 0.14056611E+00</totfact>
</mgrwt>
</event>
<event>
 6    1  0.2874478E-007  0.3902538E+04  0.7818608E-02  0.8024501E-01
         -1   -1    0    0    0  501 -0.00000000000E+00  0.00000000000E+00  0.18705298903E+04  0.18705298903E+04  0.00000000000E+00 0.  1.
          1   -1    0    0  501    0  0.00000000000E+00 -0.00000000000E+00 -0.20354935142E+04  0.20354935142E+04  0.00000000000E+00 0. -1.
         23    2    1    2    0    0 -0.14961978205E+04 -0.75382909291E+03 -0.10817318443E+04  0.19962249362E+04  0.88904406428E+02 0.  0.
         11    1    3    3    0    0 -0.95623237796E+03 -0.43685084291E+03 -0.65951307101E+03  0.12410384806E+04  0.00000000000E+00 0.  1.
        -11    1    3    3    0    0 -0.53996544257E+03 -0.31697825000E+03 -0.42221877331E+03  0.75518645558E+03  0.00000000000E+00 0. -1.
         22    1    1    2    0    0  0.14961978205E+04  0.75382909291E+03  0.91676822041E+03  0.19097984683E+04  0.00000000000E+00 0.  1.
<mgrwt>
<rscale>  0 0.39025384E+04</rscale>
<asrwt>0</asrwt>
<pdfrwt beam="1">  1        1 0.31315285E+00 0.39025384E+04</pdfrwt>
<pdfrwt beam="2">  1       -1 0.28777383E+00 0.39025384E+04</pdfrwt>
<totfact> 0.88151736E-02</totfact>
</mgrwt>
</event>
<event>
 6    1  0.2238133E-007  0.1879597E+04  0.7818608E-02  0.8665079E-01
         -2   -1    0    0    0  501 -0.00000000000E+00  0.00000000000E+00  0.61847820291E+03  0.61847820291E+03  0.00000000000E+00 0.  1.
          2   -1    0    0  501    0  0.00000000000E+00 -0.00000000000E+00 -0.14280560654E+04  0.14280560654E+04  0.00000000000E+00 0. -1.
         23    2    1    2    0    0 -0.66350159289E+03  0.10969867387E+03 -0.11167933070E+04  0.13071767823E+04  0.95998369641E+02 0.  0.
         11    1    3    3    0    0 -0.80478693277E+02  0.81436715524E+01 -0.20259191927E+03  0.21814358852E+03  0.00000000000E+00 0. -1.
        -11    1    3    3    0    0 -0.58302289961E+03  0.10155500232E+03 -0.91420138769E+03  0.10890331938E+04  0.00000000000E+00 0.  1.
         22    1    1    2    0    0  0.66350159289E+03 -0.10969867387E+03  0.30721544445E+03  0.73935748601E+03  0.00000000000E+00 0.  1.
<mgrwt>
<rscale>  0 0.18795973E+04</rscale>
<asrwt>0</asrwt>
<pdfrwt beam="1">  1        2 0.21970093E+00 0.18795973E+04</pdfrwt>
<pdfrwt beam="2">  1       -2 0.95150492E-01 0.18795973E+04</pdfrwt>
<totfact> 0.12149171E+01</totfact>
</mgrwt>
</event>
<event>
 6    1  0.2238133E-007  0.1842394E+04  0.7818608E-02  0.8684074E-01
         -2   -1    0    0    0  501 -0.00000000000E+00  0.00000000000E+00  0.38444709922E+03  0.38444709922E+03  0.00000000000E+00 0.  1.
          2   -1    0    0  501    0  0.00000000000E+00 -0.00000000000E+00 -0.22073357673E+04  0.22073357673E+04  0.00000000000E+00 0. -1.
         23    2    1    2    0    0 -0.23364914439E+03  0.33987212939E+03  0.24118837066E+03  0.48690305786E+03  0.93796431724E+02 0.  0.
         11    1    3    3    0    0 -0.10027436880E+03  0.13834878360E+03  0.15390688676E+03  0.22996231159E+03  0.00000000000E+00 0.  1.
        -11    1    3    3    0    0 -0.13337477559E+03  0.20152334579E+03  0.87281483907E+02  0.25694074627E+03  0.00000000000E+00 0. -1.
         22    1    1    2    0    0  0.23364914439E+03 -0.33987212939E+03 -0.20640770388E+04  0.21048798087E+04  0.00000000000E+00 0. -1.
<mgrwt>
<rscale>  0 0.18423939E+04</rscale>
<asrwt>0</asrwt>
<pdfrwt beam="1">  1        2 0.33959013E+00 0.18423939E+04</pdfrwt>
<pdfrwt beam="2">  1       -2 0.59145705E-01 0.18423939E+04</pdfrwt>
<totfact> 0.12850637E+01</totfact>
</mgrwt>
</event>
<event>
 6    1  0.2238133E-007  0.3554962E+04  0.7818608E-02  0.8100887E-01
         -2   -1    0    0    0  501 -0.00000000000E+00  0.00000000000E+00  0.19353896101E+04  0.19353896101E+04  0.00000000000E+00 0.  1.
          2   -1    0    0  501    0  0.00000000000E+00 -0.00000000000E+00 -0.16324566086E+04  0.16324566086E+04  0.00000000000E+00 0. -1.
         23    2    1    2    0    0  0.32137129879E+03  0.40838452353E+03  0.18563898630E+04  0.19297724563E+04  0.88209855665E+02 0.  0.
         13    1    3    3    0    0  0.47742366188E+02  0.74539363747E+02  0.45029132436E+03  0.45890927978E+03  0.00000000000E+00 0. -1.
        -13    1    3    3    0    0  0.27362893261E+03  0.33384515978E+03  0.14060985387E+04  0.14708631765E+04  0.00000000000E+00 0.  1.
         22    1    1    2    0    0 -0.32137129879E+03 -0.40838452353E+03 -0.15534568615E+04  0.16380737625E+04  0.00000000000E+00 0. -1.
<mgrwt>
<rscale>  0 0.35549625E+04</rscale>
<asrwt>0</asrwt>
<pdfrwt beam="1">  1        2 0.25114717E+00 0.35549625E+04</pdfrwt>
<pdfrwt beam="2">  1       -2 0.29775225E+00 0.35549625E+04</pdfrwt>
<totfact> 0.28701042E-01</totfact>
</mgrwt>
</event>
<event>
 6    1  0.2238133E-007  0.2158999E+04  0.7818608E-02  0.8535690E-01
          1   -1    0    0  501    0  0.00000000000E+00  0.00000000000E+00  0.11561932014E+04  0.11561932014E+04  0.00000000000E+00 0. -1.
         -1   -1    0    0    0  501 -0.00000000000E+00 -0.00000000000E+00 -0.10078926989E+04  0.10078926989E+04  0.00000000000E+00 0.  1.
         23    2    1    2    0    0  0.90861822287E+03 -0.56037844045E+03 -0.71316450927E+02  0.10742039445E+04  0.96005243607E+02 0.  0.
         13    1    3    3    0    0  0.21104294350E+02 -0.33749427895E+02 -0.42117064677E+01  0.40026910881E+02  0.00000000000E+00 0.  1.
        -13    1    3    3    0    0  0.88751392852E+03 -0.52662901256E+03 -0.67104744459E+02  0.10341770336E+04  0.00000000000E+00 0. -1.
         22    1    1    2    0    0 -0.90861822287E+03  0.56037844045E+03  0.21961695341E+03  0.10898819558E+04  0.00000000000E+00 0.  1.
<mgrwt>
<rscale>  0 0.21589986E+04</rscale>
<asrwt>0</asrwt>
<pdfrwt beam="1">  1        1 0.17787588E+00 0.21589986E+04</pdfrwt>
<pdfrwt beam="2">  1       -1 0.15506041E+00 0.21589986E+04</pdfrwt>
<totfact> 0.33575097E+00</totfact>
</mgrwt>
</event>
<event>
 6    1  0.2238133E-007  0.8574817E+03  0.7818608E-02  0.9480350E-01
         -4   -1    0    0    0  501 -0.00000000000E+00  0.00000000000E+00  0.56285119233E+03  0.56285119233E+03  0.00000000000E+00 0.  1.
          4   -1    0    0  501    0  0.00000000000E+00 -0.00000000000E+00 -0.32658491630E+03  0.32658491630E+03  0.00000000000E+00 0. -1.
         23    2    1    2    0    0  0.18187082120E+03  0.36500438220E+03  0.23986113379E+03  0.48161492524E+03  0.90079842787E+02 0.  0.
         11    1    3    3    0    0  0.12713692977E+03  0.21666053998E+03  0.99539608383E+02  0.27021051448E+03  0.00000000000E+00 0.  1.
        -11    1    3    3    0    0  0.54733891432E+02  0.14834384222E+03  0.14032152541E+03  0.21140441076E+03  0.00000000000E+00 0. -1.
         22    1    1    2    0    0 -0.18187082120E+03 -0.36500438220E+03 -0.35948577639E+01  0.40782118340E+03  0.00000000000E+00 0. -1.
<mgrwt>
<rscale>  0 0.85748168E+03</rscale>
<asrwt>0</asrwt>
<pdfrwt beam="1">  1        4 0.50243833E-01 0.85748168E+03</pdfrwt>
<pdfrwt beam="2">  1       -4 0.86592491E-01 0.85748168E+03</pdfrwt>
<totfact> 0.87934523E+00</totfact>
</mgrwt>
</event>
<event>
 6    1  0.2238133E-007  0.2703278E+04  0.7818608E-02  0.8333942E-01
          1   -1    0    0  501    0  0.00000000000E+00  0.00000000000E+00  0.14359245543E+04  0.14359245543E+04  0.00000000000E+00 0. -1.
         -1   -1    0    0    0  501 -0.00000000000E+00 -0.00000000000E+00 -0.12723003584E+04  0.12723003584E+04  0.00000000000E+00 0.  1.
         23    2    1    2    0    0  0.10336282212E+04 -0.81054458368E+03  0.39445740834E+03  0.13745631138E+04  0.91963498678E+02 0.  0.
         13    1    3    3    0    0  0.56267444042E+03 -0.49483754503E+03  0.20661705029E+03  0.77727558005E+03  0.00000000000E+00 0.  1.
        -13    1    3    3    0    0  0.47095378080E+03 -0.31570703865E+03  0.18784035804E+03  0.59728753378E+03  0.00000000000E+00 0. -1.
         22    1    1    2    0    0 -0.10336282212E+04  0.81054458368E+03 -0.23083321235E+03  0.13336617989E+04  0.00000000000E+00 0.  1.
<mgrwt>
<rscale>  0 0.27032775E+04</rscale>
<asrwt>0</asrwt>
<pdfrwt beam="1">  1        1 0.22091147E+00 0.27032775E+04</pdfrwt>
<pdfrwt beam="2">  1       -1 0.19573852E+00 0.27032775E+04</pdfrwt>
<totfact> 0.10195535E+00</totfact>
</mgrwt>
</event>
<event>
 6    1  0.2238133E-007  0.3322590E+04  0.7818608E-02  0.8157171E-01
          2   -1    0    0  501    0  0.00000000000E+00  0.00000000000E+00  0.26042246587E+04  0.26042246587E+04  0.00000000000E+00 0. -1.
         -2   -1    0    0    0  501 -0.00000000000E+00 -0.00000000000E+00 -0.10597783873E+04  0.10597783873E+04  0.00000000000E+00 0.  1.
         23    2    1    2    0    0 -0.16600756262E+04 -0.13206759020E+02  0.77538896008E+03  0.18343925269E+04  0.87990909011E+02 0.  0.
         11    1    3    3    0    0 -0.34254116120E+03  0.11980417003E+02  0.19638776789E+03  0.39502674959E+03  0.00000000000E+00 0. -1.
        -11    1    3    3    0    0 -0.13175344650E+04 -0.25187176023E+02  0.57900119219E+03  0.14393657773E+04  0.00000000000E+00 0.  1.
         22    1    1    2    0    0  0.16600756262E+04  0.13206759020E+02  0.76905731129E+03  0.18296105190E+04  0.00000000000E+00 0.  1.
<mgrwt>
<rscale>  0 0.33225900E+04</rscale>
<asrwt>0</asrwt>
<pdfrwt beam="1">  1        2 0.40064995E+00 0.33225900E+04</pdfrwt>
<pdfrwt beam="2">  1       -2 0.16304283E+00 0.33225900E+04</pdfrwt>
<totfact> 0.60335567E-01</totfact>
</mgrwt>
</event>
<event>
 6    1  0.2238133E-007  0.2074370E+04  0.7818608E-02  0.8572618E-01
         -2   -1    0    0    0  501 -0.00000000000E+00  0.00000000000E+00  0.44916598626E+03  0.44916598626E+03  0.00000000000E+00 0.  1.
          2   -1    0    0  501    0  0.00000000000E+00 -0.00000000000E+00 -0.23950012529E+04  0.23950012529E+04  0.00000000000E+00 0. -1.
         23    2    1    2    0    0  0.69600552240E+03  0.14399070678E+02  0.75423338611E+02  0.70638395506E+03  0.93051552968E+02 0.  0.
         11    1    3    3    0    0  0.16928250167E+03  0.43122139547E+02  0.25117823791E+02  0.17648509672E+03  0.00000000000E+00 0. -1.
        -11    1    3    3    0    0  0.52672302073E+03 -0.28723068869E+02  0.50305514820E+02  0.52989885834E+03  0.00000000000E+00 0.  1.
         22    1    1    2    0    0 -0.69600552240E+03 -0.14399070678E+02 -0.20212586052E+04  0.21377832841E+04  0.00000000000E+00 0. -1.
<mgrwt>
<rscale>  0 0.20743704E+04</rscale>
<asrwt>0</asrwt>
<pdfrwt beam="1">  1        2 0.36846172E+00 0.20743704E+04</pdfrwt>
<pdfrwt beam="2">  1       -2 0.69102461E-01 0.20743704E+04</pdfrwt>
<totfact> 0.70673766E+00</totfact>
</mgrwt>
</event>
<event>
 6    1  0.2238133E-007  0.3010961E+04  0.7818608E-02  0.8240608E-01
          2   -1    0    0  501    0  0.00000000000E+00  0.00000000000E+00  0.11803126081E+04  0.11803126081E+04  0.00000000000E+00 0. -1.
         -2   -1    0    0    0  501 -0.00000000000E+00 -0.00000000000E+00 -0.19202302824E+04  0.19202302824E+04  0.00000000000E+00 0.  1.
         23    2    1    2    0    0  0.14663275793E+03  0.50128550325E+03  0.10821492830E+04  0.12050966850E+04  0.91774877821E+02 0.  0.
         13    1    3    3    0    0  0.10973463947E+03  0.22731527669E+03  0.56085116810E+03  0.61503492492E+03  0.00000000000E+00 0.  1.
        -13    1    3    3    0    0  0.36898118462E+02  0.27397022656E+03  0.52129811486E+03  0.59006176011E+03  0.00000000000E+00 0. -1.
         22    1    1    2    0    0 -0.14663275793E+03 -0.50128550325E+03 -0.18220669572E+04  0.18954462055E+04  0.00000000000E+00 0.  1.
<mgrwt>
<rscale>  0 0.30109613E+04</rscale>
<asrwt>0</asrwt>
<pdfrwt beam="1">  1        2 0.18158656E+00 0.30109613E+04</pdfrwt>
<pdfrwt beam="2">  1       -2 0.29542004E+00 0.30109613E+04</pdfrwt>
<totfact> 0.56429844E-01</totfact>
</mgrwt>
</event>
<event>
 6    1  0.2238133E-007  0.1655864E+04  0.7818608E-02  0.8786945E-01
         -2   -1    0    0    0  501 -0.00000000000E+00  0.00000000000E+00  0.47603470205E+03  0.47603470205E+03  0.00000000000E+00 0.  1.
          2   -1    0    0  501    0  0.00000000000E+00 -0.00000000000E+00 -0.14399607204E+04  0.14399607204E+04  0.00000000000E+00 0. -1.
         23    2    1    2    0    0 -0.82315945389E+03  0.39530380204E+02 -0.54057419562E+03  0.98950694258E+03  0.88030625080E+02 0.  0.
         11    1    3    3    0    0 -0.25184829077E+03 -0.28415784837E+02 -0.16784229021E+03  0.30398363899E+03  0.00000000000E+00 0. -1.
        -11    1    3    3    0    0 -0.57131116312E+03  0.67946165041E+02 -0.37273190541E+03  0.68552330359E+03  0.00000000000E+00 0.  1.
         22    1    1    2    0    0  0.82315945389E+03 -0.39530380204E+02 -0.42335182268E+03  0.92648847983E+03  0.00000000000E+00 0.  1.
<mgrwt>
<rscale>  0 0.16558639E+04</rscale>
<asrwt>0</asrwt>
<pdfrwt beam="1">  1        2 0.22153242E+00 0.16558639E+04</pdfrwt>
<pdfrwt beam="2">  1       -2 0.73236109E-01 0.16558639E+04</pdfrwt>
<totfact> 0.22064962E+01</totfact>
</mgrwt>
</event>
<event>
 6    1  0.2238133E-007  0.1666783E+04  0.7818608E-02  0.8780539E-01
         -2   -1    0    0    0  501 -0.00000000000E+00  0.00000000000E+00  0.23969954912E+03  0.23969954912E+03  0.00000000000E+00 0.  1.
          2   -1    0    0  501    0  0.00000000000E+00 -0.00000000000E+00 -0.28975511445E+04  0.28975511445E+04  0.00000000000E+00 0. -1.
         23    2    1    2    0    0  0.70943315228E+03  0.43168392272E+03 -0.12674146175E+04  0.15176947680E+04  0.86088265874E+02 0.  0.
         11    1    3    3    0    0  0.45916040607E+03  0.32164668911E+03 -0.88444138789E+03  0.10471491965E+04  0.00000000000E+00 0.  1.
        -11    1    3    3    0    0  0.25027274621E+03  0.11003723361E+03 -0.38297322964E+03  0.47054557154E+03  0.00000000000E+00 0. -1.
         22    1    1    2    0    0 -0.70943315228E+03 -0.43168392272E+03 -0.13904369778E+04  0.16195559255E+04  0.00000000000E+00 0. -1.
<mgrwt>
<rscale>  0 0.16667834E+04</rscale>
<asrwt>0</asrwt>
<pdfrwt beam="1">  1        2 0.44577710E+00 0.16667834E+04</pdfrwt>
<pdfrwt beam="2">  1       -2 0.36876854E-01 0.16667834E+04</pdfrwt>
<totfact> 0.13383569E+01</totfact>
</mgrwt>
</event>
<event>
 6    1  0.2238133E-007  0.1488658E+04  0.7818608E-02  0.8892031E-01
         -2   -1    0    0    0  501 -0.00000000000E+00  0.00000000000E+00  0.53208113271E+03  0.53208113271E+03  0.00000000000E+00 0.  1.
          2   -1    0    0  501    0  0.00000000000E+00 -0.00000000000E+00 -0.10412424850E+04  0.10412424850E+04  0.00000000000E+00 0. -1.
         23    2    1    2    0    0 -0.35119734123E+03  0.44353247168E+03  0.25117163655E+03  0.62560695128E+03  0.90753735768E+02 0.  0.
         11    1    3    3    0    0 -0.32651498265E+02  0.91782400373E+01  0.20659786160E+02  0.39713816151E+02  0.00000000000E+00 0. -1.
        -11    1    3    3    0    0 -0.31854584297E+03  0.43435423164E+03  0.23051185039E+03  0.58589313513E+03  0.00000000000E+00 0.  1.
         22    1    1    2    0    0  0.35119734123E+03 -0.44353247168E+03 -0.76033298884E+03  0.94771666643E+03  0.00000000000E+00 0. -1.
<mgrwt>
<rscale>  0 0.14886578E+04</rscale>
<asrwt>0</asrwt>
<pdfrwt beam="1">  1        2 0.16019115E+00 0.14886578E+04</pdfrwt>
<pdfrwt beam="2">  1       -2 0.81858637E-01 0.14886578E+04</pdfrwt>
<totfact> 0.30096661E+01</totfact>
</mgrwt>
</event>
<event>
 6    1  0.2569020E-007  0.1597705E+04  0.7818608E-02  0.8821959E-01
         -2   -1    0    0    0  501 -0.00000000000E+00  0.00000000000E+00  0.53235886411E+03  0.53235886411E+03  0.00000000000E+00 0.  1.
          2   -1    0    0  501    0  0.00000000000E+00 -0.00000000000E+00 -0.11987495726E+04  0.11987495726E+04  0.00000000000E+00 0. -1.
         23    2    1    2    0    0 -0.16333659902E+03 -0.32619400687E+03 -0.11012512407E+04  0.11634949615E+04  0.88796709242E+02 0.  0.
         11    1    3    3    0    0 -0.11873073580E+03 -0.16370369515E+03 -0.50782523978E+03  0.54660988061E+03  0.00000000000E+00 0.  1.
        -11    1    3    3    0    0 -0.44605863215E+02 -0.16249031172E+03 -0.59342600092E+03  0.61688508087E+03  0.00000000000E+00 0. -1.
         22    1    1    2    0    0  0.16333659902E+03  0.32619400687E+03  0.43486053225E+03  0.56761347518E+03  0.00000000000E+00 0.  1.
<mgrwt>
<rscale>  0 0.15977046E+04</rscale>
<asrwt>0</asrwt>
<pdfrwt beam="1">  1        2 0.18442301E+00 0.15977046E+04</pdfrwt>
<pdfrwt beam="2">  1       -2 0.81901364E-01 0.15977046E+04</pdfrwt>
<totfact> 0.23858857E+01</totfact>
</mgrwt>
</event>
<event>
 6    1  0.2484788E-007  0.4247410E+04  0.7818608E-02  0.7956415E-01
          2   -1    0    0  501    0  0.00000000000E+00  0.00000000000E+00  0.32940780063E+04  0.32940780063E+04  0.00000000000E+00 0. -1.
         -2   -1    0    0    0  501 -0.00000000000E+00 -0.00000000000E+00 -0.13691609637E+04  0.13691609637E+04  0.00000000000E+00 0.  1.
         23    2    1    2    0    0  0.25710396822E+03  0.91186699819E+03 -0.11224422860E+04  0.14720005348E+04  0.96462511349E+02 0.  0.
         11    1    3    3    0    0  0.12262193060E+03  0.30184461466E+03 -0.42892912215E+03  0.53863392123E+03  0.00000000000E+00 0. -1.
        -11    1    3    3    0    0  0.13448203762E+03  0.61002238353E+03 -0.69351316387E+03  0.93336661356E+03  0.00000000000E+00 0.  1.
         22    1    1    2    0    0 -0.25710396822E+03 -0.91186699819E+03  0.30473593286E+04  0.31912384352E+04  0.00000000000E+00 0. -1.
<mgrwt>
<rscale>  0 0.42474100E+04</rscale>
<asrwt>0</asrwt>
<pdfrwt beam="1">  1        2 0.50678123E+00 0.42474100E+04</pdfrwt>
<pdfrwt beam="2">  1       -2 0.21064015E+00 0.42474100E+04</pdfrwt>
<totfact> 0.98472037E-02</totfact>
</mgrwt>
</event>
<event>
 6    1  0.2238133E-007  0.2696677E+04  0.7818608E-02  0.8336084E-01
         -2   -1    0    0    0  501 -0.00000000000E+00  0.00000000000E+00  0.91876260508E+03  0.91876260508E+03  0.00000000000E+00 0.  1.
          2   -1    0    0  501    0  0.00000000000E+00 -0.00000000000E+00 -0.19787660960E+04  0.19787660960E+04  0.00000000000E+00 0. -1.
         23    2    1    2    0    0 -0.10828867154E+04 -0.79871092896E+03 -0.46791378595E+03  0.14274426474E+04  0.89813218588E+02 0.  0.
         11    1    3    3    0    0 -0.52886610746E+03 -0.42908086701E+03 -0.20257159796E+03  0.71052445584E+03  0.00000000000E+00 0. -1.
        -11    1    3    3    0    0 -0.55402060794E+03 -0.36963006195E+03 -0.26534218799E+03  0.71691819159E+03  0.00000000000E+00 0.  1.
         22    1    1    2    0    0  0.10828867154E+04  0.79871092896E+03 -0.59208970501E+03  0.14700860537E+04  0.00000000000E+00 0.  1.
<mgrwt>
<rscale>  0 0.26966767E+04</rscale>
<asrwt>0</asrwt>
<pdfrwt beam="1">  1        2 0.30442555E+00 0.26966767E+04</pdfrwt>
<pdfrwt beam="2">  1       -2 0.14134809E+00 0.26966767E+04</pdfrwt>
<totfact> 0.21106310E+00</totfact>
</mgrwt>
</event>
<event>
 6    1  0.2238133E-007  0.6504876E+04  0.7818608E-02  0.7630772E-01
          2   -1    0    0  501    0  0.00000000000E+00  0.00000000000E+00  0.30800207612E+04  0.30800207612E+04  0.00000000000E+00 0. -1.
         -2   -1    0    0    0  501 -0.00000000000E+00 -0.00000000000E+00 -0.34345069103E+04  0.34345069103E+04  0.00000000000E+00 0.  1.
         23    2    1    2    0    0  0.22434082580E+04  0.75573368075E+03 -0.24099858227E+04  0.33793892510E+04  0.90697494694E+02 0.  0.
         13    1    3    3    0    0  0.21566123549E+04  0.74388704071E+03 -0.23269831187E+04  0.32587106673E+04  0.00000000000E+00 0.  1.
        -13    1    3    3    0    0  0.86795903030E+02  0.11846640042E+02 -0.83002704055E+02  0.12067858362E+03  0.00000000000E+00 0. -1.
         22    1    1    2    0    0 -0.22434082580E+04 -0.75573368075E+03  0.20554996736E+04  0.31351384206E+04  0.00000000000E+00 0. -1.
<mgrwt>
<rscale>  0 0.65048759E+04</rscale>
<asrwt>0</asrwt>
<pdfrwt beam="1">  1        2 0.47384935E+00 0.65048759E+04</pdfrwt>
<pdfrwt beam="2">  1       -2 0.52838568E+00 0.65048759E+04</pdfrwt>
<totfact> 0.11415537E-03</totfact>
</mgrwt>
</event>
<event>
 6    1  0.2238133E-007  0.1487745E+04  0.7818608E-02  0.8892643E-01
          2   -1    0    0  501    0  0.00000000000E+00  0.00000000000E+00  0.16145422186E+04  0.16145422186E+04  0.00000000000E+00 0. -1.
         -2   -1    0    0    0  501 -0.00000000000E+00 -0.00000000000E+00 -0.34272655705E+03  0.34272655705E+03  0.00000000000E+00 0.  1.
         23    2    1    2    0    0  0.65321027858E+03  0.31978028983E+03  0.82589139718E+03  0.11041617769E+04  0.90186073016E+02 0.  0.
         13    1    3    3    0    0  0.28327073549E+03  0.13550751592E+03  0.42460407957E+03  0.52810341870E+03  0.00000000000E+00 0. -1.
        -13    1    3    3    0    0  0.36993954309E+03  0.18427277392E+03  0.40128731761E+03  0.57605835818E+03  0.00000000000E+00 0.  1.
         22    1    1    2    0    0 -0.65321027858E+03 -0.31978028983E+03  0.44592426439E+03  0.85310699879E+03  0.00000000000E+00 0.  1.
<mgrwt>
<rscale>  0 0.14877453E+04</rscale>
<asrwt>0</asrwt>
<pdfrwt beam="1">  1        2 0.24839111E+00 0.14877453E+04</pdfrwt>
<pdfrwt beam="2">  1       -2 0.52727163E-01 0.14877453E+04</pdfrwt>
<totfact> 0.35909677E+01</totfact>
</mgrwt>
</event>
<event>
 6    1  0.2238133E-007  0.2505465E+04  0.7818608E-02  0.8401041E-01
          4   -1    0    0  501    0  0.00000000000E+00  0.00000000000E+00  0.49098135995E+03  0.49098135995E+03  0.00000000000E+00 0. -1.
         -4   -1    0    0    0  501 -0.00000000000E+00 -0.00000000000E+00 -0.31963295497E+04  0.31963295497E+04  0.00000000000E+00 0.  1.
         23    2    1    2    0    0 -0.10797156324E+04  0.58823750107E+03 -0.16942572630E+04  0.20954208171E+04  0.92040878039E+02 0.  0.
         13    1    3    3    0    0 -0.26636607047E+03  0.18048705679E+03 -0.48753632462E+03  0.58413879257E+03  0.00000000000E+00 0. -1.
        -13    1    3    3    0    0 -0.81334956189E+03  0.40775044428E+03 -0.12067209384E+04  0.15112820246E+04  0.00000000000E+00 0.  1.
         22    1    1    2    0    0  0.10797156324E+04 -0.58823750107E+03 -0.10110909267E+04  0.15918900925E+04  0.00000000000E+00 0.  1.
<mgrwt>
<rscale>  0 0.25054646E+04</rscale>
<asrwt>0</asrwt>
<pdfrwt beam="1">  1        4 0.75535594E-01 0.25054646E+04</pdfrwt>
<pdfrwt beam="2">  1       -4 0.49174301E+00 0.25054646E+04</pdfrwt>
<totfact> 0.39562721E-03</totfact>
</mgrwt>
</event>
<event>
 6    1  0.2238133E-007  0.1812197E+04  0.7818608E-02  0.8699840E-01
         -2   -1    0    0    0  501 -0.00000000000E+00  0.00000000000E+00  0.30340988768E+04  0.30340988768E+04  0.00000000000E+00 0.  1.
          2   -1    0    0  501    0  0.00000000000E+00 -0.00000000000E+00 -0.27059597401E+03  0.27059597401E+03  0.00000000000E+00 0. -1.
         23    2    1    2    0    0 -0.76475067739E+03 -0.34553401859E+02  0.22614462136E+04  0.23892176773E+04  0.90468757268E+02 0.  0.
         11    1    3    3    0    0 -0.61430466534E+03 -0.63754463178E+02  0.18125357919E+04  0.19148683637E+04  0.00000000000E+00 0. -1.
        -11    1    3    3    0    0 -0.15044601204E+03  0.29201061318E+02  0.44891042169E+03  0.47434931351E+03  0.00000000000E+00 0.  1.
         22    1    1    2    0    0  0.76475067739E+03  0.34553401859E+02  0.50205668915E+03  0.91547717354E+03  0.00000000000E+00 0. -1.
<mgrwt>
<rscale>  0 0.18121975E+04</rscale>
<asrwt>0</asrwt>
<pdfrwt beam="1">  1        2 0.41630152E-01 0.18121975E+04</pdfrwt>
<pdfrwt beam="2">  1       -2 0.46678442E+00 0.18121975E+04</pdfrwt>
<totfact> 0.31334149E-01</totfact>
</mgrwt>
</event>
<event>
 6    1  0.2238133E-007  0.4222539E+04  0.7818608E-02  0.7961099E-01
          2   -1    0    0  501    0  0.00000000000E+00  0.00000000000E+00  0.13088765640E+04  0.13088765640E+04  0.00000000000E+00 0. -1.
         -2   -1    0    0    0  501 -0.00000000000E+00 -0.00000000000E+00 -0.34055613293E+04  0.34055613293E+04  0.00000000000E+00 0.  1.
         23    2    1    2    0    0 -0.15636504334E+04  0.94313880697E+03 -0.22297809417E+04  0.28835288079E+04  0.91114492868E+02 0.  0.
         13    1    3    3    0    0 -0.77175256744E+03  0.41679674033E+03 -0.10411355300E+04  0.13613540098E+04  0.00000000000E+00 0. -1.
        -13    1    3    3    0    0 -0.79189786592E+03  0.52634206664E+03 -0.11886454117E+04  0.15221747981E+04  0.00000000000E+00 0.  1.
         22    1    1    2    0    0  0.15636504334E+04 -0.94313880697E+03  0.13309617649E+03  0.18309090854E+04  0.00000000000E+00 0. -1.
<mgrwt>
<rscale>  0 0.42225392E+04</rscale>
<asrwt>0</asrwt>
<pdfrwt beam="1">  1        2 0.20136563E+00 0.42225392E+04</pdfrwt>
<pdfrwt beam="2">  1       -2 0.52393251E+00 0.42225392E+04</pdfrwt>
<totfact> 0.15048016E-02</totfact>
</mgrwt>
</event>
<event>
 6    1  0.2238133E-007  0.1724339E+04  0.7818608E-02  0.8747603E-01
         -2   -1    0    0    0  501 -0.00000000000E+00  0.00000000000E+00  0.24063019975E+04  0.24063019975E+04  0.00000000000E+00 0.  1.
          2   -1    0    0  501    0  0.00000000000E+00 -0.00000000000E+00 -0.30891225401E+03  0.30891225401E+03  0.00000000000E+00 0. -1.
         23    2    1    2    0    0  0.10579270886E+03 -0.45556473693E+03  0.21875492213E+04  0.22389159645E+04  0.92961141123E+02 0.  0.
         11    1    3    3    0    0  0.83446870911E+02 -0.20395781874E+03  0.11624753063E+04  0.11831783508E+04  0.00000000000E+00 0.  1.
        -11    1    3    3    0    0  0.22345837950E+02 -0.25160691819E+03  0.10250739150E+04  0.10557376137E+04  0.00000000000E+00 0. -1.
         22    1    1    2    0    0 -0.10579270886E+03  0.45556473693E+03 -0.90159477785E+02  0.47629828702E+03  0.00000000000E+00 0. -1.
<mgrwt>
<rscale>  0 0.17243389E+04</rscale>
<asrwt>0</asrwt>
<pdfrwt beam="1">  1        2 0.47524964E-01 0.17243389E+04</pdfrwt>
<pdfrwt beam="2">  1       -2 0.37020029E+00 0.17243389E+04</pdfrwt>
<totfact> 0.11742211E+00</totfact>
</mgrwt>
</event>
<event>
 6    1  0.2238133E-007  0.4605594E+04  0.7818608E-02  0.7892407E-01
         -1   -1    0    0    0  501 -0.00000000000E+00  0.00000000000E+00  0.25129241600E+04  0.25129241600E+04  0.00000000000E+00 0.  1.
          1   -1    0    0  501    0  0.00000000000E+00 -0.00000000000E+00 -0.21102400165E+04  0.21102400165E+04  0.00000000000E+00 0. -1.
         23    2    1    2    0    0  0.64803381116E+03  0.19476796358E+04 -0.84434200435E+03  0.22213985765E+04  0.91073767649E+02 0.  0.
         13    1    3    3    0    0  0.35714347039E+03  0.11626358231E+04 -0.53760500879E+03  0.13297716575E+04  0.00000000000E+00 0. -1.
        -13    1    3    3    0    0  0.29089034077E+03  0.78504381274E+03 -0.30673699555E+03  0.89162691901E+03  0.00000000000E+00 0.  1.
         22    1    1    2    0    0 -0.64803381116E+03 -0.19476796358E+04  0.12470261479E+04  0.24017656001E+04  0.00000000000E+00 0.  1.
<mgrwt>
<rscale>  0 0.46055936E+04</rscale>
<asrwt>0</asrwt>
<pdfrwt beam="1">  1        1 0.32465231E+00 0.46055936E+04</pdfrwt>
<pdfrwt beam="2">  1       -1 0.38660372E+00 0.46055936E+04</pdfrwt>
<totfact> 0.16490657E-02</totfact>
</mgrwt>
</event>
<event>
 6    1  0.2238133E-007  0.1983551E+04  0.7818608E-02  0.8614350E-01
          2   -1    0    0  501    0  0.00000000000E+00  0.00000000000E+00  0.74438661294E+03  0.74438661294E+03  0.00000000000E+00 0. -1.
         -2   -1    0    0    0  501 -0.00000000000E+00 -0.00000000000E+00 -0.13213809585E+04  0.13213809585E+04  0.00000000000E+00 0.  1.
         23    2    1    2    0    0 -0.95504547056E+03 -0.23783274510E+03 -0.17519154963E+03  0.10026957243E+04  0.77655463010E+02 0.  0.
         11    1    3    3    0    0 -0.64074143870E+03 -0.12310589668E+03 -0.10569019250E+03  0.66096525616E+03  0.00000000000E+00 0. -1.
        -11    1    3    3    0    0 -0.31430403186E+03 -0.11472684841E+03 -0.69501357133E+02  0.34173046811E+03  0.00000000000E+00 0.  1.
         22    1    1    2    0    0  0.95504547056E+03  0.23783274510E+03 -0.40180279596E+03  0.10630718472E+04  0.00000000000E+00 0. -1.
<mgrwt>
<rscale>  0 0.19835507E+04</rscale>
<asrwt>0</asrwt>
<pdfrwt beam="1">  1        2 0.11452102E+00 0.19835507E+04</pdfrwt>
<pdfrwt beam="2">  1       -2 0.20328938E+00 0.19835507E+04</pdfrwt>
<totfact> 0.44560002E+00</totfact>
</mgrwt>
</event>
<event>
 6    1  0.2238133E-007  0.5126455E+04  0.7818608E-02  0.7809291E-01
         -2   -1    0    0    0  501 -0.00000000000E+00  0.00000000000E+00  0.28567214893E+04  0.28567214893E+04  0.00000000000E+00 0.  1.
          2   -1    0    0  501    0  0.00000000000E+00 -0.00000000000E+00 -0.22998864665E+04  0.22998864665E+04  0.00000000000E+00 0. -1.
         23    2    1    2    0    0 -0.63626143616E+02  0.11749019528E+04 -0.20112050157E+04  0.23318473422E+04  0.90130610999E+02 0.  0.
         11    1    3    3    0    0 -0.64250628555E+02  0.66156555934E+03 -0.12025625912E+04  0.13740283543E+04  0.00000000000E+00 0.  1.
        -11    1    3    3    0    0  0.62448493887E+00  0.51333639350E+03 -0.80864242447E+03  0.95781898787E+03  0.00000000000E+00 0. -1.
         22    1    1    2    0    0  0.63626143616E+02 -0.11749019528E+04  0.25680400385E+04  0.28247606137E+04  0.00000000000E+00 0.  1.
<mgrwt>
<rscale>  0 0.51264550E+04</rscale>
<asrwt>0</asrwt>
<pdfrwt beam="1">  1        2 0.35382869E+00 0.51264550E+04</pdfrwt>
<pdfrwt beam="2">  1       -2 0.43949561E+00 0.51264550E+04</pdfrwt>
<totfact> 0.13345290E-02</totfact>
</mgrwt>
</event>
<event>
 6    1  0.2238133E-007  0.2355168E+04  0.7818608E-02  0.8456481E-01
          2   -1    0    0  501    0  0.00000000000E+00  0.00000000000E+00  0.28994706263E+04  0.28994706263E+04  0.00000000000E+00 0. -1.
         -2   -1    0    0    0  501 -0.00000000000E+00 -0.00000000000E+00 -0.47826105507E+03  0.47826105507E+03  0.00000000000E+00 0.  1.
         23    2    1    2    0    0 -0.40679045474E+03 -0.17608278536E+03  0.27743986662E+04  0.28109635117E+04  0.88001611633E+02 0.  0.
         11    1    3    3    0    0 -0.79980816843E+02 -0.98993132253E+01  0.67461449652E+03  0.67941124982E+03  0.00000000000E+00 0. -1.
        -11    1    3    3    0    0 -0.32680963790E+03 -0.16618347213E+03  0.20997841697E+04  0.21315522619E+04  0.00000000000E+00 0.  1.
         22    1    1    2    0    0  0.40679045474E+03  0.17608278536E+03 -0.35318909497E+03  0.56676816969E+03  0.00000000000E+00 0.  1.
<mgrwt>
<rscale>  0 0.23551678E+04</rscale>
<asrwt>0</asrwt>
<pdfrwt beam="1">  1        2 0.44607239E+00 0.23551678E+04</pdfrwt>
<pdfrwt beam="2">  1       -2 0.73578626E-01 0.23551678E+04</pdfrwt>
<totfact> 0.30242517E+00</totfact>
</mgrwt>
</event>
<event>
 6    1  0.2238133E-007  0.9704770E+03  0.7818608E-02  0.9341531E-01
         -2   -1    0    0    0  501 -0.00000000000E+00  0.00000000000E+00  0.17613225354E+03  0.17613225354E+03  0.00000000000E+00 0.  1.
          2   -1    0    0  501    0  0.00000000000E+00 -0.00000000000E+00 -0.13368158515E+04  0.13368158515E+04  0.00000000000E+00 0. -1.
         23    2    1    2    0    0  0.18560856366E+03  0.31466198160E+03 -0.10724149536E+04  0.11371103007E+04  0.97382245991E+02 0.  0.
         13    1    3    3    0    0  0.14354617054E+03  0.16725294208E+03 -0.54533951665E+03  0.58819574814E+03  0.00000000000E+00 0. -1.
        -13    1    3    3    0    0  0.42062393116E+02  0.14740903951E+03 -0.52707543692E+03  0.54891455260E+03  0.00000000000E+00 0.  1.
         22    1    1    2    0    0 -0.18560856366E+03 -0.31466198160E+03 -0.88268644400E+02  0.37583780431E+03  0.00000000000E+00 0.  1.
<mgrwt>
<rscale>  0 0.97047697E+03</rscale>
<asrwt>0</asrwt>
<pdfrwt beam="1">  1        2 0.20566397E+00 0.97047697E+03</pdfrwt>
<pdfrwt beam="2">  1       -2 0.27097271E-01 0.97047697E+03</pdfrwt>
<totfact> 0.19455226E+02</totfact>
</mgrwt>
</event>
<event>
 6    1  0.2238133E-007  0.1786215E+04  0.7818608E-02  0.8713665E-01
         -2   -1    0    0    0  501 -0.00000000000E+00  0.00000000000E+00  0.95842541015E+03  0.95842541015E+03  0.00000000000E+00 0.  1.
          2   -1    0    0  501    0  0.00000000000E+00 -0.00000000000E+00 -0.83224137419E+03  0.83224137419E+03  0.00000000000E+00 0. -1.
         23    2    1    2    0    0 -0.18481642721E+02  0.87971457972E+03  0.20223397622E+03  0.90747772966E+03  0.91531064687E+02 0.  0.
         13    1    3    3    0    0 -0.62725860947E+01  0.48690045438E+03  0.15830088262E+03  0.51202594392E+03  0.00000000000E+00 0. -1.
        -13    1    3    3    0    0 -0.12209056626E+02  0.39281412534E+03  0.43933093603E+02  0.39545178574E+03  0.00000000000E+00 0.  1.
         22    1    1    2    0    0  0.18481642721E+02 -0.87971457972E+03 -0.76049940262E+02  0.88318905468E+03  0.00000000000E+00 0.  1.
<mgrwt>
<rscale>  0 0.17862153E+04</rscale>
<asrwt>0</asrwt>
<pdfrwt beam="1">  1        2 0.12803713E+00 0.17862153E+04</pdfrwt>
<pdfrwt beam="2">  1       -2 0.14745006E+00 0.17862153E+04</pdfrwt>
<totfact> 0.96760090E+00</totfact>
</mgrwt>
</event>
<event>
 6    1  0.2238133E-007  0.5573371E+04  0.7818608E-02  0.7745673E-01
         -2   -1    0    0    0  501 -0.00000000000E+00  0.00000000000E+00  0.28320470260E+04  0.28320470260E+04  0.00000000000E+00 0.  1.
          2   -1    0    0  501    0  0.00000000000E+00 -0.00000000000E+00 -0.27420508701E+04  0.27420508701E+04  0.00000000000E+00 0. -1.
         23    2    1    2    0    0  0.19018569389E+04 -0.86964442833E+03  0.18859373020E+04  0.28175156194E+04  0.91068714603E+02 0.  0.
         13    1    3    3    0    0  0.15414758985E+04 -0.67863415318E+03  0.14812038738E+04  0.22429126544E+04  0.00000000000E+00 0.  1.
        -13    1    3    3    0    0  0.36038104040E+03 -0.19101027514E+03  0.40473342820E+03  0.57460296500E+03  0.00000000000E+00 0. -1.
         22    1    1    2    0    0 -0.19018569389E+04  0.86964442833E+03 -0.17959411461E+04  0.27565822767E+04  0.00000000000E+00 0. -1.
<mgrwt>
<rscale>  0 0.55733713E+04</rscale>
<asrwt>0</asrwt>
<pdfrwt beam="1">  1        2 0.42185398E+00 0.55733713E+04</pdfrwt>
<pdfrwt beam="2">  1       -2 0.43569954E+00 0.55733713E+04</pdfrwt>
<totfact> 0.75476852E-03</totfact>
</mgrwt>
</event>
<event>
 6    1  0.2238133E-007  0.3196797E+04  0.7818608E-02  0.8189663E-01
          2   -1    0    0  501    0  0.00000000000E+00  0.00000000000E+00  0.27191360667E+04  0.27191360667E+04  0.00000000000E+00 0. -1.
         -2   -1    0    0    0  501 -0.00000000000E+00 -0.00000000000E+00 -0.93959199344E+03  0.93959199344E+03  0.00000000000E+00 0.  1.
         23    2    1    2    0    0 -0.10877535277E+04 -0.10879234775E+04  0.39983223805E+03  0.15922358685E+04  0.92541950402E+02 0.  0.
         11    1    3    3    0    0 -0.28294740231E+03 -0.28294021945E+03  0.14630456404E+03  0.42605096610E+03  0.00000000000E+00 0. -1.
        -11    1    3    3    0    0 -0.80480612539E+03 -0.80498325801E+03  0.25352767401E+03  0.11661849024E+04  0.00000000000E+00 0.  1.
         22    1    1    2    0    0  0.10877535277E+04  0.10879234775E+04  0.13797118352E+04  0.20664921917E+04  0.00000000000E+00 0. -1.
<mgrwt>
<rscale>  0 0.31967974E+04</rscale>
<asrwt>0</asrwt>
<pdfrwt beam="1">  1        2 0.41832862E+00 0.31967974E+04</pdfrwt>
<pdfrwt beam="2">  1       -2 0.14455262E+00 0.31967974E+04</pdfrwt>
<totfact> 0.71941365E-01</totfact>
</mgrwt>
</event>
<event>
 6    1  0.2238133E-007  0.1374894E+04  0.7818608E-02  0.8972195E-01
         -2   -1    0    0    0  501 -0.00000000000E+00  0.00000000000E+00  0.10897645869E+04  0.10897645869E+04  0.00000000000E+00 0.  1.
          2   -1    0    0  501    0  0.00000000000E+00 -0.00000000000E+00 -0.43365614120E+03  0.43365614120E+03  0.00000000000E+00 0. -1.
         23    2    1    2    0    0  0.35268749248E+03 -0.52781204102E+03  0.61258241155E+03  0.88712792315E+03  0.93620099863E+02 0.  0.
         11    1    3    3    0    0  0.22417456596E+03 -0.25918961234E+03  0.30061591838E+03  0.45585460571E+03  0.00000000000E+00 0.  1.
        -11    1    3    3    0    0  0.12851292652E+03 -0.26862242868E+03  0.31196649317E+03  0.43127331744E+03  0.00000000000E+00 0. -1.
         22    1    1    2    0    0 -0.35268749248E+03  0.52781204102E+03  0.43526034156E+02  0.63629280496E+03  0.00000000000E+00 0. -1.
<mgrwt>
<rscale>  0 0.13748936E+04</rscale>
<asrwt>0</asrwt>
<pdfrwt beam="1">  1        2 0.66716330E-01 0.13748936E+04</pdfrwt>
<pdfrwt beam="2">  1       -2 0.16765609E+00 0.13748936E+04</pdfrwt>
<totfact> 0.15652822E+01</totfact>
</mgrwt>
</event>
<event>
 6    1  0.2238133E-007  0.3771333E+04  0.7818608E-02  0.8052335E-01
         -1   -1    0    0    0  501 -0.00000000000E+00  0.00000000000E+00  0.12321119166E+04  0.12321119166E+04  0.00000000000E+00 0.  1.
          1   -1    0    0  501    0  0.00000000000E+00 -0.00000000000E+00 -0.28858886142E+04  0.28858886142E+04  0.00000000000E+00 0. -1.
         23    2    1    2    0    0  0.77627703541E+03 -0.58903278051E+03  0.93393140573E+03  0.13528967569E+04  0.92391082001E+02 0.  0.
         13    1    3    3    0    0  0.51843389578E+03 -0.40898693718E+03  0.57408151789E+03  0.87499349041E+03  0.00000000000E+00 0. -1.
        -13    1    3    3    0    0  0.25784313963E+03 -0.18004584333E+03  0.35984988783E+03  0.47790326650E+03  0.00000000000E+00 0.  1.
         22    1    1    2    0    0 -0.77627703541E+03  0.58903278051E+03 -0.25877081033E+04  0.27651037739E+04  0.00000000000E+00 0. -1.
<mgrwt>
<rscale>  0 0.37713328E+04</rscale>
<asrwt>0</asrwt>
<pdfrwt beam="1">  1        1 0.44398287E+00 0.37713328E+04</pdfrwt>
<pdfrwt beam="2">  1       -1 0.18955568E+00 0.37713328E+04</pdfrwt>
<totfact> 0.10261299E-01</totfact>
</mgrwt>
</event>
<event>
 6    1  0.2238133E-007  0.9717623E+03  0.7818608E-02  0.9340069E-01
         -2   -1    0    0    0  501 -0.00000000000E+00  0.00000000000E+00  0.51362591646E+03  0.51362591646E+03  0.00000000000E+00 0.  1.
          2   -1    0    0  501    0  0.00000000000E+00 -0.00000000000E+00 -0.45963506945E+03  0.45963506945E+03  0.00000000000E+00 0. -1.
         23    2    1    2    0    0 -0.49719630946E+02  0.42746773296E+03 -0.18904835846E+03  0.47902545520E+03  0.92333095183E+02 0.  0.
         13    1    3    3    0    0 -0.30350575063E+02  0.22473063911E+03 -0.49409296250E+02  0.23209113753E+03  0.00000000000E+00 0.  1.
        -13    1    3    3    0    0 -0.19369055883E+02  0.20273709385E+03 -0.13963906221E+03  0.24693431767E+03  0.00000000000E+00 0. -1.
         22    1    1    2    0    0  0.49719630946E+02 -0.42746773296E+03  0.24303920547E+03  0.49423553071E+03  0.00000000000E+00 0. -1.
<mgrwt>
<rscale>  0 0.97176228E+03</rscale>
<asrwt>0</asrwt>
<pdfrwt beam="1">  1        2 0.70713087E-01 0.97176228E+03</pdfrwt>
<pdfrwt beam="2">  1       -2 0.79019372E-01 0.97176228E+03</pdfrwt>
<totfact> 0.96522821E+01</totfact>
</mgrwt>
</event>
<event>
 6    1  0.2238133E-007  0.3060623E+04  0.7818608E-02  0.8226628E-01
          2   -1    0    0  501    0  0.00000000000E+00  0.00000000000E+00  0.19902413910E+04  0.19902413910E+04  0.00000000000E+00 0. -1.
         -2   -1    0    0    0  501 -0.00000000000E+00 -0.00000000000E+00 -0.11766680774E+04  0.11766680774E+04  0.00000000000E+00 0.  1.
         23    2    1    2    0    0 -0.93254453628E+03  0.11059771016E+04 -0.10353346599E+03  0.14540435931E+04  0.10343563457E+03 0.  0.
         13    1    3    3    0    0 -0.38878366138E+03  0.39420849154E+03 -0.65454000920E+02  0.55752784360E+03  0.00000000000E+00 0.  1.
        -13    1    3    3    0    0 -0.54376087490E+03  0.71176861011E+03 -0.38079465069E+02  0.89651574948E+03  0.00000000000E+00 0. -1.
         22    1    1    2    0    0  0.93254453628E+03 -0.11059771016E+04  0.91710677959E+03  0.17128658753E+04  0.00000000000E+00 0. -1.
<mgrwt>
<rscale>  0 0.30606231E+04</rscale>
<asrwt>0</asrwt>
<pdfrwt beam="1">  1        2 0.30619098E+00 0.30606231E+04</pdfrwt>
<pdfrwt beam="2">  1       -2 0.18102586E+00 0.30606231E+04</pdfrwt>
<totfact> 0.10280774E+00</totfact>
</mgrwt>
</event>
<event>
 6    1  0.2238133E-007  0.3113859E+04  0.7818608E-02  0.8211945E-01
          2   -1    0    0  501    0  0.00000000000E+00  0.00000000000E+00  0.24533991624E+04  0.24533991624E+04  0.00000000000E+00 0. -1.
         -2   -1    0    0    0  501 -0.00000000000E+00 -0.00000000000E+00 -0.98802898140E+03  0.98802898140E+03  0.00000000000E+00 0.  1.
         23    2    1    2    0    0  0.15837324249E+03  0.87918542469E+03  0.21406416645E+04  0.23215885699E+04  0.96838302860E+02 0.  0.
         13    1    3    3    0    0  0.14366765245E+03  0.67364243319E+03  0.15540753993E+04  0.16998778982E+04  0.00000000000E+00 0. -1.
        -13    1    3    3    0    0  0.14705590037E+02  0.20554299150E+03  0.58656626525E+03  0.62171067167E+03  0.00000000000E+00 0.  1.
         22    1    1    2    0    0 -0.15837324249E+03 -0.87918542469E+03 -0.67527148351E+03  0.11198395739E+04  0.00000000000E+00 0.  1.
<mgrwt>
<rscale>  0 0.31138590E+04</rscale>
<asrwt>0</asrwt>
<pdfrwt beam="1">  1        2 0.37744602E+00 0.31138590E+04</pdfrwt>
<pdfrwt beam="2">  1       -2 0.15200446E+00 0.31138590E+04</pdfrwt>
<totfact> 0.90837119E-01</totfact>
</mgrwt>
</event>
<event>
 6    1  0.2238133E-007  0.5910533E+03  0.7818608E-02  0.9924143E-01
          1   -1    0    0  501    0  0.00000000000E+00  0.00000000000E+00  0.60094168922E+03  0.60094168922E+03  0.00000000000E+00 0. -1.
         -1   -1    0    0    0  501 -0.00000000000E+00 -0.00000000000E+00 -0.14533191422E+03  0.14533191422E+03  0.00000000000E+00 0.  1.
         23    2    1    2    0    0  0.18209566076E+03 -0.11272617353E+03 -0.10397330525E+02  0.23341042260E+03  0.92229610378E+02 0.  0.
         13    1    3    3    0    0  0.67145665153E+02 -0.69851658479E+02 -0.43693593301E+02  0.10628699185E+03  0.00000000000E+00 0. -1.
        -13    1    3    3    0    0  0.11494999560E+03 -0.42874515048E+02  0.33296262776E+02  0.12712343075E+03  0.00000000000E+00 0.  1.
         22    1    1    2    0    0 -0.18209566076E+03  0.11272617353E+03  0.46600710552E+03  0.51286318084E+03  0.00000000000E+00 0. -1.
<mgrwt>
<rscale>  0 0.59105332E+03</rscale>
<asrwt>0</asrwt>
<pdfrwt beam="1">  1        1 0.92452566E-01 0.59105332E+03</pdfrwt>
<pdfrwt beam="2">  1       -1 0.22358756E-01 0.59105332E+03</pdfrwt>
<totfact> 0.58457239E+02</totfact>
</mgrwt>
</event>
<event>
 6    1  0.2238133E-007  0.1076098E+04  0.7818608E-02  0.9228807E-01
          2   -1    0    0  501    0  0.00000000000E+00  0.00000000000E+00  0.57122203674E+03  0.57122203674E+03  0.00000000000E+00 0. -1.
         -2   -1    0    0    0  501 -0.00000000000E+00 -0.00000000000E+00 -0.50680231860E+03  0.50680231860E+03  0.00000000000E+00 0.  1.
         23    2    1    2    0    0  0.12634616621E+03 -0.51742971246E+03  0.73638306684E+02  0.54531257264E+03  0.90809364162E+02 0.  0.
         13    1    3    3    0    0  0.25805599062E+02 -0.21000924058E+03 -0.79475627062E+01  0.21173798389E+03  0.00000000000E+00 0. -1.
        -13    1    3    3    0    0  0.10054056715E+03 -0.30742047188E+03  0.81585869390E+02  0.33357458875E+03  0.00000000000E+00 0.  1.
         22    1    1    2    0    0 -0.12634616621E+03  0.51742971246E+03 -0.92185885442E+01  0.53271178270E+03  0.00000000000E+00 0.  1.
<mgrwt>
<rscale>  0 0.10760979E+04</rscale>
<asrwt>0</asrwt>
<pdfrwt beam="1">  1        2 0.87880313E-01 0.10760979E+04</pdfrwt>
<pdfrwt beam="2">  1       -2 0.77969588E-01 0.10760979E+04</pdfrwt>
<totfact> 0.76668179E+01</totfact>
</mgrwt>
</event>
<event>
 6    1  0.2238133E-007  0.2199916E+04  0.7818608E-02  0.8518463E-01
          2   -1    0    0  501    0  0.00000000000E+00  0.00000000000E+00  0.11562231981E+04  0.11562231981E+04  0.00000000000E+00 0. -1.
         -2   -1    0    0    0  501 -0.00000000000E+00 -0.00000000000E+00 -0.10464307410E+04  0.10464307410E+04  0.00000000000E+00 0.  1.
         23    2    1    2    0    0  0.12754291345E+03  0.16385935418E+03 -0.10246787050E+04  0.10493361597E+04  0.89570334485E+02 0.  0.
         13    1    3    3    0    0  0.13138482322E+03  0.10793587933E+03 -0.76094195207E+03  0.77970813786E+03  0.00000000000E+00 0.  1.
        -13    1    3    3    0    0 -0.38419097681E+01  0.55923474843E+02 -0.26373675296E+03  0.26962802185E+03  0.00000000000E+00 0. -1.
         22    1    1    2    0    0 -0.12754291345E+03 -0.16385935418E+03  0.11344711621E+04  0.11533177794E+04  0.00000000000E+00 0. -1.
<mgrwt>
<rscale>  0 0.21999159E+04</rscale>
<asrwt>0</asrwt>
<pdfrwt beam="1">  1        2 0.17788049E+00 0.21999159E+04</pdfrwt>
<pdfrwt beam="2">  1       -2 0.16098934E+00 0.21999159E+04</pdfrwt>
<totfact> 0.45567510E+00</totfact>
</mgrwt>
</event>
<event>
 6    1  0.2238133E-007  0.2157177E+04  0.7818608E-02  0.8536466E-01
         -2   -1    0    0    0  501 -0.00000000000E+00  0.00000000000E+00  0.60064942930E+03  0.60064942930E+03  0.00000000000E+00 0.  1.
          2   -1    0    0  501    0  0.00000000000E+00 -0.00000000000E+00 -0.19368261183E+04  0.19368261183E+04  0.00000000000E+00 0. -1.
         23    2    1    2    0    0  0.10675187021E+04  0.72842978567E+02 -0.81023568724E+03  0.13452019984E+04  0.90466947889E+02 0.  0.
         13    1    3    3    0    0  0.42318024154E+03  0.45909511886E+02 -0.37387951117E+03  0.56654663443E+03  0.00000000000E+00 0.  1.
        -13    1    3    3    0    0  0.64433846058E+03  0.26933466681E+02 -0.43635617607E+03  0.77865536395E+03  0.00000000000E+00 0. -1.
         22    1    1    2    0    0 -0.10675187021E+04 -0.72842978567E+02 -0.52594100180E+03  0.11922735493E+04  0.00000000000E+00 0. -1.
<mgrwt>
<rscale>  0 0.21571773E+04</rscale>
<asrwt>0</asrwt>
<pdfrwt beam="1">  1        2 0.29797324E+00 0.21571773E+04</pdfrwt>
<pdfrwt beam="2">  1       -2 0.92407607E-01 0.21571773E+04</pdfrwt>
<totfact> 0.66051276E+00</totfact>
</mgrwt>
</event>
<event>
 6    1  0.2238133E-007  0.1066419E+04  0.7818608E-02  0.9238555E-01
          2   -1    0    0  501    0  0.00000000000E+00  0.00000000000E+00  0.96201618320E+03  0.96201618320E+03  0.00000000000E+00 0. -1.
         -2   -1    0    0    0  501 -0.00000000000E+00 -0.00000000000E+00 -0.29553801904E+03  0.29553801904E+03  0.00000000000E+00 0.  1.
         23    2    1    2    0    0 -0.34636994424E+03 -0.20962513390E+03 -0.67408451469E+02  0.41939884693E+03  0.86236062315E+02 0.  0.
         11    1    3    3    0    0 -0.20859737380E+03 -0.16781860390E+03 -0.64545826451E+02  0.27539446597E+03  0.00000000000E+00 0. -1.
        -11    1    3    3    0    0 -0.13777257043E+03 -0.41806529997E+02 -0.28626250182E+01  0.14400438096E+03  0.00000000000E+00 0.  1.
         22    1    1    2    0    0  0.34636994424E+03  0.20962513390E+03  0.73388661563E+03  0.83815535530E+03  0.00000000000E+00 0. -1.
<mgrwt>
<rscale>  0 0.10664190E+04</rscale>
<asrwt>0</asrwt>
<pdfrwt beam="1">  1        2 0.14800249E+00 0.10664190E+04</pdfrwt>
<pdfrwt beam="2">  1       -2 0.45467388E-01 0.10664190E+04</pdfrwt>
<totfact> 0.12160816E+02</totfact>
</mgrwt>
</event>
<event>
 6    1  0.2238133E-007  0.1676057E+04  0.7818608E-02  0.8775139E-01
          2   -1    0    0  501    0  0.00000000000E+00  0.00000000000E+00  0.21612280221E+04  0.21612280221E+04  0.00000000000E+00 0. -1.
         -2   -1    0    0    0  501 -0.00000000000E+00 -0.00000000000E+00 -0.32495031132E+03  0.32495031132E+03  0.00000000000E+00 0.  1.
         23    2    1    2    0    0 -0.59292107292E+03  0.14999839803E+03  0.76368482203E+02  0.62302632380E+03  0.90965581124E+02 0.  0.
         13    1    3    3    0    0 -0.23647550078E+03  0.17841953819E+02  0.11930802559E+02  0.23744755597E+03  0.00000000000E+00 0.  1.
        -13    1    3    3    0    0 -0.35644557214E+03  0.13215644421E+03  0.64437679645E+02  0.38557876783E+03  0.00000000000E+00 0. -1.
         22    1    1    2    0    0  0.59292107292E+03 -0.14999839803E+03  0.17599092286E+04  0.18631520096E+04  0.00000000000E+00 0. -1.
<mgrwt>
<rscale>  0 0.16760569E+04</rscale>
<asrwt>0</asrwt>
<pdfrwt beam="1">  1        2 0.33249661E+00 0.16760569E+04</pdfrwt>
<pdfrwt beam="2">  1       -2 0.49992357E-01 0.16760569E+04</pdfrwt>
<totfact> 0.19603288E+01</totfact>
</mgrwt>
</event>
<event>
 6    1  0.2238133E-007  0.2601481E+04  0.7818608E-02  0.8367698E-01
          2   -1    0    0  501    0  0.00000000000E+00  0.00000000000E+00  0.65727705909E+03  0.65727705909E+03  0.00000000000E+00 0. -1.
         -2   -1    0    0    0  501 -0.00000000000E+00 -0.00000000000E+00 -0.25741437850E+04  0.25741437850E+04  0.00000000000E+00 0.  1.
         23    2    1    2    0    0  0.12105630533E+04 -0.14887302489E+03 -0.15175356108E+04  0.19480302477E+04  0.65432653378E+02 0.  0.
         13    1    3    3    0    0  0.45333349068E+03 -0.49162168281E+02 -0.61724380511E+03  0.76740998659E+03  0.00000000000E+00 0.  1.
        -13    1    3    3    0    0  0.75722956260E+03 -0.99710856607E+02 -0.90029180573E+03  0.11806202611E+04  0.00000000000E+00 0. -1.
         22    1    1    2    0    0 -0.12105630533E+04  0.14887302489E+03 -0.39933111506E+03  0.12833905964E+04  0.00000000000E+00 0.  1.
<mgrwt>
<rscale>  0 0.26014809E+04</rscale>
<asrwt>0</asrwt>
<pdfrwt beam="1">  1        2 0.10111955E+00 0.26014809E+04</pdfrwt>
<pdfrwt beam="2">  1       -2 0.39602211E+00 0.26014809E+04</pdfrwt>
<totfact> 0.30908842E-01</totfact>
</mgrwt>
</event>
<event>
 6    1  0.2238133E-007  0.2130305E+04  0.7818608E-02  0.8548010E-01
         -2   -1    0    0    0  501 -0.00000000000E+00  0.00000000000E+00  0.51423018033E+03  0.51423018033E+03  0.00000000000E+00 0.  1.
          2   -1    0    0  501    0  0.00000000000E+00 -0.00000000000E+00 -0.22063079364E+04  0.22063079364E+04  0.00000000000E+00 0. -1.
         23    2    1    2    0    0 -0.59045789305E+03 -0.15611246103E+03  0.26349692611E+03  0.67181071623E+03  0.94272925200E+02 0.  0.
         11    1    3    3    0    0 -0.32911106334E+03 -0.62135410472E+02  0.10002546251E+03  0.34954255019E+03  0.00000000000E+00 0. -1.
        -11    1    3    3    0    0 -0.26134682971E+03 -0.93977050553E+02  0.16347146360E+03  0.32226816604E+03  0.00000000000E+00 0.  1.
         22    1    1    2    0    0  0.59045789305E+03  0.15611246103E+03 -0.19555746822E+04  0.20487274005E+04  0.00000000000E+00 0. -1.
<mgrwt>
<rscale>  0 0.21303053E+04</rscale>
<asrwt>0</asrwt>
<pdfrwt beam="1">  1        2 0.33943198E+00 0.21303053E+04</pdfrwt>
<pdfrwt beam="2">  1       -2 0.79112338E-01 0.21303053E+04</pdfrwt>
<totfact> 0.66730992E+00</totfact>
</mgrwt>
</event>
<event>
 6    1  0.2238133E-007  0.8047491E+03  0.7818608E-02  0.9553168E-01
          4   -1    0    0  501    0  0.00000000000E+00  0.00000000000E+00  0.72129286254E+02  0.72129286254E+02  0.00000000000E+00 0. -1.
         -4   -1    0    0    0  501 -0.00000000000E+00 -0.00000000000E+00 -0.22446538106E+04  0.22446538106E+04  0.00000000000E+00 0.  1.
         23    2    1    2    0    0 -0.19027872650E+03  0.12279277545E+03 -0.20396309318E+04  0.20542097425E+04  0.91647525848E+02 0.  0.
         11    1    3    3    0    0 -0.41091925598E+02  0.68534606734E+02 -0.90609607225E+03  0.90961290163E+03  0.00000000000E+00 0.  1.
        -11    1    3    3    0    0 -0.14918680090E+03  0.54258168717E+02 -0.11335348595E+04  0.11445968409E+04  0.00000000000E+00 0. -1.
         22    1    1    2    0    0  0.19027872650E+03 -0.12279277545E+03 -0.13289359260E+03  0.26257335435E+03  0.00000000000E+00 0. -1.
<mgrwt>
<rscale>  0 0.80474910E+03</rscale>
<asrwt>0</asrwt>
<pdfrwt beam="1">  1        4 0.11096812E-01 0.80474910E+03</pdfrwt>
<pdfrwt beam="2">  1       -4 0.34533138E+00 0.80474910E+03</pdfrwt>
<totfact> 0.21900975E+00</totfact>
</mgrwt>
</event>
<event>
 6    1  0.2238133E-007  0.2088652E+04  0.7818608E-02  0.8566259E-01
          1   -1    0    0  501    0  0.00000000000E+00  0.00000000000E+00  0.27477464814E+04  0.27477464814E+04  0.00000000000E+00 0. -1.
         -1   -1    0    0    0  501 -0.00000000000E+00 -0.00000000000E+00 -0.39691314617E+03  0.39691314617E+03  0.00000000000E+00 0.  1.
         23    2    1    2    0    0 -0.22873804548E+03 -0.10010090359E+04  0.14476858135E+04  0.17771744798E+04  0.90635168628E+02 0.  0.
         11    1    3    3    0    0 -0.82537198655E+02 -0.46055122081E+03  0.59161159506E+03  0.75427057185E+03  0.00000000000E+00 0. -1.
        -11    1    3    3    0    0 -0.14620084682E+03 -0.54045781505E+03  0.85607421844E+03  0.10229039080E+04  0.00000000000E+00 0.  1.
         22    1    1    2    0    0  0.22873804548E+03  0.10010090359E+04  0.90314752175E+03  0.13674851478E+04  0.00000000000E+00 0.  1.
<mgrwt>
<rscale>  0 0.20886519E+04</rscale>
<asrwt>0</asrwt>
<pdfrwt beam="1">  1        1 0.42273022E+00 0.20886519E+04</pdfrwt>
<pdfrwt beam="2">  1       -1 0.61063563E-01 0.20886519E+04</pdfrwt>
<totfact> 0.22749459E+00</totfact>
</mgrwt>
</event>
<event>
 6    1  0.2238133E-007  0.2177835E+04  0.7818608E-02  0.8527711E-01
         -2   -1    0    0    0  501 -0.00000000000E+00  0.00000000000E+00  0.78655381796E+03  0.78655381796E+03  0.00000000000E+00 0.  1.
          2   -1    0    0  501    0  0.00000000000E+00 -0.00000000000E+00 -0.15075150573E+04  0.15075150573E+04  0.00000000000E+00 0. -1.
         23    2    1    2    0    0  0.45879491346E+03  0.85375775598E+03 -0.87910071850E+03  0.13120285638E+04  0.95946862495E+02 0.  0.
         13    1    3    3    0    0  0.10580484097E+03  0.24424430488E+03 -0.29166237608E+03  0.39486312370E+03  0.00000000000E+00 0. -1.
        -13    1    3    3    0    0  0.35299007249E+03  0.60951345109E+03 -0.58743834242E+03  0.91716544008E+03  0.00000000000E+00 0.  1.
         22    1    1    2    0    0 -0.45879491346E+03 -0.85375775598E+03  0.15813947915E+03  0.98204031148E+03  0.00000000000E+00 0.  1.
<mgrwt>
<rscale>  0 0.21778354E+04</rscale>
<asrwt>0</asrwt>
<pdfrwt beam="1">  1        2 0.23192539E+00 0.21778354E+04</pdfrwt>
<pdfrwt beam="2">  1       -2 0.12100828E+00 0.21778354E+04</pdfrwt>
<totfact> 0.59871458E+00</totfact>
</mgrwt>
</event>
<event>
 6    1  0.2238133E-007  0.2359966E+04  0.7818608E-02  0.8454646E-01
         -1   -1    0    0    0  501 -0.00000000000E+00  0.00000000000E+00  0.16830687600E+04  0.16830687600E+04  0.00000000000E+00 0.  1.
          1   -1    0    0  501    0  0.00000000000E+00 -0.00000000000E+00 -0.82727449699E+03  0.82727449699E+03  0.00000000000E+00 0. -1.
         23    2    1    2    0    0 -0.42345035205E+03 -0.59351367324E+03 -0.55623699782E+03  0.92119223756E+03  0.87331894664E+02 0.  0.
         11    1    3    3    0    0 -0.35518896030E+02 -0.31570686836E+02 -0.62665036051E+02  0.78646086906E+02  0.00000000000E+00 0.  1.
        -11    1    3    3    0    0 -0.38793145602E+03 -0.56194298641E+03 -0.49357196177E+03  0.84254615066E+03  0.00000000000E+00 0. -1.
         22    1    1    2    0    0  0.42345035205E+03  0.59351367324E+03  0.14120312608E+04  0.15891510194E+04  0.00000000000E+00 0.  1.
<mgrwt>
<rscale>  0 0.23599660E+04</rscale>
<asrwt>0</asrwt>
<pdfrwt beam="1">  1        1 0.12727300E+00 0.23599660E+04</pdfrwt>
<pdfrwt beam="2">  1       -1 0.25893365E+00 0.23599660E+04</pdfrwt>
<totfact> 0.11479740E+00</totfact>
</mgrwt>
</event>
<event>
 6    1  0.2238133E-007  0.1628782E+04  0.7818608E-02  0.8803059E-01
         -2   -1    0    0    0  501 -0.00000000000E+00  0.00000000000E+00  0.40973408740E+03  0.40973408740E+03  0.00000000000E+00 0.  1.
          2   -1    0    0  501    0  0.00000000000E+00 -0.00000000000E+00 -0.16186903965E+04  0.16186903965E+04  0.00000000000E+00 0. -1.
         23    2    1    2    0    0  0.73238568200E+03 -0.34809641640E+03 -0.55982361456E+03  0.98970741104E+03  0.92511500555E+02 0.  0.
         11    1    3    3    0    0  0.58024894241E+03 -0.31421520485E+03 -0.46535334596E+03  0.80744892515E+03  0.00000000000E+00 0. -1.
        -11    1    3    3    0    0  0.15213673959E+03 -0.33881211545E+02 -0.94470268604E+02  0.18225848589E+03  0.00000000000E+00 0.  1.
         22    1    1    2    0    0 -0.73238568200E+03  0.34809641640E+03 -0.64913269449E+03  0.10387170728E+04  0.00000000000E+00 0. -1.
<mgrwt>
<rscale>  0 0.16287819E+04</rscale>
<asrwt>0</asrwt>
<pdfrwt beam="1">  1        2 0.24902929E+00 0.16287819E+04</pdfrwt>
<pdfrwt beam="2">  1       -2 0.63036014E-01 0.16287819E+04</pdfrwt>
<totfact> 0.24285216E+01</totfact>
</mgrwt>
</event>
<event>
 6    1  0.2238133E-007  0.2865169E+04  0.7818608E-02  0.8283317E-01
         -2   -1    0    0    0  501 -0.00000000000E+00  0.00000000000E+00  0.50289481186E+03  0.50289481186E+03  0.00000000000E+00 0.  1.
          2   -1    0    0  501    0  0.00000000000E+00 -0.00000000000E+00 -0.40809704923E+04  0.40809704923E+04  0.00000000000E+00 0. -1.
         23    2    1    2    0    0 -0.64678653454E+03 -0.39947074450E+03  0.14897030506E+03  0.78008015316E+03  0.91777974439E+02 0.  0.
         13    1    3    3    0    0 -0.52153718765E+03 -0.32924380854E+03  0.15641777450E+03  0.63629320580E+03  0.00000000000E+00 0.  1.
        -13    1    3    3    0    0 -0.12524934690E+03 -0.70226935959E+02 -0.74474694445E+01  0.14378694737E+03  0.00000000000E+00 0. -1.
         22    1    1    2    0    0  0.64678653454E+03  0.39947074450E+03 -0.37270459855E+04  0.38037851510E+04  0.00000000000E+00 0. -1.
<mgrwt>
<rscale>  0 0.28651694E+04</rscale>
<asrwt>0</asrwt>
<pdfrwt beam="1">  1        2 0.62784158E+00 0.28651694E+04</pdfrwt>
<pdfrwt beam="2">  1       -2 0.77368437E-01 0.28651694E+04</pdfrwt>
<totfact> 0.37870511E-01</totfact>
</mgrwt>
</event>
<event>
 6    1  0.2238133E-007  0.3705097E+04  0.7818608E-02  0.8066833E-01
         -1   -1    0    0    0  501 -0.00000000000E+00  0.00000000000E+00  0.21099279333E+04  0.21099279333E+04  0.00000000000E+00 0.  1.
          1   -1    0    0  501    0  0.00000000000E+00 -0.00000000000E+00 -0.16265658742E+04  0.16265658742E+04  0.00000000000E+00 0. -1.
         23    2    1    2    0    0  0.15433089293E+04 -0.24011513334E+03 -0.76053539588E+03  0.17398119082E+04  0.95255756223E+02 0.  0.
         13    1    3    3    0    0  0.11583095172E+04 -0.22104559841E+03 -0.56490953839E+03  0.13075415407E+04  0.00000000000E+00 0. -1.
        -13    1    3    3    0    0  0.38499941213E+03 -0.19069534925E+02 -0.19562585749E+03  0.43227036750E+03  0.00000000000E+00 0.  1.
         22    1    1    2    0    0 -0.15433089293E+04  0.24011513334E+03  0.12438974550E+04  0.19966818993E+04  0.00000000000E+00 0.  1.
<mgrwt>
<rscale>  0 0.37050974E+04</rscale>
<asrwt>0</asrwt>
<pdfrwt beam="1">  1        1 0.25024090E+00 0.37050974E+04</pdfrwt>
<pdfrwt beam="2">  1       -1 0.32460430E+00 0.37050974E+04</pdfrwt>
<totfact> 0.97970252E-02</totfact>
</mgrwt>
</event>
<event>
 6    1  0.2238133E-007  0.1340108E+04  0.7818608E-02  0.8998350E-01
         -2   -1    0    0    0  501 -0.00000000000E+00  0.00000000000E+00  0.15444604466E+03  0.15444604466E+03  0.00000000000E+00 0.  1.
          2   -1    0    0  501    0  0.00000000000E+00 -0.00000000000E+00 -0.29069845538E+04  0.29069845538E+04  0.00000000000E+00 0. -1.
         23    2    1    2    0    0  0.11209584430E+03 -0.64991874208E+03 -0.16092600623E+04  0.17415649021E+04  0.91490492591E+02 0.  0.
         13    1    3    3    0    0  0.38579313222E+02 -0.33736746075E+03 -0.93519713343E+03  0.99493660369E+03  0.00000000000E+00 0. -1.
        -13    1    3    3    0    0  0.73516531077E+02 -0.31255128133E+03 -0.67406292891E+03  0.74662829837E+03  0.00000000000E+00 0.  1.
         22    1    1    2    0    0 -0.11209584430E+03  0.64991874208E+03 -0.11432784468E+04  0.13198656964E+04  0.00000000000E+00 0.  1.
<mgrwt>
<rscale>  0 0.13401079E+04</rscale>
<asrwt>0</asrwt>
<pdfrwt beam="1">  1        2 0.44722836E+00 0.13401079E+04</pdfrwt>
<pdfrwt beam="2">  1       -2 0.23760932E-01 0.13401079E+04</pdfrwt>
<totfact> 0.30860960E+01</totfact>
</mgrwt>
</event>
<event>
 6    1  0.2238133E-007  0.1749876E+04  0.7818608E-02  0.8733418E-01
          2   -1    0    0  501    0  0.00000000000E+00  0.00000000000E+00  0.43267609563E+04  0.43267609563E+04  0.00000000000E+00 0. -1.
         -2   -1    0    0    0  501 -0.00000000000E+00 -0.00000000000E+00 -0.17692608940E+03  0.17692608940E+03  0.00000000000E+00 0.  1.
         23    2    1    2    0    0 -0.20015362938E+03  0.84691005857E+03  0.22505068242E+04  0.24144850123E+04  0.87400149287E+02 0.  0.
         13    1    3    3    0    0 -0.11762696474E+03  0.45718877774E+03  0.13370627343E+04  0.14179543141E+04  0.00000000000E+00 0. -1.
        -13    1    3    3    0    0 -0.82526664632E+02  0.38972128083E+03  0.91344408985E+03  0.99653069817E+03  0.00000000000E+00 0.  1.
         22    1    1    2    0    0  0.20015362938E+03 -0.84691005857E+03  0.18993280428E+04  0.20892020335E+04  0.00000000000E+00 0. -1.
<mgrwt>
<rscale>  0 0.17498764E+04</rscale>
<asrwt>0</asrwt>
<pdfrwt beam="1">  1        2 0.66565545E+00 0.17498764E+04</pdfrwt>
<pdfrwt beam="2">  1       -2 0.27219402E-01 0.17498764E+04</pdfrwt>
<totfact> 0.21329089E+00</totfact>
</mgrwt>
</event>
<event>
 6    1  0.2238133E-007  0.2017898E+04  0.7818608E-02  0.8598298E-01
          2   -1    0    0  501    0  0.00000000000E+00  0.00000000000E+00  0.12778397684E+04  0.12778397684E+04  0.00000000000E+00 0. -1.
         -2   -1    0    0    0  501 -0.00000000000E+00 -0.00000000000E+00 -0.79663979747E+03  0.79663979747E+03  0.00000000000E+00 0.  1.
         23    2    1    2    0    0  0.16105168398E+03 -0.99054209550E+03  0.15648887534E+03  0.10197053799E+04  0.90548361295E+02 0.  0.
         11    1    3    3    0    0  0.15640486729E+03 -0.95759275619E+03  0.13387668170E+03  0.97947400942E+03  0.00000000000E+00 0. -1.
        -11    1    3    3    0    0  0.46468166830E+01 -0.32949339305E+02  0.22612193636E+02  0.40231370434E+02  0.00000000000E+00 0.  1.
         22    1    1    2    0    0 -0.16105168398E+03  0.99054209550E+03  0.32471109557E+03  0.10547741860E+04  0.00000000000E+00 0. -1.
<mgrwt>
<rscale>  0 0.20178979E+04</rscale>
<asrwt>0</asrwt>
<pdfrwt beam="1">  1        2 0.19659073E+00 0.20178979E+04</pdfrwt>
<pdfrwt beam="2">  1       -2 0.12255997E+00 0.20178979E+04</pdfrwt>
<totfact> 0.79616265E+00</totfact>
</mgrwt>
</event>
<event>
 6    1  0.2238133E-007  0.1357133E+04  0.7818608E-02  0.8985446E-01
          2   -1    0    0  501    0  0.00000000000E+00  0.00000000000E+00  0.89482316681E+03  0.89482316681E+03  0.00000000000E+00 0. -1.
         -2   -1    0    0    0  501 -0.00000000000E+00 -0.00000000000E+00 -0.51457397675E+03  0.51457397675E+03  0.00000000000E+00 0.  1.
         23    2    1    2    0    0  0.66882316584E+03  0.60997635233E+02  0.11504272158E+03  0.68733093496E+03  0.90243269457E+02 0.  0.
         11    1    3    3    0    0  0.66779413973E+03  0.53460301721E+02  0.11496396530E+03  0.67972327475E+03  0.00000000000E+00 0. -1.
        -11    1    3    3    0    0  0.10290261113E+01  0.75373335120E+01  0.78756283310E-01  0.76076602028E+01  0.00000000000E+00 0.  1.
         22    1    1    2    0    0 -0.66882316584E+03 -0.60997635233E+02  0.26520646848E+03  0.72206620860E+03  0.00000000000E+00 0. -1.
<mgrwt>
<rscale>  0 0.13571333E+04</rscale>
<asrwt>0</asrwt>
<pdfrwt beam="1">  1        2 0.13766510E+00 0.13571333E+04</pdfrwt>
<pdfrwt beam="2">  1       -2 0.79165227E-01 0.13571333E+04</pdfrwt>
<totfact> 0.40857359E+01</totfact>
</mgrwt>
</event>
<event>
 6    1  0.2238133E-007  0.2480126E+04  0.7818608E-02  0.8410100E-01
          2   -1    0    0  501    0  0.00000000000E+00  0.00000000000E+00  0.17055081100E+04  0.17055081100E+04  0.00000000000E+00 0. -1.
         -2   -1    0    0    0  501 -0.00000000000E+00 -0.00000000000E+00 -0.90164081991E+03  0.90164081991E+03  0.00000000000E+00 0.  1.
         23    2    1    2    0    0  0.50329443550E+03 -0.24299416165E+03 -0.75923139684E+03  0.94714020810E+03  0.91053876709E+02 0.  0.
         11    1    3    3    0    0  0.47140849468E+03 -0.24798359355E+03 -0.69913997733E+03  0.87893033821E+03  0.00000000000E+00 0. -1.
        -11    1    3    3    0    0  0.31885940820E+02  0.49894318977E+01 -0.60091419504E+02  0.68209869892E+02  0.00000000000E+00 0.  1.
         22    1    1    2    0    0 -0.50329443550E+03  0.24299416165E+03  0.15630986869E+04  0.16600087218E+04  0.00000000000E+00 0. -1.
<mgrwt>
<rscale>  0 0.24801256E+04</rscale>
<asrwt>0</asrwt>
<pdfrwt beam="1">  1        2 0.26238586E+00 0.24801256E+04</pdfrwt>
<pdfrwt beam="2">  1       -2 0.13871397E+00 0.24801256E+04</pdfrwt>
<totfact> 0.32007054E+00</totfact>
</mgrwt>
</event>
<event>
 6    1  0.2238133E-007  0.2994734E+04  0.7818608E-02  0.8245236E-01
          2   -1    0    0  501    0  0.00000000000E+00  0.00000000000E+00  0.30150883822E+04  0.30150883822E+04  0.00000000000E+00 0. -1.
         -2   -1    0    0    0  501 -0.00000000000E+00 -0.00000000000E+00 -0.74362931340E+03  0.74362931340E+03  0.00000000000E+00 0.  1.
         23    2    1    2    0    0  0.97163681989E+03  0.54200424658E+03  0.23918952986E+04  0.26396325342E+04  0.93005823339E+02 0.  0.
         11    1    3    3    0    0  0.36565393419E+03  0.15640410728E+03  0.81477839807E+03  0.90665808457E+03  0.00000000000E+00 0. -1.
        -11    1    3    3    0    0  0.60598288570E+03  0.38560013930E+03  0.15771169005E+04  0.17329744496E+04  0.00000000000E+00 0.  1.
         22    1    1    2    0    0 -0.97163681989E+03 -0.54200424658E+03 -0.12043622976E+03  0.11190851614E+04  0.00000000000E+00 0.  1.
<mgrwt>
<rscale>  0 0.29947341E+04</rscale>
<asrwt>0</asrwt>
<pdfrwt beam="1">  1        2 0.46385975E+00 0.29947341E+04</pdfrwt>
<pdfrwt beam="2">  1       -2 0.11440451E+00 0.29947341E+04</pdfrwt>
<totfact> 0.87069229E-01</totfact>
</mgrwt>
</event>
<event>
 6    1  0.2238133E-007  0.3622975E+04  0.7818608E-02  0.8085249E-01
         -2   -1    0    0    0  501 -0.00000000000E+00  0.00000000000E+00  0.17690830270E+04  0.17690830270E+04  0.00000000000E+00 0.  1.
          2   -1    0    0  501    0  0.00000000000E+00 -0.00000000000E+00 -0.18549087734E+04  0.18549087734E+04  0.00000000000E+00 0. -1.
         23    2    1    2    0    0 -0.10848943765E+04  0.13466244553E+04 -0.57880116604E+03  0.18258210643E+04  0.90656148567E+02 0.  0.
         11    1    3    3    0    0 -0.34377589419E+03  0.42127622661E+03 -0.13804195187E+03  0.56099118087E+03  0.00000000000E+00 0.  1.
        -11    1    3    3    0    0 -0.74111848233E+03  0.92534822864E+03 -0.44075921418E+03  0.12648298834E+04  0.00000000000E+00 0. -1.
         22    1    1    2    0    0  0.10848943765E+04 -0.13466244553E+04  0.49297541964E+03  0.17981707361E+04  0.00000000000E+00 0. -1.
<mgrwt>
<rscale>  0 0.36229754E+04</rscale>
<asrwt>0</asrwt>
<pdfrwt beam="1">  1        2 0.28537058E+00 0.36229754E+04</pdfrwt>
<pdfrwt beam="2">  1       -2 0.27216662E+00 0.36229754E+04</pdfrwt>
<totfact> 0.30765073E-01</totfact>
</mgrwt>
</event>
<event>
 6    1  0.2238133E-007  0.1799054E+04  0.7818608E-02  0.8706803E-01
          2   -1    0    0  501    0  0.00000000000E+00  0.00000000000E+00  0.37529331616E+04  0.37529331616E+04  0.00000000000E+00 0. -1.
         -2   -1    0    0    0  501 -0.00000000000E+00 -0.00000000000E+00 -0.21560436549E+03  0.21560436549E+03  0.00000000000E+00 0.  1.
         23    2    1    2    0    0 -0.63456383715E+03  0.49136118291E+03  0.89242437236E+03  0.12045501020E+04  0.10204220819E+03 0.  0.
         13    1    3    3    0    0 -0.19665983645E+03  0.14095378503E+03  0.34021138431E+03  0.41747676199E+03  0.00000000000E+00 0. -1.
        -13    1    3    3    0    0 -0.43790400069E+03  0.35040739788E+03  0.55221298806E+03  0.78707333997E+03  0.00000000000E+00 0.  1.
         22    1    1    2    0    0  0.63456383715E+03 -0.49136118291E+03  0.26449044238E+04  0.27639874251E+04  0.00000000000E+00 0. -1.
<mgrwt>
<rscale>  0 0.17990539E+04</rscale>
<asrwt>0</asrwt>
<pdfrwt beam="1">  1        2 0.57737428E+00 0.17990539E+04</pdfrwt>
<pdfrwt beam="2">  1       -2 0.33169905E-01 0.17990539E+04</pdfrwt>
<totfact> 0.43195458E+00</totfact>
</mgrwt>
</event>
<event>
 6    1  0.2238133E-007  0.5411136E+04  0.7818608E-02  0.7768037E-01
          2   -1    0    0  501    0  0.00000000000E+00  0.00000000000E+00  0.38531289235E+04  0.38531289235E+04  0.00000000000E+00 0. -1.
         -2   -1    0    0    0  501 -0.00000000000E+00 -0.00000000000E+00 -0.18997803020E+04  0.18997803020E+04  0.00000000000E+00 0.  1.
         23    2    1    2    0    0  0.10459524241E+04 -0.23398835793E+04  0.58389438066E+02  0.25654428422E+04  0.94952682912E+02 0.  0.
         13    1    3    3    0    0  0.14234865904E+03 -0.27584769934E+03 -0.18566638532E+02  0.31096593709E+03  0.00000000000E+00 0. -1.
        -13    1    3    3    0    0  0.90360376502E+03 -0.20640358799E+04  0.76956076598E+02  0.22544769051E+04  0.00000000000E+00 0.  1.
         22    1    1    2    0    0 -0.10459524241E+04  0.23398835793E+04  0.18949591835E+04  0.31874663834E+04  0.00000000000E+00 0. -1.
<mgrwt>
<rscale>  0 0.54111361E+04</rscale>
<asrwt>0</asrwt>
<pdfrwt beam="1">  1        2 0.59278906E+00 0.54111361E+04</pdfrwt>
<pdfrwt beam="2">  1       -2 0.29227389E+00 0.54111361E+04</pdfrwt>
<totfact> 0.11122235E-02</totfact>
</mgrwt>
</event>
<event>
 6    1  0.2238133E-007  0.5712595E+04  0.7818608E-02  0.7727095E-01
          1   -1    0    0  501    0  0.00000000000E+00  0.00000000000E+00  0.35055319723E+04  0.35055319723E+04  0.00000000000E+00 0. -1.
         -1   -1    0    0    0  501 -0.00000000000E+00 -0.00000000000E+00 -0.23273029681E+04  0.23273029681E+04  0.00000000000E+00 0.  1.
         23    2    1    2    0    0  0.10583851254E+04 -0.29057218449E+03 -0.21024187167E+04  0.23734620584E+04  0.92446817356E+02 0.  0.
         11    1    3    3    0    0  0.29540047157E+03 -0.59810225516E+02 -0.50220395911E+03  0.58570258513E+03  0.00000000000E+00 0. -1.
        -11    1    3    3    0    0  0.76298465379E+03 -0.23076195898E+03 -0.16002147576E+04  0.17877594732E+04  0.00000000000E+00 0.  1.
         22    1    1    2    0    0 -0.10583851254E+04  0.29057218449E+03  0.32806477209E+04  0.34593728820E+04  0.00000000000E+00 0. -1.
<mgrwt>
<rscale>  0 0.57125948E+04</rscale>
<asrwt>0</asrwt>
<pdfrwt beam="1">  1        1 0.53931261E+00 0.57125948E+04</pdfrwt>
<pdfrwt beam="2">  1       -1 0.35804661E+00 0.57125948E+04</pdfrwt>
<totfact> 0.23181211E-03</totfact>
</mgrwt>
</event>
<event>
 6    1  0.2238133E-007  0.4085673E+04  0.7818608E-02  0.7987483E-01
          2   -1    0    0  501    0  0.00000000000E+00  0.00000000000E+00  0.26055554639E+04  0.26055554639E+04  0.00000000000E+00 0. -1.
         -2   -1    0    0    0  501 -0.00000000000E+00 -0.00000000000E+00 -0.16016469983E+04  0.16016469983E+04  0.00000000000E+00 0.  1.
         23    2    1    2    0    0 -0.94229386253E+03 -0.14360658241E+04  0.16387596603E+04  0.23760173776E+04  0.98603144018E+02 0.  0.
         11    1    3    3    0    0 -0.20890621454E+03 -0.38141234955E+03  0.44988225355E+03  0.62570858147E+03  0.00000000000E+00 0. -1.
        -11    1    3    3    0    0 -0.73338764799E+03 -0.10546534746E+04  0.11888774067E+04  0.17503087962E+04  0.00000000000E+00 0.  1.
         22    1    1    2    0    0  0.94229386253E+03  0.14360658241E+04 -0.63485119472E+03  0.18311850846E+04  0.00000000000E+00 0.  1.
<mgrwt>
<rscale>  0 0.40856726E+04</rscale>
<asrwt>0</asrwt>
<pdfrwt beam="1">  1        2 0.40085468E+00 0.40856726E+04</pdfrwt>
<pdfrwt beam="2">  1       -2 0.24640723E+00 0.40856726E+04</pdfrwt>
<totfact> 0.16000958E-01</totfact>
</mgrwt>
</event>
<event>
 6    1  0.2238133E-007  0.1604096E+04  0.7818608E-02  0.8818036E-01
         -2   -1    0    0    0  501 -0.00000000000E+00  0.00000000000E+00  0.30727725064E+03  0.30727725064E+03  0.00000000000E+00 0.  1.
          2   -1    0    0  501    0  0.00000000000E+00 -0.00000000000E+00 -0.20934868689E+04  0.20934868689E+04  0.00000000000E+00 0. -1.
         23    2    1    2    0    0  0.37026374701E+03  0.55170421918E+03 -0.23060206432E+03  0.70920044954E+03  0.91187596467E+02 0.  0.
         13    1    3    3    0    0  0.16872148755E+03  0.21480265994E+03 -0.13717229806E+03  0.30565235551E+03  0.00000000000E+00 0. -1.
        -13    1    3    3    0    0  0.20154225947E+03  0.33690155924E+03 -0.93429766261E+02  0.40354809403E+03  0.00000000000E+00 0.  1.
         22    1    1    2    0    0 -0.37026374701E+03 -0.55170421918E+03 -0.15556075539E+04  0.16915636700E+04  0.00000000000E+00 0. -1.
<mgrwt>
<rscale>  0 0.16040959E+04</rscale>
<asrwt>0</asrwt>
<pdfrwt beam="1">  1        2 0.32207489E+00 0.16040959E+04</pdfrwt>
<pdfrwt beam="2">  1       -2 0.47273424E-01 0.16040959E+04</pdfrwt>
<totfact> 0.24100570E+01</totfact>
</mgrwt>
</event>
<event>
 6    1  0.2238133E-007  0.2827647E+04  0.7818608E-02  0.8294736E-01
         -2   -1    0    0    0  501 -0.00000000000E+00  0.00000000000E+00  0.87481321831E+03  0.87481321831E+03  0.00000000000E+00 0.  1.
          2   -1    0    0  501    0  0.00000000000E+00 -0.00000000000E+00 -0.22849412267E+04  0.22849412267E+04  0.00000000000E+00 0. -1.
         23    2    1    2    0    0  0.13257814095E+04 -0.46991687409E+03 -0.56321368619E+03  0.15178707452E+04  0.90574436065E+02 0.  0.
         11    1    3    3    0    0  0.63077980832E+03 -0.24154722133E+03 -0.31560354476E+03  0.74554263740E+03  0.00000000000E+00 0.  1.
        -11    1    3    3    0    0  0.69500160122E+03 -0.22836965276E+03 -0.24761014143E+03  0.77232810783E+03  0.00000000000E+00 0. -1.
         22    1    1    2    0    0 -0.13257814095E+04  0.46991687409E+03 -0.84691432220E+03  0.16418836998E+04  0.00000000000E+00 0. -1.
<mgrwt>
<rscale>  0 0.28276469E+04</rscale>
<asrwt>0</asrwt>
<pdfrwt beam="1">  1        2 0.35152941E+00 0.28276469E+04</pdfrwt>
<pdfrwt beam="2">  1       -2 0.13458665E+00 0.28276469E+04</pdfrwt>
<totfact> 0.15959840E+00</totfact>
</mgrwt>
</event>
<event>
 6    1  0.2238133E-007  0.1555651E+04  0.7818608E-02  0.8848266E-01
          1   -1    0    0  501    0  0.00000000000E+00  0.00000000000E+00  0.37618628813E+03  0.37618628813E+03  0.00000000000E+00 0. -1.
         -1   -1    0    0    0  501 -0.00000000000E+00 -0.00000000000E+00 -0.16082799266E+04  0.16082799266E+04  0.00000000000E+00 0.  1.
         23    2    1    2    0    0 -0.23943917302E+02  0.72050629007E+03 -0.25468079388E+03  0.76995458696E+03  0.90912782384E+02 0.  0.
         13    1    3    3    0    0  0.20982991105E+02  0.54410864214E+03 -0.18616931258E+03  0.57545939328E+03  0.00000000000E+00 0. -1.
        -13    1    3    3    0    0 -0.44926908407E+02  0.17639764793E+03 -0.68511481297E+02  0.19449519368E+03  0.00000000000E+00 0.  1.
         22    1    1    2    0    0  0.23943917302E+02 -0.72050629007E+03 -0.97741284458E+03  0.12145116278E+04  0.00000000000E+00 0. -1.
<mgrwt>
<rscale>  0 0.15556514E+04</rscale>
<asrwt>0</asrwt>
<pdfrwt beam="1">  1        1 0.57874814E-01 0.15556514E+04</pdfrwt>
<pdfrwt beam="2">  1       -1 0.24742768E+00 0.15556514E+04</pdfrwt>
<totfact> 0.45455528E+00</totfact>
</mgrwt>
</event>
<event>
 6    1  0.2238133E-007  0.2144367E+04  0.7818608E-02  0.8541947E-01
         -2   -1    0    0    0  501 -0.00000000000E+00  0.00000000000E+00  0.72726657166E+03  0.72726657166E+03  0.00000000000E+00 0.  1.
          2   -1    0    0  501    0  0.00000000000E+00 -0.00000000000E+00 -0.15806827215E+04  0.15806827215E+04  0.00000000000E+00 0. -1.
         23    2    1    2    0    0  0.49741447245E+03 -0.83338811523E+03 -0.91305024527E+03  0.13355742969E+04  0.90227734557E+02 0.  0.
         13    1    3    3    0    0  0.66659120293E+02 -0.18029300413E+03 -0.17082094660E+03  0.25715520888E+03  0.00000000000E+00 0. -1.
        -13    1    3    3    0    0  0.43075535216E+03 -0.65309511110E+03 -0.74222929867E+03  0.10784190880E+04  0.00000000000E+00 0.  1.
         22    1    1    2    0    0 -0.49741447245E+03  0.83338811523E+03  0.59634095455E+02  0.97237499626E+03  0.00000000000E+00 0.  1.
<mgrwt>
<rscale>  0 0.21443672E+04</rscale>
<asrwt>0</asrwt>
<pdfrwt beam="1">  1        2 0.24318196E+00 0.21443672E+04</pdfrwt>
<pdfrwt beam="2">  1       -2 0.11188716E+00 0.21443672E+04</pdfrwt>
<totfact> 0.66193920E+00</totfact>
</mgrwt>
</event>
<event>
 6    1  0.2238133E-007  0.1783060E+04  0.7818608E-02  0.8715360E-01
          2   -1    0    0  501    0  0.00000000000E+00  0.00000000000E+00  0.33911589241E+04  0.33911589241E+04  0.00000000000E+00 0. -1.
         -2   -1    0    0    0  501 -0.00000000000E+00 -0.00000000000E+00 -0.23438179583E+03  0.23438179583E+03  0.00000000000E+00 0.  1.
         23    2    1    2    0    0 -0.22900289894E+03  0.21325818135E+03  0.32748998858E+04  0.32910644645E+04  0.90634803614E+02 0.  0.
         11    1    3    3    0    0 -0.17803923548E+03  0.11694638527E+03  0.19165767689E+04  0.19283777995E+04  0.00000000000E+00 0.  1.
        -11    1    3    3    0    0 -0.50963663464E+02  0.96311796081E+02  0.13583231169E+04  0.13626866650E+04  0.00000000000E+00 0. -1.
         22    1    1    2    0    0  0.22900289894E+03 -0.21325818135E+03 -0.11812275751E+03  0.33447625548E+03  0.00000000000E+00 0.  1.
<mgrwt>
<rscale>  0 0.17830602E+04</rscale>
<asrwt>0</asrwt>
<pdfrwt beam="1">  1        2 0.52171672E+00 0.17830602E+04</pdfrwt>
<pdfrwt beam="2">  1       -2 0.36058740E-01 0.17830602E+04</pdfrwt>
<totfact> 0.66608062E+00</totfact>
</mgrwt>
</event>
<event>
 6    1  0.2238133E-007  0.2889612E+04  0.7818608E-02  0.8275975E-01
         -2   -1    0    0    0  501 -0.00000000000E+00  0.00000000000E+00  0.10564224158E+04  0.10564224158E+04  0.00000000000E+00 0.  1.
          2   -1    0    0  501    0  0.00000000000E+00 -0.00000000000E+00 -0.19759755599E+04  0.19759755599E+04  0.00000000000E+00 0. -1.
         23    2    1    2    0    0 -0.28423433473E+03  0.13035398195E+04 -0.10379169418E+04  0.16929894470E+04  0.94532912241E+02 0.  0.
         11    1    3    3    0    0 -0.11466695403E+03  0.72034873046E+03 -0.53802303970E+03  0.90637718146E+03  0.00000000000E+00 0.  1.
        -11    1    3    3    0    0 -0.16956738071E+03  0.58319108905E+03 -0.49989390210E+03  0.78661226554E+03  0.00000000000E+00 0. -1.
         22    1    1    2    0    0  0.28423433473E+03 -0.13035398195E+04  0.11836379767E+03  0.13394085287E+04  0.00000000000E+00 0.  1.
<mgrwt>
<rscale>  0 0.28896123E+04</rscale>
<asrwt>0</asrwt>
<pdfrwt beam="1">  1        2 0.30399624E+00 0.28896123E+04</pdfrwt>
<pdfrwt beam="2">  1       -2 0.16252653E+00 0.28896123E+04</pdfrwt>
<totfact> 0.14364434E+00</totfact>
</mgrwt>
</event>
<event>
 6    1  0.2238133E-007  0.1555991E+04  0.7818608E-02  0.8848050E-01
          1   -1    0    0  501    0  0.00000000000E+00  0.00000000000E+00  0.52403077640E+03  0.52403077640E+03  0.00000000000E+00 0. -1.
         -1   -1    0    0    0  501 -0.00000000000E+00 -0.00000000000E+00 -0.11550404354E+04  0.11550404354E+04  0.00000000000E+00 0.  1.
         23    2    1    2    0    0 -0.30576601643E+03  0.59699455132E+03  0.10313905476E+03  0.68465194155E+03  0.90638100961E+02 0.  0.
         11    1    3    3    0    0 -0.10515482121E+03  0.19018554492E+03 -0.86611932553E+01  0.21749274514E+03  0.00000000000E+00 0.  1.
        -11    1    3    3    0    0 -0.20061119522E+03  0.40680900640E+03  0.11180024802E+03  0.46715919641E+03  0.00000000000E+00 0. -1.
         22    1    1    2    0    0  0.30576601643E+03 -0.59699455132E+03 -0.73414871379E+03  0.99441927026E+03  0.00000000000E+00 0.  1.
<mgrwt>
<rscale>  0 0.15559907E+04</rscale>
<asrwt>0</asrwt>
<pdfrwt beam="1">  1        1 0.80620119E-01 0.15559907E+04</pdfrwt>
<pdfrwt beam="2">  1       -1 0.17769853E+00 0.15559907E+04</pdfrwt>
<totfact> 0.86440868E+00</totfact>
</mgrwt>
</event>
<event>
 6    1  0.2238133E-007  0.2005190E+04  0.7818608E-02  0.8604198E-01
          2   -1    0    0  501    0  0.00000000000E+00  0.00000000000E+00  0.25387500015E+04  0.25387500015E+04  0.00000000000E+00 0. -1.
         -2   -1    0    0    0  501 -0.00000000000E+00 -0.00000000000E+00 -0.39594141458E+03  0.39594141458E+03  0.00000000000E+00 0.  1.
         23    2    1    2    0    0 -0.40551346598E+03  0.51903469222E+03 -0.28989838149E+02  0.66520984930E+03  0.88462139171E+02 0.  0.
         13    1    3    3    0    0 -0.22051842537E+03  0.28380236191E+03  0.28286063297E+02  0.36051665416E+03  0.00000000000E+00 0.  1.
        -13    1    3    3    0    0 -0.18499504061E+03  0.23523233031E+03 -0.57275901446E+02  0.30469319513E+03  0.00000000000E+00 0. -1.
         22    1    1    2    0    0  0.40551346598E+03 -0.51903469222E+03  0.21717984250E+04  0.22694815668E+04  0.00000000000E+00 0. -1.
<mgrwt>
<rscale>  0 0.20051895E+04</rscale>
<asrwt>0</asrwt>
<pdfrwt beam="1">  1        2 0.39057691E+00 0.20051895E+04</pdfrwt>
<pdfrwt beam="2">  1       -2 0.60914066E-01 0.20051895E+04</pdfrwt>
<totfact> 0.77035123E+00</totfact>
</mgrwt>
</event>
<event>
 6    1  0.2238133E-007  0.2382013E+04  0.7818608E-02  0.8446268E-01
         -1   -1    0    0    0  501 -0.00000000000E+00  0.00000000000E+00  0.15844229731E+04  0.15844229731E+04  0.00000000000E+00 0.  1.
          1   -1    0    0  501    0  0.00000000000E+00 -0.00000000000E+00 -0.89527639915E+03  0.89527639915E+03  0.00000000000E+00 0. -1.
         23    2    1    2    0    0 -0.96630208852E+03  0.46085116818E+03 -0.19415867721E+03  0.10917686491E+04  0.90209011603E+02 0.  0.
         11    1    3    3    0    0 -0.57477310678E+03  0.28164349652E+03 -0.71519343569E+02  0.64405139540E+03  0.00000000000E+00 0.  1.
        -11    1    3    3    0    0 -0.39152898174E+03  0.17920767166E+03 -0.12263933364E+03  0.44771725372E+03  0.00000000000E+00 0. -1.
         22    1    1    2    0    0  0.96630208852E+03 -0.46085116818E+03  0.88330525120E+03  0.13879307232E+04  0.00000000000E+00 0.  1.
<mgrwt>
<rscale>  0 0.23820130E+04</rscale>
<asrwt>0</asrwt>
<pdfrwt beam="1">  1        1 0.13773483E+00 0.23820130E+04</pdfrwt>
<pdfrwt beam="2">  1       -1 0.24375738E+00 0.23820130E+04</pdfrwt>
<totfact> 0.12621348E+00</totfact>
</mgrwt>
</event>
<event>
 6    1  0.2238133E-007  0.3524028E+04  0.7818608E-02  0.8108119E-01
         -2   -1    0    0    0  501 -0.00000000000E+00  0.00000000000E+00  0.85493710397E+03  0.85493710397E+03  0.00000000000E+00 0.  1.
          2   -1    0    0  501    0  0.00000000000E+00 -0.00000000000E+00 -0.36314881162E+04  0.36314881162E+04  0.00000000000E+00 0. -1.
         23    2    1    2    0    0 -0.11108205359E+04 -0.13119259994E+04 -0.18748133407E+04  0.25452392634E+04  0.90806135803E+02 0.  0.
         13    1    3    3    0    0 -0.16078250837E+03 -0.23874833193E+03 -0.29567549860E+03  0.41264486120E+03  0.00000000000E+00 0. -1.
        -13    1    3    3    0    0 -0.95003802753E+03 -0.10731776674E+04 -0.15791378421E+04  0.21325944022E+04  0.00000000000E+00 0.  1.
         22    1    1    2    0    0  0.11108205359E+04  0.13119259994E+04 -0.90173767150E+03  0.19411859568E+04  0.00000000000E+00 0.  1.
<mgrwt>
<rscale>  0 0.35240283E+04</rscale>
<asrwt>0</asrwt>
<pdfrwt beam="1">  1        2 0.55869049E+00 0.35240283E+04</pdfrwt>
<pdfrwt beam="2">  1       -2 0.13152878E+00 0.35240283E+04</pdfrwt>
<totfact> 0.22610135E-01</totfact>
</mgrwt>
</event>
<event>
 6    1  0.2238133E-007  0.6720035E+03  0.7818608E-02  0.9766345E-01
          2   -1    0    0  501    0  0.00000000000E+00  0.00000000000E+00  0.52310873379E+03  0.52310873379E+03  0.00000000000E+00 0. -1.
         -2   -1    0    0    0  501 -0.00000000000E+00 -0.00000000000E+00 -0.21581971541E+03  0.21581971541E+03  0.00000000000E+00 0.  1.
         23    2    1    2    0    0 -0.23144159738E+03  0.23500680420E+03  0.13719844578E+03  0.36781631802E+03  0.87590063688E+02 0.  0.
         13    1    3    3    0    0 -0.12214330952E+03  0.15911909621E+03  0.43998809351E+02  0.20536253325E+03  0.00000000000E+00 0. -1.
        -13    1    3    3    0    0 -0.10929828787E+03  0.75887707982E+02  0.93199636432E+02  0.16245378477E+03  0.00000000000E+00 0.  1.
         22    1    1    2    0    0  0.23144159738E+03 -0.23500680420E+03  0.17009057260E+03  0.37111213118E+03  0.00000000000E+00 0. -1.
<mgrwt>
<rscale>  0 0.67200351E+03</rscale>
<asrwt>0</asrwt>
<pdfrwt beam="1">  1        2 0.80478266E-01 0.67200351E+03</pdfrwt>
<pdfrwt beam="2">  1       -2 0.33203033E-01 0.67200351E+03</pdfrwt>
<totfact> 0.49814689E+02</totfact>
</mgrwt>
</event>
<event>
 6    1  0.2238133E-007  0.2423792E+04  0.7818608E-02  0.8430649E-01
         -2   -1    0    0    0  501 -0.00000000000E+00  0.00000000000E+00  0.11478141123E+04  0.11478141123E+04  0.00000000000E+00 0.  1.
          2   -1    0    0  501    0  0.00000000000E+00 -0.00000000000E+00 -0.12795560264E+04  0.12795560264E+04  0.00000000000E+00 0. -1.
         23    2    1    2    0    0  0.85937139108E+03  0.52746652811E+03 -0.73588061944E+03  0.12519026991E+04  0.94868097580E+02 0.  0.
         11    1    3    3    0    0  0.25089352219E+03  0.10912267312E+03 -0.17743560638E+03  0.32609616937E+03  0.00000000000E+00 0.  1.
        -11    1    3    3    0    0  0.60847786889E+03  0.41834385499E+03 -0.55844501306E+03  0.92580652976E+03  0.00000000000E+00 0. -1.
         22    1    1    2    0    0 -0.85937139108E+03 -0.52746652811E+03  0.60413870541E+03  0.11754674396E+04  0.00000000000E+00 0.  1.
<mgrwt>
<rscale>  0 0.24237925E+04</rscale>
<asrwt>0</asrwt>
<pdfrwt beam="1">  1        2 0.19685477E+00 0.24237925E+04</pdfrwt>
<pdfrwt beam="2">  1       -2 0.17658679E+00 0.24237925E+04</pdfrwt>
<totfact> 0.29209265E+00</totfact>
</mgrwt>
</event>
<event>
 6    1  0.2238133E-007  0.3807264E+04  0.7818608E-02  0.8044598E-01
          2   -1    0    0  501    0  0.00000000000E+00  0.00000000000E+00  0.14227665016E+04  0.14227665016E+04  0.00000000000E+00 0. -1.
         -2   -1    0    0    0  501 -0.00000000000E+00 -0.00000000000E+00 -0.25470199897E+04  0.25470199897E+04  0.00000000000E+00 0.  1.
         23    2    1    2    0    0 -0.58576037197E+03  0.46515648453E+03  0.12624226844E+04  0.14686449678E+04  0.61001958193E+02 0.  0.
         13    1    3    3    0    0 -0.48981515082E+03  0.41567990955E+03  0.10724409568E+04  0.12501353027E+04  0.00000000000E+00 0.  1.
        -13    1    3    3    0    0 -0.95945221153E+02  0.49476574986E+02  0.18998172759E+03  0.21850966513E+03  0.00000000000E+00 0. -1.
         22    1    1    2    0    0  0.58576037197E+03 -0.46515648453E+03 -0.23866761725E+04  0.25011415236E+04  0.00000000000E+00 0.  1.
<mgrwt>
<rscale>  0 0.38072640E+04</rscale>
<asrwt>0</asrwt>
<pdfrwt beam="1">  1        2 0.21888715E+00 0.38072640E+04</pdfrwt>
<pdfrwt beam="2">  1       -2 0.39184923E+00 0.38072640E+04</pdfrwt>
<totfact> 0.94349065E-02</totfact>
</mgrwt>
</event>
<event>
 6    1  0.2238133E-007  0.3633435E+04  0.7818608E-02  0.8082876E-01
          2   -1    0    0  501    0  0.00000000000E+00  0.00000000000E+00  0.30466969923E+04  0.30466969923E+04  0.00000000000E+00 0. -1.
         -2   -1    0    0    0  501 -0.00000000000E+00 -0.00000000000E+00 -0.10832918748E+04  0.10832918748E+04  0.00000000000E+00 0.  1.
         23    2    1    2    0    0  0.16759547791E+04  0.56294460109E+03  0.51159414992E+03  0.18423074795E+04  0.81469192012E+02 0.  0.
         11    1    3    3    0    0  0.39515589928E+03  0.10563417367E+03  0.14215336760E+03  0.43302926380E+03  0.00000000000E+00 0.  1.
        -11    1    3    3    0    0  0.12807988799E+04  0.45731042742E+03  0.36944078232E+03  0.14092782157E+04  0.00000000000E+00 0. -1.
         22    1    1    2    0    0 -0.16759547791E+04 -0.56294460109E+03  0.14518109676E+04  0.22876813876E+04  0.00000000000E+00 0. -1.
<mgrwt>
<rscale>  0 0.36334348E+04</rscale>
<asrwt>0</asrwt>
<pdfrwt beam="1">  1        2 0.46872261E+00 0.36334348E+04</pdfrwt>
<pdfrwt beam="2">  1       -2 0.16666029E+00 0.36334348E+04</pdfrwt>
<totfact> 0.29760824E-01</totfact>
</mgrwt>
</event>
<event>
 6    1  0.2395144E-007  0.2403016E+04  0.7818608E-02  0.8438375E-01
          2   -1    0    0  501    0  0.00000000000E+00  0.00000000000E+00  0.16826306341E+04  0.16826306341E+04  0.00000000000E+00 0. -1.
         -2   -1    0    0    0  501 -0.00000000000E+00 -0.00000000000E+00 -0.85795513848E+03  0.85795513848E+03  0.00000000000E+00 0.  1.
         23    2    1    2    0    0 -0.73595240014E+03  0.15584773663E+03  0.14010814028E+04  0.15928736739E+04  0.91120752786E+02 0.  0.
         11    1    3    3    0    0 -0.21485407553E+03  0.47577612707E+02  0.32687676876E+03  0.39404863273E+03  0.00000000000E+00 0.  1.
        -11    1    3    3    0    0 -0.52109832460E+03  0.10827012392E+03  0.10742046340E+04  0.11988250412E+04  0.00000000000E+00 0. -1.
         22    1    1    2    0    0  0.73595240014E+03 -0.15584773663E+03 -0.57640590712E+03  0.94771209871E+03  0.00000000000E+00 0.  1.
<mgrwt>
<rscale>  0 0.24030161E+04</rscale>
<asrwt>0</asrwt>
<pdfrwt beam="1">  1        2 0.25886625E+00 0.24030161E+04</pdfrwt>
<pdfrwt beam="2">  1       -2 0.13199310E+00 0.24030161E+04</pdfrwt>
<totfact> 0.37674328E+00</totfact>
</mgrwt>
</event>
<event>
 6    1  0.2238133E-007  0.2311161E+04  0.7818608E-02  0.8473533E-01
          2   -1    0    0  501    0  0.00000000000E+00  0.00000000000E+00  0.18664732537E+04  0.18664732537E+04  0.00000000000E+00 0. -1.
         -2   -1    0    0    0  501 -0.00000000000E+00 -0.00000000000E+00 -0.71544903865E+03  0.71544903865E+03  0.00000000000E+00 0.  1.
         23    2    1    2    0    0  0.15727320635E+03  0.52090552120E+03 -0.55994514495E+03  0.78651326533E+03  0.94800462752E+02 0.  0.
         13    1    3    3    0    0  0.84113056824E+02  0.31541171215E+03 -0.26967383409E+03  0.42341886033E+03  0.00000000000E+00 0. -1.
        -13    1    3    3    0    0  0.73160149523E+02  0.20549380905E+03 -0.29027131085E+03  0.36309440500E+03  0.00000000000E+00 0.  1.
         22    1    1    2    0    0 -0.15727320635E+03 -0.52090552120E+03  0.17109693600E+04  0.17954090271E+04  0.00000000000E+00 0. -1.
<mgrwt>
<rscale>  0 0.23111612E+04</rscale>
<asrwt>0</asrwt>
<pdfrwt beam="1">  1        2 0.28714973E+00 0.23111612E+04</pdfrwt>
<pdfrwt beam="2">  1       -2 0.11006908E+00 0.23111612E+04</pdfrwt>
<totfact> 0.47097948E+00</totfact>
</mgrwt>
</event>
<event>
 6    1  0.2238133E-007  0.3152085E+04  0.7818608E-02  0.8201587E-01
         -2   -1    0    0    0  501 -0.00000000000E+00  0.00000000000E+00  0.78809625342E+03  0.78809625342E+03  0.00000000000E+00 0.  1.
          2   -1    0    0  501    0  0.00000000000E+00 -0.00000000000E+00 -0.31517844153E+04  0.31517844153E+04  0.00000000000E+00 0. -1.
         23    2    1    2    0    0 -0.13703088660E+03  0.45835312057E+03 -0.30581186346E+04  0.30966139681E+04  0.89796644721E+02 0.  0.
         11    1    3    3    0    0 -0.77673583600E+02  0.12596793179E+03 -0.10313038476E+04  0.10418679050E+04  0.00000000000E+00 0. -1.
        -11    1    3    3    0    0 -0.59357303004E+02  0.33238518878E+03 -0.20268147870E+04  0.20547460631E+04  0.00000000000E+00 0.  1.
         22    1    1    2    0    0  0.13703088660E+03 -0.45835312057E+03  0.69443047266E+03  0.84326670063E+03  0.00000000000E+00 0.  1.
<mgrwt>
<rscale>  0 0.31520847E+04</rscale>
<asrwt>0</asrwt>
<pdfrwt beam="1">  1        2 0.48488991E+00 0.31520847E+04</pdfrwt>
<pdfrwt beam="2">  1       -2 0.12124558E+00 0.31520847E+04</pdfrwt>
<totfact> 0.60926282E-01</totfact>
</mgrwt>
</event>
<event>
 6    1  0.2238133E-007  0.2808243E+04  0.7818608E-02  0.8300714E-01
          2   -1    0    0  501    0  0.00000000000E+00  0.00000000000E+00  0.28395121338E+04  0.28395121338E+04  0.00000000000E+00 0. -1.
         -2   -1    0    0    0  501 -0.00000000000E+00 -0.00000000000E+00 -0.69432952347E+03  0.69432952347E+03  0.00000000000E+00 0.  1.
         23    2    1    2    0    0  0.21730573738E+03 -0.95535082001E+03 -0.18928312514E+03  0.10021135433E+04  0.92122089926E+02 0.  0.
         13    1    3    3    0    0  0.10822830683E+02 -0.13389949180E+03 -0.52029189742E+02  0.14405986309E+03  0.00000000000E+00 0. -1.
        -13    1    3    3    0    0  0.20648290670E+03 -0.82145132821E+03 -0.13725393540E+03  0.85805368023E+03  0.00000000000E+00 0.  1.
         22    1    1    2    0    0 -0.21730573738E+03  0.95535082001E+03  0.23344657354E+04  0.25317281139E+04  0.00000000000E+00 0. -1.
<mgrwt>
<rscale>  0 0.28082429E+04</rscale>
<asrwt>0</asrwt>
<pdfrwt beam="1">  1        2 0.43684801E+00 0.28082429E+04</pdfrwt>
<pdfrwt beam="2">  1       -2 0.10681993E+00 0.28082429E+04</pdfrwt>
<totfact> 0.13414231E+00</totfact>
</mgrwt>
</event>
<event>
 6    1  0.2238133E-007  0.7411591E+03  0.7818608E-02  0.9649323E-01
         -2   -1    0    0    0  501 -0.00000000000E+00  0.00000000000E+00  0.44699921248E+03  0.44699921248E+03  0.00000000000E+00 0.  1.
          2   -1    0    0  501    0  0.00000000000E+00 -0.00000000000E+00 -0.30722468310E+03  0.30722468310E+03  0.00000000000E+00 0. -1.
         23    2    1    2    0    0  0.33584674016E+03 -0.32814266030E+02  0.21250502001E+03  0.40902897500E+03  0.90975325919E+02 0.  0.
         11    1    3    3    0    0  0.19695893842E+03 -0.56008245163E+02  0.15549131311E+03  0.25711339016E+03  0.00000000000E+00 0. -1.
        -11    1    3    3    0    0  0.13888780174E+03  0.23193979134E+02  0.57013706905E+02  0.15191558484E+03  0.00000000000E+00 0.  1.
         22    1    1    2    0    0 -0.33584674016E+03  0.32814266030E+02 -0.72730490632E+02  0.34519492059E+03  0.00000000000E+00 0.  1.
<mgrwt>
<rscale>  0 0.74115907E+03</rscale>
<asrwt>0</asrwt>
<pdfrwt beam="1">  1        2 0.47265336E-01 0.74115907E+03</pdfrwt>
<pdfrwt beam="2">  1       -2 0.68769109E-01 0.74115907E+03</pdfrwt>
<totfact> 0.20849095E+02</totfact>
</mgrwt>
</event>
<event>
 6    1  0.2238133E-007  0.1842606E+04  0.7818608E-02  0.8683965E-01
          2   -1    0    0  501    0  0.00000000000E+00  0.00000000000E+00  0.26880052424E+04  0.26880052424E+04  0.00000000000E+00 0. -1.
         -2   -1    0    0    0  501 -0.00000000000E+00 -0.00000000000E+00 -0.31577288556E+03  0.31577288556E+03  0.00000000000E+00 0.  1.
         23    2    1    2    0    0  0.34071982162E+03  0.79472632801E+03  0.16965523991E+04  0.19064070246E+04  0.91748390583E+02 0.  0.
         13    1    3    3    0    0  0.10954369559E+03  0.34375490417E+03  0.64280791064E+03  0.73713585272E+03  0.00000000000E+00 0.  1.
        -13    1    3    3    0    0  0.23117612603E+03  0.45097142384E+03  0.10537444885E+04  0.11692711719E+04  0.00000000000E+00 0. -1.
         22    1    1    2    0    0 -0.34071982162E+03 -0.79472632801E+03  0.67567995774E+03  0.10973711034E+04  0.00000000000E+00 0.  1.
<mgrwt>
<rscale>  0 0.18426060E+04</rscale>
<asrwt>0</asrwt>
<pdfrwt beam="1">  1        2 0.41353925E+00 0.18426060E+04</pdfrwt>
<pdfrwt beam="2">  1       -2 0.48580446E-01 0.18426060E+04</pdfrwt>
<totfact> 0.10210532E+01</totfact>
</mgrwt>
</event>
<event>
 6    1  0.2238133E-007  0.1946617E+04  0.7818608E-02  0.8631994E-01
          2   -1    0    0  501    0  0.00000000000E+00  0.00000000000E+00  0.12428768615E+04  0.12428768615E+04  0.00000000000E+00 0. -1.
         -2   -1    0    0    0  501 -0.00000000000E+00 -0.00000000000E+00 -0.76220719812E+03  0.76220719812E+03  0.00000000000E+00 0.  1.
         23    2    1    2    0    0 -0.47146237074E+03 -0.46683195764E+03 -0.48962114475E+03  0.82963814591E+03  0.91442572474E+02 0.  0.
         11    1    3    3    0    0 -0.16851868401E+03 -0.11272823128E+03 -0.16954623485E+03  0.26429552918E+03  0.00000000000E+00 0.  1.
        -11    1    3    3    0    0 -0.30294368673E+03 -0.35410372635E+03 -0.32007490990E+03  0.56534261673E+03  0.00000000000E+00 0. -1.
         22    1    1    2    0    0  0.47146237074E+03  0.46683195764E+03  0.97029080810E+03  0.11754459137E+04  0.00000000000E+00 0. -1.
<mgrwt>
<rscale>  0 0.19466173E+04</rscale>
<asrwt>0</asrwt>
<pdfrwt beam="1">  1        2 0.19121183E+00 0.19466173E+04</pdfrwt>
<pdfrwt beam="2">  1       -2 0.11726265E+00 0.19466173E+04</pdfrwt>
<totfact> 0.93701144E+00</totfact>
</mgrwt>
</event>
<event>
 6    1  0.2238133E-007  0.4079600E+04  0.7818608E-02  0.7988678E-01
          2   -1    0    0  501    0  0.00000000000E+00  0.00000000000E+00  0.16887851216E+04  0.16887851216E+04  0.00000000000E+00 0. -1.
         -2   -1    0    0    0  501 -0.00000000000E+00 -0.00000000000E+00 -0.24637740212E+04  0.24637740212E+04  0.00000000000E+00 0.  1.
         23    2    1    2    0    0 -0.94725375695E+03  0.14848343544E+04  0.65760580380E+03  0.18822397106E+04  0.91423165076E+02 0.  0.
         13    1    3    3    0    0 -0.56527898769E+03  0.95858518953E+03  0.39301760165E+03  0.11802070728E+04  0.00000000000E+00 0. -1.
        -13    1    3    3    0    0 -0.38197476926E+03  0.52624916485E+03  0.26458820216E+03  0.70203263783E+03  0.00000000000E+00 0.  1.
         22    1    1    2    0    0  0.94725375695E+03 -0.14848343544E+04 -0.14325947034E+04  0.22703194322E+04  0.00000000000E+00 0.  1.
<mgrwt>
<rscale>  0 0.40796004E+04</rscale>
<asrwt>0</asrwt>
<pdfrwt beam="1">  1        2 0.25981310E+00 0.40796004E+04</pdfrwt>
<pdfrwt beam="2">  1       -2 0.37904215E+00 0.40796004E+04</pdfrwt>
<totfact> 0.79169387E-02</totfact>
</mgrwt>
</event>
<event>
 6    1  0.2238133E-007  0.2328470E+04  0.7818608E-02  0.8466780E-01
          2   -1    0    0  501    0  0.00000000000E+00  0.00000000000E+00  0.24483866792E+04  0.24483866792E+04  0.00000000000E+00 0. -1.
         -2   -1    0    0    0  501 -0.00000000000E+00 -0.00000000000E+00 -0.55360654324E+03  0.55360654324E+03  0.00000000000E+00 0.  1.
         23    2    1    2    0    0  0.51980687351E+03  0.35100452506E+03  0.22106239137E+04  0.22997392411E+04  0.92407395220E+02 0.  0.
         13    1    3    3    0    0  0.29733168112E+03  0.18211250901E+03  0.10682158239E+04  0.11236797324E+04  0.00000000000E+00 0.  1.
        -13    1    3    3    0    0  0.22247519239E+03  0.16889201606E+03  0.11424080898E+04  0.11760595087E+04  0.00000000000E+00 0. -1.
         22    1    1    2    0    0 -0.51980687351E+03 -0.35100452506E+03 -0.31584377777E+03  0.70225398135E+03  0.00000000000E+00 0.  1.
<mgrwt>
<rscale>  0 0.23284698E+04</rscale>
<asrwt>0</asrwt>
<pdfrwt beam="1">  1        2 0.37667487E+00 0.23284698E+04</pdfrwt>
<pdfrwt beam="2">  1       -2 0.85170239E-01 0.23284698E+04</pdfrwt>
<totfact> 0.40449878E+00</totfact>
</mgrwt>
</event>
<event>
 6    1  0.2238133E-007  0.2426749E+04  0.7818608E-02  0.8429557E-01
         -2   -1    0    0    0  501 -0.00000000000E+00  0.00000000000E+00  0.97002620303E+03  0.97002620303E+03  0.00000000000E+00 0.  1.
          2   -1    0    0  501    0  0.00000000000E+00 -0.00000000000E+00 -0.15177707160E+04  0.15177707160E+04  0.00000000000E+00 0. -1.
         23    2    1    2    0    0 -0.44886521917E+03 -0.10722710379E+04  0.76407214516E+02  0.11683991236E+04  0.89851465583E+02 0.  0.
         11    1    3    3    0    0 -0.33582108304E+03 -0.86595246157E+03  0.87343142942E+02  0.93288707255E+03  0.00000000000E+00 0. -1.
        -11    1    3    3    0    0 -0.11304413614E+03 -0.20631857633E+03 -0.10935928426E+02  0.23551205104E+03  0.00000000000E+00 0.  1.
         22    1    1    2    0    0  0.44886521917E+03  0.10722710379E+04 -0.62415172749E+03  0.13193977955E+04  0.00000000000E+00 0.  1.
<mgrwt>
<rscale>  0 0.24267487E+04</rscale>
<asrwt>0</asrwt>
<pdfrwt beam="1">  1        2 0.23350319E+00 0.24267487E+04</pdfrwt>
<pdfrwt beam="2">  1       -2 0.14923480E+00 0.24267487E+04</pdfrwt>
<totfact> 0.33807114E+00</totfact>
</mgrwt>
</event>
<event>
 6    1  0.2238133E-007  0.4931748E+04  0.7818608E-02  0.7839123E-01
         -2   -1    0    0    0  501 -0.00000000000E+00  0.00000000000E+00  0.30320372807E+04  0.30320372807E+04  0.00000000000E+00 0.  1.
          2   -1    0    0  501    0  0.00000000000E+00 -0.00000000000E+00 -0.20054288843E+04  0.20054288843E+04  0.00000000000E+00 0. -1.
         23    2    1    2    0    0  0.19045565729E+04  0.15647940883E+04  0.53761285937E+03  0.25244932417E+04  0.90123595681E+02 0.  0.
         11    1    3    3    0    0  0.15711044616E+04  0.13061221994E+04  0.47795449723E+03  0.20982766572E+04  0.00000000000E+00 0. -1.
        -11    1    3    3    0    0  0.33345211138E+03  0.25867188892E+03  0.59658362133E+02  0.42621658446E+03  0.00000000000E+00 0.  1.
         22    1    1    2    0    0 -0.19045565729E+04 -0.15647940883E+04  0.48899553702E+03  0.25129729233E+04  0.00000000000E+00 0. -1.
<mgrwt>
<rscale>  0 0.49317482E+04</rscale>
<asrwt>0</asrwt>
<pdfrwt beam="1">  1        2 0.30852752E+00 0.49317482E+04</pdfrwt>
<pdfrwt beam="2">  1       -2 0.46646727E+00 0.49317482E+04</pdfrwt>
<totfact> 0.13180455E-02</totfact>
</mgrwt>
</event>
<event>
 6    1  0.2238133E-007  0.5460499E+04  0.7818608E-02  0.7761148E-01
         -2   -1    0    0    0  501 -0.00000000000E+00  0.00000000000E+00  0.54308726526E+04  0.54308726526E+04  0.00000000000E+00 0.  1.
          2   -1    0    0  501    0  0.00000000000E+00 -0.00000000000E+00 -0.13725716254E+04  0.13725716254E+04  0.00000000000E+00 0. -1.
         23    2    1    2    0    0 -0.16754951766E+04 -0.13524228012E+04  0.41196583607E+04  0.46493560155E+04  0.92708307239E+02 0.  0.
         13    1    3    3    0    0 -0.15840064405E+04 -0.13030882679E+04  0.39321148550E+04  0.44349343479E+04  0.00000000000E+00 0. -1.
        -13    1    3    3    0    0 -0.91488736089E+02 -0.49334533324E+02  0.18754350570E+03  0.21442166761E+03  0.00000000000E+00 0.  1.
         22    1    1    2    0    0  0.16754951766E+04  0.13524228012E+04 -0.61357333437E+02  0.21540882625E+04  0.00000000000E+00 0. -1.
<mgrwt>
<rscale>  0 0.54604988E+04</rscale>
<asrwt>0</asrwt>
<pdfrwt beam="1">  1        2 0.21116487E+00 0.54604988E+04</pdfrwt>
<pdfrwt beam="2">  1       -2 0.83551886E+00 0.54604988E+04</pdfrwt>
<totfact> 0.45808161E-04</totfact>
</mgrwt>
</event>
<event>
 6    1  0.2238133E-007  0.4380374E+04  0.7818608E-02  0.7931921E-01
          2   -1    0    0  501    0  0.00000000000E+00  0.00000000000E+00  0.37381484006E+04  0.37381484006E+04  0.00000000000E+00 0. -1.
         -2   -1    0    0    0  501 -0.00000000000E+00 -0.00000000000E+00 -0.12832340369E+04  0.12832340369E+04  0.00000000000E+00 0.  1.
         23    2    1    2    0    0 -0.14527155286E+04  0.13193349913E+04  0.23404790422E+04  0.30556452553E+04  0.89991959192E+02 0.  0.
         11    1    3    3    0    0 -0.81198955507E+03  0.70849284886E+03  0.13459138380E+04  0.17241731972E+04  0.00000000000E+00 0.  1.
        -11    1    3    3    0    0 -0.64072597356E+03  0.61084214248E+03  0.99456520417E+03  0.13314720581E+04  0.00000000000E+00 0. -1.
         22    1    1    2    0    0  0.14527155286E+04 -0.13193349913E+04  0.11443532147E+03  0.19657371822E+04  0.00000000000E+00 0.  1.
<mgrwt>
<rscale>  0 0.43803741E+04</rscale>
<asrwt>0</asrwt>
<pdfrwt beam="1">  1        2 0.57509975E+00 0.43803741E+04</pdfrwt>
<pdfrwt beam="2">  1       -2 0.19742062E+00 0.43803741E+04</pdfrwt>
<totfact> 0.57698210E-02</totfact>
</mgrwt>
</event>
<event>
 6    1  0.2238133E-007  0.2849782E+04  0.7818608E-02  0.8287978E-01
          1   -1    0    0  501    0  0.00000000000E+00  0.00000000000E+00  0.14652372850E+04  0.14652372850E+04  0.00000000000E+00 0. -1.
         -1   -1    0    0    0  501 -0.00000000000E+00 -0.00000000000E+00 -0.13856555052E+04  0.13856555052E+04  0.00000000000E+00 0.  1.
         23    2    1    2    0    0  0.10613237201E+04  0.68587002916E+03  0.69579395104E+03  0.14449969279E+04  0.84030728926E+02 0.  0.
         13    1    3    3    0    0  0.36547594741E+03  0.18944464022E+03  0.22922090612E+03  0.47117317797E+03  0.00000000000E+00 0.  1.
        -13    1    3    3    0    0  0.69584777272E+03  0.49642538894E+03  0.46657304493E+03  0.97382374988E+03  0.00000000000E+00 0. -1.
         22    1    1    2    0    0 -0.10613237201E+04 -0.68587002916E+03 -0.61621217122E+03  0.14058958623E+04  0.00000000000E+00 0.  1.
<mgrwt>
<rscale>  0 0.28497818E+04</rscale>
<asrwt>0</asrwt>
<pdfrwt beam="1">  1        1 0.22542112E+00 0.28497818E+04</pdfrwt>
<pdfrwt beam="2">  1       -1 0.21317777E+00 0.28497818E+04</pdfrwt>
<totfact> 0.72939119E-01</totfact>
</mgrwt>
</event>
<event>
 6    1  0.2238133E-007  0.2636415E+04  0.7818608E-02  0.8355936E-01
          2   -1    0    0  501    0  0.00000000000E+00  0.00000000000E+00  0.14982315121E+04  0.14982315121E+04  0.00000000000E+00 0. -1.
         -2   -1    0    0    0  501 -0.00000000000E+00 -0.00000000000E+00 -0.11598149888E+04  0.11598149888E+04  0.00000000000E+00 0.  1.
         23    2    1    2    0    0 -0.61153122901E+03 -0.74999898137E+03  0.10696812941E+04  0.14451091236E+04  0.87483668364E+02 0.  0.
         11    1    3    3    0    0 -0.49375714524E+02 -0.75176956304E+02  0.13784380767E+03  0.16459177153E+03  0.00000000000E+00 0. -1.
        -11    1    3    3    0    0 -0.56215551449E+03 -0.67482202507E+03  0.93183748640E+03  0.12805173521E+04  0.00000000000E+00 0.  1.
         22    1    1    2    0    0  0.61153122901E+03  0.74999898137E+03 -0.73126477075E+03  0.12129373772E+04  0.00000000000E+00 0.  1.
<mgrwt>
<rscale>  0 0.26364153E+04</rscale>
<asrwt>0</asrwt>
<pdfrwt beam="1">  1        2 0.23049716E+00 0.26364153E+04</pdfrwt>
<pdfrwt beam="2">  1       -2 0.17843307E+00 0.26364153E+04</pdfrwt>
<totfact> 0.20864251E+00</totfact>
</mgrwt>
</event>
<event>
 6    1  0.2238133E-007  0.3870172E+04  0.7818608E-02  0.8031262E-01
         -2   -1    0    0    0  501 -0.00000000000E+00  0.00000000000E+00  0.12850286592E+04  0.12850286592E+04  0.00000000000E+00 0.  1.
          2   -1    0    0  501    0  0.00000000000E+00 -0.00000000000E+00 -0.29139872069E+04  0.29139872069E+04  0.00000000000E+00 0. -1.
         23    2    1    2    0    0  0.64795719238E+03 -0.19181503040E+03 -0.27810281564E+04  0.28633864592E+04  0.90680092170E+02 0.  0.
         11    1    3    3    0    0  0.35476752045E+03 -0.14589702053E+03 -0.16597894503E+04  0.17035395368E+04  0.00000000000E+00 0. -1.
        -11    1    3    3    0    0  0.29318967193E+03 -0.45918009863E+02 -0.11212387062E+04  0.11598469225E+04  0.00000000000E+00 0.  1.
         22    1    1    2    0    0 -0.64795719238E+03  0.19181503040E+03  0.11520696087E+04  0.13356294068E+04  0.00000000000E+00 0.  1.
<mgrwt>
<rscale>  0 0.38701716E+04</rscale>
<asrwt>0</asrwt>
<pdfrwt beam="1">  1        2 0.44830572E+00 0.38701716E+04</pdfrwt>
<pdfrwt beam="2">  1       -2 0.19769672E+00 0.38701716E+04</pdfrwt>
<totfact> 0.21615514E-01</totfact>
</mgrwt>
</event>
<event>
 6    1  0.2238133E-007  0.4727935E+04  0.7818608E-02  0.7871904E-01
         -2   -1    0    0    0  501 -0.00000000000E+00  0.00000000000E+00  0.17414682541E+04  0.17414682541E+04  0.00000000000E+00 0.  1.
          2   -1    0    0  501    0  0.00000000000E+00 -0.00000000000E+00 -0.32089825632E+04  0.32089825632E+04  0.00000000000E+00 0. -1.
         23    2    1    2    0    0 -0.16980058553E+04  0.11845992989E+04  0.45866192838E+03  0.21226151994E+04  0.92871614565E+02 0.  0.
         11    1    3    3    0    0 -0.50636941516E+03  0.34992178145E+03  0.17993588563E+03  0.64127385779E+03  0.00000000000E+00 0.  1.
        -11    1    3    3    0    0 -0.11916364401E+04  0.83467751744E+03  0.27872604275E+03  0.14813413417E+04  0.00000000000E+00 0. -1.
         22    1    1    2    0    0  0.16980058553E+04 -0.11845992989E+04 -0.19261762375E+04  0.28278356178E+04  0.00000000000E+00 0. -1.
<mgrwt>
<rscale>  0 0.47279345E+04</rscale>
<asrwt>0</asrwt>
<pdfrwt beam="1">  1        2 0.49368962E+00 0.47279345E+04</pdfrwt>
<pdfrwt beam="2">  1       -2 0.26791820E+00 0.47279345E+04</pdfrwt>
<totfact> 0.47450492E-02</totfact>
</mgrwt>
</event>
<event>
 6    1  0.2238133E-007  0.1308022E+04  0.7818608E-02  0.9023227E-01
         -2   -1    0    0    0  501 -0.00000000000E+00  0.00000000000E+00  0.51952848784E+03  0.51952848784E+03  0.00000000000E+00 0.  1.
          2   -1    0    0  501    0  0.00000000000E+00 -0.00000000000E+00 -0.82330535592E+03  0.82330535592E+03  0.00000000000E+00 0. -1.
         23    2    1    2    0    0 -0.43197334769E+02 -0.78228738964E+02 -0.81447526755E+03  0.82437593750E+03  0.90774333102E+02 0.  0.
         11    1    3    3    0    0 -0.70220747126E+02 -0.43564873092E+02 -0.48645773499E+03  0.49342677210E+03  0.00000000000E+00 0. -1.
        -11    1    3    3    0    0  0.27023412357E+02 -0.34663865871E+02 -0.32801753256E+03  0.33094916540E+03  0.00000000000E+00 0.  1.
         22    1    1    2    0    0  0.43197334769E+02  0.78228738964E+02  0.51069839947E+03  0.51845790625E+03  0.00000000000E+00 0.  1.
<mgrwt>
<rscale>  0 0.13080223E+04</rscale>
<asrwt>0</asrwt>
<pdfrwt beam="1">  1        2 0.12666236E+00 0.13080223E+04</pdfrwt>
<pdfrwt beam="2">  1       -2 0.79927460E-01 0.13080223E+04</pdfrwt>
<totfact> 0.44992716E+01</totfact>
</mgrwt>
</event>
<event>
 6    1  0.2238133E-007  0.1481216E+04  0.7818608E-02  0.8897041E-01
          2   -1    0    0  501    0  0.00000000000E+00  0.00000000000E+00  0.12531761622E+04  0.12531761622E+04  0.00000000000E+00 0. -1.
         -2   -1    0    0    0  501 -0.00000000000E+00 -0.00000000000E+00 -0.43768789491E+03  0.43768789491E+03  0.00000000000E+00 0.  1.
         23    2    1    2    0    0  0.17615085997E+03 -0.14628357802E+03 -0.39145676655E+03  0.46239170277E+03  0.90220153194E+02 0.  0.
         13    1    3    3    0    0  0.75260346505E+02 -0.52600346515E+02 -0.24374229369E+03  0.26046347526E+03  0.00000000000E+00 0. -1.
        -13    1    3    3    0    0  0.10089051347E+03 -0.93683231502E+02 -0.14771447286E+03  0.20192822751E+03  0.00000000000E+00 0.  1.
         22    1    1    2    0    0 -0.17615085997E+03  0.14628357802E+03  0.12069450339E+04  0.12284723544E+04  0.00000000000E+00 0. -1.
<mgrwt>
<rscale>  0 0.14812158E+04</rscale>
<asrwt>0</asrwt>
<pdfrwt beam="1">  1        2 0.19279633E+00 0.14812158E+04</pdfrwt>
<pdfrwt beam="2">  1       -2 0.67336599E-01 0.14812158E+04</pdfrwt>
<totfact> 0.34468917E+01</totfact>
</mgrwt>
</event>
<event>
 6    1  0.2238133E-007  0.3529010E+04  0.7818608E-02  0.8106949E-01
          2   -1    0    0  501    0  0.00000000000E+00  0.00000000000E+00  0.17233423915E+04  0.17233423915E+04  0.00000000000E+00 0. -1.
         -2   -1    0    0    0  501 -0.00000000000E+00 -0.00000000000E+00 -0.18066503674E+04  0.18066503674E+04  0.00000000000E+00 0.  1.
         23    2    1    2    0    0 -0.16065424074E+02 -0.17525183235E+04  0.15396580544E+03  0.17614121360E+04  0.85373717429E+02 0.  0.
         11    1    3    3    0    0  0.32050819878E+02 -0.64444928055E+03  0.40641708515E+02  0.64652446105E+03  0.00000000000E+00 0. -1.
        -11    1    3    3    0    0 -0.48116243952E+02 -0.11080690430E+04  0.11332409693E+03  0.11148876750E+04  0.00000000000E+00 0.  1.
         22    1    1    2    0    0  0.16065424074E+02  0.17525183235E+04 -0.23727378138E+03  0.17685806228E+04  0.00000000000E+00 0. -1.
<mgrwt>
<rscale>  0 0.35290096E+04</rscale>
<asrwt>0</asrwt>
<pdfrwt beam="1">  1        2 0.26512960E+00 0.35290096E+04</pdfrwt>
<pdfrwt beam="2">  1       -2 0.27794621E+00 0.35290096E+04</pdfrwt>
<totfact> 0.33820000E-01</totfact>
</mgrwt>
</event>
<event>
 6    1  0.2238133E-007  0.5072992E+04  0.7818608E-02  0.7817345E-01
         -2   -1    0    0    0  501 -0.00000000000E+00  0.00000000000E+00  0.21851640330E+04  0.21851640330E+04  0.00000000000E+00 0.  1.
          2   -1    0    0  501    0  0.00000000000E+00 -0.00000000000E+00 -0.29443158899E+04  0.29443158899E+04  0.00000000000E+00 0. -1.
         23    2    1    2    0    0 -0.83674240856E+02 -0.88727599146E+03 -0.27800551191E+04  0.29207902527E+04  0.89717174953E+02 0.  0.
         11    1    3    3    0    0 -0.18223472621E+02 -0.56104333576E+03 -0.16586159074E+04  0.17510306815E+04  0.00000000000E+00 0.  1.
        -11    1    3    3    0    0 -0.65450768236E+02 -0.32623265570E+03 -0.11214392118E+04  0.11697595712E+04  0.00000000000E+00 0. -1.
         22    1    1    2    0    0  0.83674240856E+02  0.88727599146E+03  0.20209032623E+04  0.22086896702E+04  0.00000000000E+00 0.  1.
<mgrwt>
<rscale>  0 0.50729925E+04</rscale>
<asrwt>0</asrwt>
<pdfrwt beam="1">  1        2 0.45297167E+00 0.50729925E+04</pdfrwt>
<pdfrwt beam="2">  1       -2 0.33617908E+00 0.50729925E+04</pdfrwt>
<totfact> 0.25928181E-02</totfact>
</mgrwt>
</event>
<event>
 6    1  0.2238133E-007  0.2562742E+04  0.7818608E-02  0.8380968E-01
          2   -1    0    0  501    0  0.00000000000E+00  0.00000000000E+00  0.10377227227E+04  0.10377227227E+04  0.00000000000E+00 0. -1.
         -2   -1    0    0    0  501 -0.00000000000E+00 -0.00000000000E+00 -0.15822262183E+04  0.15822262183E+04  0.00000000000E+00 0.  1.
         23    2    1    2    0    0  0.69758481498E+03 -0.73586126268E+03  0.52564855218E+03  0.11457231180E+04  0.90877338678E+02 0.  0.
         13    1    3    3    0    0  0.10708416721E+03 -0.14994620668E+03  0.68886267906E+02  0.19671350150E+03  0.00000000000E+00 0. -1.
        -13    1    3    3    0    0  0.59050064777E+03 -0.58591505600E+03  0.45676228427E+03  0.94900961649E+03  0.00000000000E+00 0.  1.
         22    1    1    2    0    0 -0.69758481498E+03  0.73586126268E+03 -0.10701520477E+04  0.14742258230E+04  0.00000000000E+00 0.  1.
<mgrwt>
<rscale>  0 0.25627424E+04</rscale>
<asrwt>0</asrwt>
<pdfrwt beam="1">  1        2 0.15964965E+00 0.25627424E+04</pdfrwt>
<pdfrwt beam="2">  1       -2 0.24341942E+00 0.25627424E+04</pdfrwt>
<totfact> 0.14916354E+00</totfact>
</mgrwt>
</event>
<event>
 6    1  0.2238133E-007  0.3077567E+04  0.7818608E-02  0.8221922E-01
          2   -1    0    0  501    0  0.00000000000E+00  0.00000000000E+00  0.16189539231E+04  0.16189539231E+04  0.00000000000E+00 0. -1.
         -2   -1    0    0    0  501 -0.00000000000E+00 -0.00000000000E+00 -0.14625831235E+04  0.14625831235E+04  0.00000000000E+00 0.  1.
         23    2    1    2    0    0 -0.15264389648E+04  0.12967040099E+03  0.20831637154E+03  0.15487198139E+04  0.91142882902E+02 0.  0.
         11    1    3    3    0    0 -0.38671335090E+03 -0.47164045137E+01  0.39625015058E+02  0.38876677077E+03  0.00000000000E+00 0. -1.
        -11    1    3    3    0    0 -0.11397256139E+04  0.13438680550E+03  0.16869135648E+03  0.11599530431E+04  0.00000000000E+00 0.  1.
         22    1    1    2    0    0  0.15264389648E+04 -0.12967040099E+03 -0.51945571916E+02  0.15328172326E+04  0.00000000000E+00 0.  1.
<mgrwt>
<rscale>  0 0.30775670E+04</rscale>
<asrwt>0</asrwt>
<pdfrwt beam="1">  1        2 0.24906983E+00 0.30775670E+04</pdfrwt>
<pdfrwt beam="2">  1       -2 0.22501279E+00 0.30775670E+04</pdfrwt>
<totfact> 0.85064014E-01</totfact>
</mgrwt>
</event>
<event>
 6    1  0.2238133E-007  0.1057697E+04  0.7818608E-02  0.9247434E-01
         -2   -1    0    0    0  501 -0.00000000000E+00  0.00000000000E+00  0.67724992605E+03  0.67724992605E+03  0.00000000000E+00 0.  1.
          2   -1    0    0  501    0  0.00000000000E+00 -0.00000000000E+00 -0.41296507093E+03  0.41296507093E+03  0.00000000000E+00 0. -1.
         23    2    1    2    0    0  0.17065557790E+03  0.47208751877E+03  0.29151419722E+03  0.58749102827E+03  0.90416975628E+02 0.  0.
         13    1    3    3    0    0  0.10274329831E+03  0.16491247328E+03  0.92123581883E+02  0.21503270339E+03  0.00000000000E+00 0.  1.
        -13    1    3    3    0    0  0.67912279591E+02  0.30717504549E+03  0.19939061533E+03  0.37245832488E+03  0.00000000000E+00 0. -1.
         22    1    1    2    0    0 -0.17065557790E+03 -0.47208751877E+03 -0.27229342095E+02  0.50272396871E+03  0.00000000000E+00 0. -1.
<mgrwt>
<rscale>  0 0.10576967E+04</rscale>
<asrwt>0</asrwt>
<pdfrwt beam="1">  1        2 0.63533088E-01 0.10576967E+04</pdfrwt>
<pdfrwt beam="2">  1       -2 0.10419230E+00 0.10576967E+04</pdfrwt>
<totfact> 0.57171762E+01</totfact>
</mgrwt>
</event>
<event>
 6    1  0.2238133E-007  0.2476486E+04  0.7818608E-02  0.8411411E-01
          1   -1    0    0  501    0  0.00000000000E+00  0.00000000000E+00  0.39405808125E+04  0.39405808125E+04  0.00000000000E+00 0. -1.
         -1   -1    0    0    0  501 -0.00000000000E+00 -0.00000000000E+00 -0.38909143062E+03  0.38909143062E+03  0.00000000000E+00 0.  1.
         23    2    1    2    0    0  0.29261875749E+03  0.11340312777E+04  0.24716359307E+04  0.27366448887E+04  0.92673603556E+02 0.  0.
         11    1    3    3    0    0  0.11013892672E+03  0.27053728984E+03  0.59442690037E+03  0.66231740748E+03  0.00000000000E+00 0.  1.
        -11    1    3    3    0    0  0.18247983077E+03  0.86349398785E+03  0.18772090304E+04  0.20743274812E+04  0.00000000000E+00 0. -1.
         22    1    1    2    0    0 -0.29261875749E+03 -0.11340312777E+04  0.10798534512E+04  0.15930273545E+04  0.00000000000E+00 0.  1.
<mgrwt>
<rscale>  0 0.24764864E+04</rscale>
<asrwt>0</asrwt>
<pdfrwt beam="1">  1        1 0.60624317E+00 0.24764864E+04</pdfrwt>
<pdfrwt beam="2">  1       -1 0.59860223E-01 0.24764864E+04</pdfrwt>
<totfact> 0.27309443E-01</totfact>
</mgrwt>
</event>
<event>
 6    1  0.2238133E-007  0.3546543E+04  0.7818608E-02  0.8102848E-01
         -2   -1    0    0    0  501 -0.00000000000E+00  0.00000000000E+00  0.11441359033E+04  0.11441359033E+04  0.00000000000E+00 0.  1.
          2   -1    0    0  501    0  0.00000000000E+00 -0.00000000000E+00 -0.27483557423E+04  0.27483557423E+04  0.00000000000E+00 0. -1.
         23    2    1    2    0    0  0.29948605531E+03 -0.10488590300E+04 -0.23354660549E+04  0.25792825265E+04  0.92192710201E+02 0.  0.
         13    1    3    3    0    0  0.13165221828E+03 -0.32173475957E+03 -0.69701519826E+03  0.77889392647E+03  0.00000000000E+00 0. -1.
        -13    1    3    3    0    0  0.16783383703E+03 -0.72712427038E+03 -0.16384508567E+04  0.18003886000E+04  0.00000000000E+00 0.  1.
         22    1    1    2    0    0 -0.29948605531E+03  0.10488590300E+04  0.73124621598E+03  0.13132091191E+04  0.00000000000E+00 0.  1.
<mgrwt>
<rscale>  0 0.35465434E+04</rscale>
<asrwt>0</asrwt>
<pdfrwt beam="1">  1        2 0.42282396E+00 0.35465434E+04</pdfrwt>
<pdfrwt beam="2">  1       -2 0.17602091E+00 0.35465434E+04</pdfrwt>
<totfact> 0.39290446E-01</totfact>
</mgrwt>
</event>
<event>
 6    1  0.2238133E-007  0.4232410E+04  0.7818608E-02  0.7959236E-01
          2   -1    0    0  501    0  0.00000000000E+00  0.00000000000E+00  0.28795497401E+04  0.28795497401E+04  0.00000000000E+00 0. -1.
         -2   -1    0    0    0  501 -0.00000000000E+00 -0.00000000000E+00 -0.15552169628E+04  0.15552169628E+04  0.00000000000E+00 0.  1.
         23    2    1    2    0    0  0.12753578161E+04  0.13559721903E+04 -0.38978494921E+03  0.19042731304E+04  0.95528574296E+02 0.  0.
         11    1    3    3    0    0  0.49774694665E+03  0.58069779103E+03 -0.19179055108E+03  0.78850844186E+03  0.00000000000E+00 0. -1.
        -11    1    3    3    0    0  0.77761086947E+03  0.77527439926E+03 -0.19799439813E+03  0.11157646885E+04  0.00000000000E+00 0.  1.
         22    1    1    2    0    0 -0.12753578161E+04 -0.13559721903E+04  0.17141177266E+04  0.25304935725E+04  0.00000000000E+00 0. -1.
<mgrwt>
<rscale>  0 0.42324105E+04</rscale>
<asrwt>0</asrwt>
<pdfrwt beam="1">  1        2 0.44300765E+00 0.42324105E+04</pdfrwt>
<pdfrwt beam="2">  1       -2 0.23926415E+00 0.42324105E+04</pdfrwt>
<totfact> 0.11981825E-01</totfact>
</mgrwt>
</event>
<event>
 6    1  0.2238133E-007  0.2625559E+04  0.7818608E-02  0.8359571E-01
          1   -1    0    0  501    0  0.00000000000E+00  0.00000000000E+00  0.20985557153E+04  0.20985557153E+04  0.00000000000E+00 0. -1.
         -1   -1    0    0    0  501 -0.00000000000E+00 -0.00000000000E+00 -0.82122649862E+03  0.82122649862E+03  0.00000000000E+00 0.  1.
         23    2    1    2    0    0 -0.16106629798E+03 -0.12380751970E+04  0.19354256212E+03  0.12664927480E+04  0.88162415903E+02 0.  0.
         11    1    3    3    0    0 -0.15715576478E+03 -0.91449353997E+03  0.13604322517E+03  0.93781881415E+03  0.00000000000E+00 0.  1.
        -11    1    3    3    0    0 -0.39105331945E+01 -0.32358165699E+03  0.57499336956E+02  0.32867393381E+03  0.00000000000E+00 0. -1.
         22    1    1    2    0    0  0.16106629798E+03  0.12380751970E+04  0.10837866546E+04  0.16532894660E+04  0.00000000000E+00 0. -1.
<mgrwt>
<rscale>  0 0.26255587E+04</rscale>
<asrwt>0</asrwt>
<pdfrwt beam="1">  1        1 0.32285472E+00 0.26255587E+04</pdfrwt>
<pdfrwt beam="2">  1       -1 0.12634254E+00 0.26255587E+04</pdfrwt>
<totfact> 0.12228290E+00</totfact>
</mgrwt>
</event>
<event>
 6    1  0.2238133E-007  0.4070611E+04  0.7818608E-02  0.7990452E-01
         -2   -1    0    0    0  501 -0.00000000000E+00  0.00000000000E+00  0.82957295328E+03  0.82957295328E+03  0.00000000000E+00 0.  1.
          2   -1    0    0  501    0  0.00000000000E+00 -0.00000000000E+00 -0.49934958100E+04  0.49934958100E+04  0.00000000000E+00 0. -1.
         23    2    1    2    0    0  0.15114286927E+04 -0.63999448772E+03 -0.38021637991E+04  0.41423310523E+04  0.91909487952E+02 0.  0.
         13    1    3    3    0    0  0.79171203744E+03 -0.37439558252E+03 -0.19552280083E+04  0.21424043892E+04  0.00000000000E+00 0.  1.
        -13    1    3    3    0    0  0.71971665524E+03 -0.26559890520E+03 -0.18469357908E+04  0.19999266630E+04  0.00000000000E+00 0. -1.
         22    1    1    2    0    0 -0.15114286927E+04  0.63999448772E+03 -0.36175905760E+03  0.16807377110E+04  0.00000000000E+00 0.  1.
<mgrwt>
<rscale>  0 0.40706113E+04</rscale>
<asrwt>0</asrwt>
<pdfrwt beam="1">  1        2 0.76823012E+00 0.40706113E+04</pdfrwt>
<pdfrwt beam="2">  1       -2 0.12762661E+00 0.40706113E+04</pdfrwt>
<totfact> 0.12335001E-02</totfact>
</mgrwt>
</event>
<event>
 6    1  0.2238133E-007  0.2977209E+04  0.7818608E-02  0.8250269E-01
         -2   -1    0    0    0  501 -0.00000000000E+00  0.00000000000E+00  0.11640778038E+04  0.11640778038E+04  0.00000000000E+00 0.  1.
          2   -1    0    0  501    0  0.00000000000E+00 -0.00000000000E+00 -0.19036041278E+04  0.19036041278E+04  0.00000000000E+00 0. -1.
         23    2    1    2    0    0 -0.14187000833E+04  0.23296305510E+03 -0.76222975428E+03  0.16298025357E+04  0.90996678706E+02 0.  0.
         11    1    3    3    0    0 -0.51545787810E+03  0.41575306924E+02 -0.28491853513E+03  0.59042688108E+03  0.00000000000E+00 0. -1.
        -11    1    3    3    0    0 -0.90324220522E+03  0.19138774817E+03 -0.47731121915E+03  0.10393756546E+04  0.00000000000E+00 0.  1.
         22    1    1    2    0    0  0.14187000833E+04 -0.23296305510E+03  0.22703430244E+02  0.14378793959E+04  0.00000000000E+00 0. -1.
<mgrwt>
<rscale>  0 0.29772090E+04</rscale>
<asrwt>0</asrwt>
<pdfrwt beam="1">  1        2 0.29286217E+00 0.29772090E+04</pdfrwt>
<pdfrwt beam="2">  1       -2 0.17908890E+00 0.29772090E+04</pdfrwt>
<totfact> 0.11927638E+00</totfact>
</mgrwt>
</event>
<event>
 6    1  0.2238133E-007  0.2210234E+04  0.7818608E-02  0.8514181E-01
          2   -1    0    0  501    0  0.00000000000E+00  0.00000000000E+00  0.15556474198E+04  0.15556474198E+04  0.00000000000E+00 0. -1.
         -2   -1    0    0    0  501 -0.00000000000E+00 -0.00000000000E+00 -0.78506447347E+03  0.78506447347E+03  0.00000000000E+00 0.  1.
         23    2    1    2    0    0  0.54363624537E+03  0.42452075196E+03  0.12977988993E+04  0.14725443419E+04  0.91359834993E+02 0.  0.
         11    1    3    3    0    0  0.28621928164E+03  0.19982252310E+03  0.74396350712E+03  0.82178599272E+03  0.00000000000E+00 0.  1.
        -11    1    3    3    0    0  0.25741696374E+03  0.22469822886E+03  0.55383539223E+03  0.65075834913E+03  0.00000000000E+00 0. -1.
         22    1    1    2    0    0 -0.54363624537E+03 -0.42452075196E+03 -0.52721595306E+03  0.86816755139E+03  0.00000000000E+00 0.  1.
<mgrwt>
<rscale>  0 0.22102339E+04</rscale>
<asrwt>0</asrwt>
<pdfrwt beam="1">  1        2 0.23933037E+00 0.22102339E+04</pdfrwt>
<pdfrwt beam="2">  1       -2 0.12077915E+00 0.22102339E+04</pdfrwt>
<totfact> 0.56363298E+00</totfact>
</mgrwt>
</event>
<event>
 6    1  0.2238133E-007  0.1664173E+04  0.7818608E-02  0.8782066E-01
          2   -1    0    0  501    0  0.00000000000E+00  0.00000000000E+00  0.19303465595E+04  0.19303465595E+04  0.00000000000E+00 0. -1.
         -2   -1    0    0    0  501 -0.00000000000E+00 -0.00000000000E+00 -0.35867562860E+03  0.35867562860E+03  0.00000000000E+00 0.  1.
         23    2    1    2    0    0 -0.76897847337E+03  0.50231767114E+02  0.12105506736E+04  0.14379881328E+04  0.92335334086E+02 0.  0.
         11    1    3    3    0    0 -0.14945679819E+03  0.42409477854E+00  0.30521932325E+03  0.33984753886E+03  0.00000000000E+00 0. -1.
        -11    1    3    3    0    0 -0.61952167519E+03  0.49807672335E+02  0.90533135035E+03  0.10981405940E+04  0.00000000000E+00 0.  1.
         22    1    1    2    0    0  0.76897847337E+03 -0.50231767114E+02  0.36112025728E+03  0.85103405523E+03  0.00000000000E+00 0.  1.
<mgrwt>
<rscale>  0 0.16641734E+04</rscale>
<asrwt>0</asrwt>
<pdfrwt beam="1">  1        2 0.29697639E+00 0.16641734E+04</pdfrwt>
<pdfrwt beam="2">  1       -2 0.55180867E-01 0.16641734E+04</pdfrwt>
<totfact> 0.21522643E+01</totfact>
</mgrwt>
</event>
<event>
 6    1  0.2238133E-007  0.2754550E+04  0.7818608E-02  0.8317519E-01
          2   -1    0    0  501    0  0.00000000000E+00  0.00000000000E+00  0.88546560452E+03  0.88546560452E+03  0.00000000000E+00 0. -1.
         -2   -1    0    0    0  501 -0.00000000000E+00 -0.00000000000E+00 -0.21422475302E+04  0.21422475302E+04  0.00000000000E+00 0.  1.
         23    2    1    2    0    0  0.22622340423E+03 -0.12555635160E+04 -0.11950716992E+04  0.17504406801E+04  0.90716244159E+02 0.  0.
         11    1    3    3    0    0  0.11445001975E+03 -0.52521697672E+03 -0.55886481076E+03  0.77542346905E+03  0.00000000000E+00 0.  1.
        -11    1    3    3    0    0  0.11177338448E+03 -0.73034653928E+03 -0.63620688844E+03  0.97501721103E+03  0.00000000000E+00 0. -1.
         22    1    1    2    0    0 -0.22622340423E+03  0.12555635160E+04 -0.61710226485E+02  0.12772724546E+04  0.00000000000E+00 0. -1.
<mgrwt>
<rscale>  0 0.27545501E+04</rscale>
<asrwt>0</asrwt>
<pdfrwt beam="1">  1        2 0.13622548E+00 0.27545501E+04</pdfrwt>
<pdfrwt beam="2">  1       -2 0.32957655E+00 0.27545501E+04</pdfrwt>
<totfact> 0.54718919E-01</totfact>
</mgrwt>
</event>
<event>
 6    1  0.2238133E-007  0.1402223E+04  0.7818608E-02  0.8952211E-01
          2   -1    0    0  501    0  0.00000000000E+00  0.00000000000E+00  0.13705279050E+04  0.13705279050E+04  0.00000000000E+00 0. -1.
         -2   -1    0    0    0  501 -0.00000000000E+00 -0.00000000000E+00 -0.35866281974E+03  0.35866281974E+03  0.00000000000E+00 0.  1.
         23    2    1    2    0    0  0.38574277931E+02  0.54457323553E+03  0.10444604481E+04  0.11822808222E+04  0.94033670051E+02 0.  0.
         13    1    3    3    0    0  0.42428365270E+02  0.37525802116E+03  0.80272429580E+03  0.88712177501E+03  0.00000000000E+00 0.  1.
        -13    1    3    3    0    0 -0.38540873391E+01  0.16931521437E+03  0.24173615230E+03  0.29515904719E+03  0.00000000000E+00 0. -1.
         22    1    1    2    0    0 -0.38574277931E+02 -0.54457323553E+03 -0.32595362885E+02  0.54690990250E+03  0.00000000000E+00 0.  1.
<mgrwt>
<rscale>  0 0.14022231E+04</rscale>
<asrwt>0</asrwt>
<pdfrwt beam="1">  1        2 0.21085044E+00 0.14022231E+04</pdfrwt>
<pdfrwt beam="2">  1       -2 0.55178896E-01 0.14022231E+04</pdfrwt>
<totfact> 0.45207569E+01</totfact>
</mgrwt>
</event>
<event>
 6    1  0.2238133E-007  0.1496316E+04  0.7818608E-02  0.8886906E-01
         -2   -1    0    0    0  501 -0.00000000000E+00  0.00000000000E+00  0.34864615701E+03  0.34864615701E+03  0.00000000000E+00 0.  1.
          2   -1    0    0  501    0  0.00000000000E+00 -0.00000000000E+00 -0.16054684349E+04  0.16054684349E+04  0.00000000000E+00 0. -1.
         23    2    1    2    0    0 -0.26763525821E+03  0.53197634659E+03 -0.45426839627E+02  0.60426038770E+03  0.91867043105E+02 0.  0.
         11    1    3    3    0    0 -0.83502311333E+02  0.20497562257E+03 -0.57880993256E+02  0.22877467348E+03  0.00000000000E+00 0.  1.
        -11    1    3    3    0    0 -0.18413294688E+03  0.32700072402E+03  0.12454153629E+02  0.37548571421E+03  0.00000000000E+00 0. -1.
         22    1    1    2    0    0  0.26763525821E+03 -0.53197634659E+03 -0.12113954382E+04  0.13498542042E+04  0.00000000000E+00 0. -1.
<mgrwt>
<rscale>  0 0.14963160E+04</rscale>
<asrwt>0</asrwt>
<pdfrwt beam="1">  1        2 0.24699515E+00 0.14963160E+04</pdfrwt>
<pdfrwt beam="2">  1       -2 0.53637870E-01 0.14963160E+04</pdfrwt>
<totfact> 0.35045515E+01</totfact>
</mgrwt>
</event>
<event>
 6    1  0.2238133E-007  0.8000455E+04  0.7818608E-02  0.7482226E-01
          2   -1    0    0  501    0  0.00000000000E+00  0.00000000000E+00  0.35057733661E+04  0.35057733661E+04  0.00000000000E+00 0. -1.
         -2   -1    0    0    0  501 -0.00000000000E+00 -0.00000000000E+00 -0.45644191826E+04  0.45644191826E+04  0.00000000000E+00 0.  1.
         23    2    1    2    0    0 -0.29142884561E+04  0.24055822310E+04  0.79267365926E+03  0.38621898304E+04  0.90970767472E+02 0.  0.
         13    1    3    3    0    0 -0.14357536697E+04  0.12189463530E+04  0.35695530608E+03  0.19169339848E+04  0.00000000000E+00 0.  1.
        -13    1    3    3    0    0 -0.14785347864E+04  0.11866358780E+04  0.43571835318E+03  0.19452558456E+04  0.00000000000E+00 0. -1.
         22    1    1    2    0    0  0.29142884561E+04 -0.24055822310E+04 -0.18513194757E+04  0.42080027182E+04  0.00000000000E+00 0. -1.
<mgrwt>
<rscale>  0 0.80004548E+04</rscale>
<asrwt>0</asrwt>
<pdfrwt beam="1">  1        2 0.53934974E+00 0.80004548E+04</pdfrwt>
<pdfrwt beam="2">  1       -2 0.70221834E+00 0.80004548E+04</pdfrwt>
<totfact> 0.10726115E-04</totfact>
</mgrwt>
</event>
<event>
 6    1  0.2238133E-007  0.1184173E+04  0.7818608E-02  0.9126824E-01
         -2   -1    0    0    0  501 -0.00000000000E+00  0.00000000000E+00  0.29556142976E+03  0.29556142976E+03  0.00000000000E+00 0.  1.
          2   -1    0    0  501    0  0.00000000000E+00 -0.00000000000E+00 -0.11861033396E+04  0.11861033396E+04  0.00000000000E+00 0. -1.
         23    2    1    2    0    0  0.45916997790E+03 -0.21832068743E+03 -0.81824162119E+03  0.96811990965E+03  0.96103161451E+02 0.  0.
         11    1    3    3    0    0  0.20202237570E+03 -0.12032426177E+03 -0.29818922390E+03  0.37974699670E+03  0.00000000000E+00 0. -1.
        -11    1    3    3    0    0  0.25714760220E+03 -0.97996425658E+02 -0.52005239729E+03  0.58837291295E+03  0.00000000000E+00 0.  1.
         22    1    1    2    0    0 -0.45916997790E+03  0.21832068743E+03 -0.72300288605E+02  0.51354485967E+03  0.00000000000E+00 0. -1.
<mgrwt>
<rscale>  0 0.11841730E+04</rscale>
<asrwt>0</asrwt>
<pdfrwt beam="1">  1        2 0.18247744E+00 0.11841730E+04</pdfrwt>
<pdfrwt beam="2">  1       -2 0.45470989E-01 0.11841730E+04</pdfrwt>
<totfact> 0.87429277E+01</totfact>
</mgrwt>
</event>
<event>
 6    1  0.2238133E-007  0.6322718E+03  0.7818608E-02  0.9840625E-01
         -2   -1    0    0    0  501 -0.00000000000E+00  0.00000000000E+00  0.48702748804E+03  0.48702748804E+03  0.00000000000E+00 0.  1.
          2   -1    0    0  501    0  0.00000000000E+00 -0.00000000000E+00 -0.20520795719E+03  0.20520795719E+03  0.00000000000E+00 0. -1.
         23    2    1    2    0    0 -0.16438780846E+03  0.34734794914E+02  0.42846434358E+03  0.46922298224E+03  0.91425684566E+02 0.  0.
         11    1    3    3    0    0 -0.29611579825E+02  0.40598741693E+02  0.17528075477E+03  0.18234156542E+03  0.00000000000E+00 0.  1.
        -11    1    3    3    0    0 -0.13477622863E+03 -0.58639467785E+01  0.25318358881E+03  0.28688141683E+03  0.00000000000E+00 0. -1.
         22    1    1    2    0    0  0.16438780846E+03 -0.34734794914E+02 -0.14664481273E+03  0.22301246299E+03  0.00000000000E+00 0. -1.
<mgrwt>
<rscale>  0 0.63227183E+03</rscale>
<asrwt>0</asrwt>
<pdfrwt beam="1">  1        2 0.31570455E-01 0.63227183E+03</pdfrwt>
<pdfrwt beam="2">  1       -2 0.74927305E-01 0.63227183E+03</pdfrwt>
<totfact> 0.27168632E+02</totfact>
</mgrwt>
</event>
<event>
 6    1  0.2238133E-007  0.1436094E+04  0.7818608E-02  0.8928099E-01
         -2   -1    0    0    0  501 -0.00000000000E+00  0.00000000000E+00  0.11366050967E+04  0.11366050967E+04  0.00000000000E+00 0.  1.
          2   -1    0    0  501    0  0.00000000000E+00 -0.00000000000E+00 -0.45362394225E+03  0.45362394225E+03  0.00000000000E+00 0. -1.
         23    2    1    2    0    0 -0.60693333728E+03  0.10504597041E+03  0.74609080022E+03  0.97104767683E+03  0.82942008110E+02 0.  0.
         13    1    3    3    0    0 -0.11845708338E+03 -0.12393196960E+02  0.14582699088E+03  0.18828484592E+03  0.00000000000E+00 0.  1.
        -13    1    3    3    0    0 -0.48847625390E+03  0.11743916737E+03  0.60026380934E+03  0.78276283091E+03  0.00000000000E+00 0. -1.
         22    1    1    2    0    0  0.60693333728E+03 -0.10504597041E+03 -0.63109645771E+02  0.61918136211E+03  0.00000000000E+00 0. -1.
<mgrwt>
<rscale>  0 0.14360937E+04</rscale>
<asrwt>0</asrwt>
<pdfrwt beam="1">  1        2 0.69788299E-01 0.14360937E+04</pdfrwt>
<pdfrwt beam="2">  1       -2 0.17486232E+00 0.14360937E+04</pdfrwt>
<totfact> 0.13158031E+01</totfact>
</mgrwt>
</event>
<event>
 6    1  0.2238133E-007  0.8036468E+03  0.7818608E-02  0.9554754E-01
          2   -1    0    0  501    0  0.00000000000E+00  0.00000000000E+00  0.21964535763E+04  0.21964535763E+04  0.00000000000E+00 0. -1.
         -2   -1    0    0    0  501 -0.00000000000E+00 -0.00000000000E+00 -0.73510331271E+02  0.73510331271E+02  0.00000000000E+00 0.  1.
         23    2    1    2    0    0  0.26340836538E+03  0.29647445338E+03  0.10560379395E+04  0.11317337026E+04  0.91235823880E+02 0.  0.
         11    1    3    3    0    0  0.19377654058E+03  0.16196323315E+03  0.59257093350E+03  0.64414419798E+03  0.00000000000E+00 0.  1.
        -11    1    3    3    0    0  0.69631824797E+02  0.13451122023E+03  0.46346700599E+03  0.48758950464E+03  0.00000000000E+00 0. -1.
         22    1    1    2    0    0 -0.26340836538E+03 -0.29647445338E+03  0.10669053055E+04  0.11382302049E+04  0.00000000000E+00 0. -1.
<mgrwt>
<rscale>  0 0.80364676E+03</rscale>
<asrwt>0</asrwt>
<pdfrwt beam="1">  1        2 0.33791588E+00 0.80364676E+03</pdfrwt>
<pdfrwt beam="2">  1       -2 0.11309283E-01 0.80364676E+03</pdfrwt>
<totfact> 0.29821177E+02</totfact>
</mgrwt>
</event>
<event>
 6    1  0.2238133E-007  0.1906585E+04  0.7818608E-02  0.8651586E-01
         -2   -1    0    0    0  501 -0.00000000000E+00  0.00000000000E+00  0.11928034631E+04  0.11928034631E+04  0.00000000000E+00 0.  1.
          2   -1    0    0  501    0  0.00000000000E+00 -0.00000000000E+00 -0.76187449832E+03  0.76187449832E+03  0.00000000000E+00 0. -1.
         23    2    1    2    0    0 -0.10202571745E+03  0.38954779203E+03 -0.66746639859E+03  0.78479373486E+03  0.90736341836E+02 0.  0.
         13    1    3    3    0    0 -0.21350447824E+02  0.25348445928E+03 -0.39905727002E+03  0.47324086624E+03  0.00000000000E+00 0.  1.
        -13    1    3    3    0    0 -0.80675269623E+02  0.13606333275E+03 -0.26840912857E+03  0.31155286862E+03  0.00000000000E+00 0. -1.
         22    1    1    2    0    0  0.10202571745E+03 -0.38954779203E+03  0.10983953634E+04  0.11698842266E+04  0.00000000000E+00 0.  1.
<mgrwt>
<rscale>  0 0.19065849E+04</rscale>
<asrwt>0</asrwt>
<pdfrwt beam="1">  1        2 0.11721146E+00 0.19065849E+04</pdfrwt>
<pdfrwt beam="2">  1       -2 0.18350823E+00 0.19065849E+04</pdfrwt>
<totfact> 0.58955089E+00</totfact>
</mgrwt>
</event>
<event>
 6    1  0.2238133E-007  0.1231058E+04  0.7818608E-02  0.9086097E-01
          2   -1    0    0  501    0  0.00000000000E+00  0.00000000000E+00  0.17679553353E+04  0.17679553353E+04  0.00000000000E+00 0. -1.
         -2   -1    0    0    0  501 -0.00000000000E+00 -0.00000000000E+00 -0.21430190888E+03  0.21430190888E+03  0.00000000000E+00 0.  1.
         23    2    1    2    0    0  0.15487741080E+03  0.22995866846E+03 -0.97492951381E+02  0.30799550763E+03  0.92132272167E+02 0.  0.
         13    1    3    3    0    0  0.70267251631E+02  0.32999218070E+02 -0.21385539808E+02  0.80521899865E+02  0.00000000000E+00 0. -1.
        -13    1    3    3    0    0  0.84610159165E+02  0.19695945039E+03 -0.76107411573E+02  0.22747360776E+03  0.00000000000E+00 0.  1.
         22    1    1    2    0    0 -0.15487741080E+03 -0.22995866846E+03  0.16511463778E+04  0.16742617365E+04  0.00000000000E+00 0. -1.
<mgrwt>
<rscale>  0 0.12310584E+04</rscale>
<asrwt>0</asrwt>
<pdfrwt beam="1">  1        2 0.27199312E+00 0.12310584E+04</pdfrwt>
<pdfrwt beam="2">  1       -2 0.32969526E-01 0.12310584E+04</pdfrwt>
<totfact> 0.76004882E+01</totfact>
</mgrwt>
</event>
<event>
 6    1  0.2238133E-007  0.1117722E+04  0.7818608E-02  0.9188089E-01
          2   -1    0    0  501    0  0.00000000000E+00  0.00000000000E+00  0.56826497532E+03  0.56826497532E+03  0.00000000000E+00 0. -1.
         -2   -1    0    0    0  501 -0.00000000000E+00 -0.00000000000E+00 -0.54961248070E+03  0.54961248070E+03  0.00000000000E+00 0.  1.
         23    2    1    2    0    0  0.45569026437E+03  0.19561891174E+03  0.25893628200E+03  0.56682693734E+03  0.91238166827E+02 0.  0.
         11    1    3    3    0    0  0.96637641454E+02  0.51103149038E+02  0.17654021507E+02  0.11073405105E+03  0.00000000000E+00 0.  1.
        -11    1    3    3    0    0  0.35905262291E+03  0.14451576270E+03  0.24128226049E+03  0.45609288628E+03  0.00000000000E+00 0. -1.
         22    1    1    2    0    0 -0.45569026437E+03 -0.19561891174E+03 -0.24028378737E+03  0.55105051869E+03  0.00000000000E+00 0.  1.
<mgrwt>
<rscale>  0 0.11177218E+04</rscale>
<asrwt>0</asrwt>
<pdfrwt beam="1">  1        2 0.87425381E-01 0.11177218E+04</pdfrwt>
<pdfrwt beam="2">  1       -2 0.84555766E-01 0.11177218E+04</pdfrwt>
<totfact> 0.64073559E+01</totfact>
</mgrwt>
</event>
<event>
 6    1  0.2238133E-007  0.1904048E+04  0.7818608E-02  0.8652844E-01
          2   -1    0    0  501    0  0.00000000000E+00  0.00000000000E+00  0.96276478460E+03  0.96276478460E+03  0.00000000000E+00 0. -1.
         -2   -1    0    0    0  501 -0.00000000000E+00 -0.00000000000E+00 -0.94140261624E+03  0.94140261624E+03  0.00000000000E+00 0.  1.
         23    2    1    2    0    0  0.80962812663E+03  0.28712528704E+03  0.41782119428E+03  0.95806043379E+03  0.73257153384E+02 0.  0.
         11    1    3    3    0    0  0.61130023102E+03  0.20653947277E+03  0.34661541544E+03  0.73245393881E+03  0.00000000000E+00 0.  1.
        -11    1    3    3    0    0  0.19832789561E+03  0.80585814271E+02  0.71205778842E+02  0.22560649498E+03  0.00000000000E+00 0. -1.
         22    1    1    2    0    0 -0.80962812663E+03 -0.28712528704E+03 -0.39645902591E+03  0.94610696705E+03  0.00000000000E+00 0.  1.
<mgrwt>
<rscale>  0 0.19040476E+04</rscale>
<asrwt>0</asrwt>
<pdfrwt beam="1">  1        2 0.14811766E+00 0.19040476E+04</pdfrwt>
<pdfrwt beam="2">  1       -2 0.14483117E+00 0.19040476E+04</pdfrwt>
<totfact> 0.81940227E+00</totfact>
</mgrwt>
</event>
<event>
 6    1  0.2238133E-007  0.2110994E+04  0.7818608E-02  0.8556416E-01
          2   -1    0    0  501    0  0.00000000000E+00  0.00000000000E+00  0.20907765995E+04  0.20907765995E+04  0.00000000000E+00 0. -1.
         -2   -1    0    0    0  501 -0.00000000000E+00 -0.00000000000E+00 -0.53285163390E+03  0.53285163390E+03  0.00000000000E+00 0.  1.
         23    2    1    2    0    0  0.34952777260E+03  0.75474786283E+03 -0.24065822959E+02  0.83630933198E+03  0.83786243811E+02 0.  0.
         13    1    3    3    0    0  0.19928854885E+03  0.48576414046E+03  0.17940745115E+02  0.52536139580E+03  0.00000000000E+00 0. -1.
        -13    1    3    3    0    0  0.15023922375E+03  0.26898372238E+03 -0.42006568073E+02  0.31094793618E+03  0.00000000000E+00 0.  1.
         22    1    1    2    0    0 -0.34952777260E+03 -0.75474786283E+03  0.15819907886E+04  0.17873189015E+04  0.00000000000E+00 0. -1.
<mgrwt>
<rscale>  0 0.21109938E+04</rscale>
<asrwt>0</asrwt>
<pdfrwt beam="1">  1        2 0.32165793E+00 0.21109938E+04</pdfrwt>
<pdfrwt beam="2">  1       -2 0.81977175E-01 0.21109938E+04</pdfrwt>
<totfact> 0.71611840E+00</totfact>
</mgrwt>
</event>
<event>
 6    1  0.2238133E-007  0.2718788E+04  0.7818608E-02  0.8328935E-01
         -2   -1    0    0    0  501 -0.00000000000E+00  0.00000000000E+00  0.10939655801E+04  0.10939655801E+04  0.00000000000E+00 0.  1.
          2   -1    0    0  501    0  0.00000000000E+00 -0.00000000000E+00 -0.16892228350E+04  0.16892228350E+04  0.00000000000E+00 0. -1.
         23    2    1    2    0    0 -0.50624606763E+03  0.10679757269E+04 -0.98233930571E+03  0.15395285950E+04  0.91107349742E+02 0.  0.
         11    1    3    3    0    0 -0.61853282630E+02  0.16239740783E+03 -0.18407503446E+03  0.25314494850E+03  0.00000000000E+00 0. -1.
        -11    1    3    3    0    0 -0.44439278499E+03  0.90557831905E+03 -0.79826427125E+03  0.12863836465E+04  0.00000000000E+00 0.  1.
         22    1    1    2    0    0  0.50624606763E+03 -0.10679757269E+04  0.38708205080E+03  0.12436598201E+04  0.00000000000E+00 0.  1.
<mgrwt>
<rscale>  0 0.27187877E+04</rscale>
<asrwt>0</asrwt>
<pdfrwt beam="1">  1        2 0.25988044E+00 0.27187877E+04</pdfrwt>
<pdfrwt beam="2">  1       -2 0.16830240E+00 0.27187877E+04</pdfrwt>
<totfact> 0.19092409E+00</totfact>
</mgrwt>
</event>
<event>
 6    1  0.2238133E-007  0.1838763E+04  0.7818608E-02  0.8685953E-01
         -2   -1    0    0    0  501 -0.00000000000E+00  0.00000000000E+00  0.91214083952E+03  0.91214083952E+03  0.00000000000E+00 0.  1.
          2   -1    0    0  501    0  0.00000000000E+00 -0.00000000000E+00 -0.92667917395E+03  0.92667917395E+03  0.00000000000E+00 0. -1.
         23    2    1    2    0    0  0.91356859088E+03 -0.62991258926E+02 -0.58072625288E+02  0.92204812067E+03  0.90690893075E+02 0.  0.
         13    1    3    3    0    0  0.36818697288E+03 -0.50075913352E+02 -0.60731908492E+02  0.37650711654E+03  0.00000000000E+00 0.  1.
        -13    1    3    3    0    0  0.54538161800E+03 -0.12915345575E+02  0.26592832046E+01  0.54554100413E+03  0.00000000000E+00 0. -1.
         22    1    1    2    0    0 -0.91356859088E+03  0.62991258926E+02  0.43534290850E+02  0.91677189280E+03  0.00000000000E+00 0.  1.
<mgrwt>
<rscale>  0 0.18387625E+04</rscale>
<asrwt>0</asrwt>
<pdfrwt beam="1">  1        2 0.14256603E+00 0.18387625E+04</pdfrwt>
<pdfrwt beam="2">  1       -2 0.14032936E+00 0.18387625E+04</pdfrwt>
<totfact> 0.94509269E+00</totfact>
</mgrwt>
</event>
<event>
 6    1  0.2238133E-007  0.3010139E+04  0.7818608E-02  0.8240841E-01
          2   -1    0    0  501    0  0.00000000000E+00  0.00000000000E+00  0.86197103980E+03  0.86197103980E+03  0.00000000000E+00 0. -1.
         -2   -1    0    0    0  501 -0.00000000000E+00 -0.00000000000E+00 -0.26279710239E+04  0.26279710239E+04  0.00000000000E+00 0.  1.
         23    2    1    2    0    0  0.43825201085E+03 -0.12823865273E+04 -0.16397371201E+04  0.21288680976E+04  0.82228484118E+02 0.  0.
         13    1    3    3    0    0  0.98777677611E+02 -0.19948586609E+03 -0.25453504783E+03  0.33814158416E+03  0.00000000000E+00 0. -1.
        -13    1    3    3    0    0  0.33947433324E+03 -0.10829006612E+04 -0.13852020723E+04  0.17907265135E+04  0.00000000000E+00 0.  1.
         22    1    1    2    0    0 -0.43825201085E+03  0.12823865273E+04 -0.12626286400E+03  0.13610739661E+04  0.00000000000E+00 0. -1.
<mgrwt>
<rscale>  0 0.30101395E+04</rscale>
<asrwt>0</asrwt>
<pdfrwt beam="1">  1        2 0.13261093E+00 0.30101395E+04</pdfrwt>
<pdfrwt beam="2">  1       -2 0.40430323E+00 0.30101395E+04</pdfrwt>
<totfact> 0.18509526E-01</totfact>
</mgrwt>
</event>
<event>
 6    1  0.2238133E-007  0.2317263E+04  0.7818608E-02  0.8471146E-01
         -2   -1    0    0    0  501 -0.00000000000E+00  0.00000000000E+00  0.75297576047E+03  0.75297576047E+03  0.00000000000E+00 0.  1.
          2   -1    0    0  501    0  0.00000000000E+00 -0.00000000000E+00 -0.17828285868E+04  0.17828285868E+04  0.00000000000E+00 0. -1.
         23    2    1    2    0    0  0.11349503468E+04 -0.14665190857E+03 -0.33110992577E+03  0.11949610629E+04  0.93161617690E+02 0.  0.
         13    1    3    3    0    0  0.48313614641E+03 -0.76869561108E+02 -0.18723636510E+03  0.52381955081E+03  0.00000000000E+00 0. -1.
        -13    1    3    3    0    0  0.65181420038E+03 -0.69782347466E+02 -0.14387356067E+03  0.67114151213E+03  0.00000000000E+00 0.  1.
         22    1    1    2    0    0 -0.11349503468E+04  0.14665190857E+03 -0.69874290053E+03  0.13408432843E+04  0.00000000000E+00 0. -1.
<mgrwt>
<rscale>  0 0.23172628E+04</rscale>
<asrwt>0</asrwt>
<pdfrwt beam="1">  1        2 0.27428132E+00 0.23172628E+04</pdfrwt>
<pdfrwt beam="2">  1       -2 0.11584242E+00 0.23172628E+04</pdfrwt>
<totfact> 0.46256024E+00</totfact>
</mgrwt>
</event>
<event>
 6    1  0.2238133E-007  0.1143967E+04  0.7818608E-02  0.9163368E-01
          2   -1    0    0  501    0  0.00000000000E+00  0.00000000000E+00  0.11570292494E+04  0.11570292494E+04  0.00000000000E+00 0. -1.
         -2   -1    0    0    0  501 -0.00000000000E+00 -0.00000000000E+00 -0.28276288114E+03  0.28276288114E+03  0.00000000000E+00 0.  1.
         23    2    1    2    0    0  0.28887581315E+03  0.43557248692E+03  0.72009148371E+03  0.89486780386E+03  0.95310097496E+02 0.  0.
         13    1    3    3    0    0  0.24206503152E+03  0.34407008021E+03  0.51109161032E+03  0.66196248664E+03  0.00000000000E+00 0. -1.
        -13    1    3    3    0    0  0.46810781635E+02  0.91502406701E+02  0.20899987339E+03  0.23290531722E+03  0.00000000000E+00 0.  1.
         22    1    1    2    0    0 -0.28887581315E+03 -0.43557248692E+03  0.15417488454E+03  0.54492432668E+03  0.00000000000E+00 0.  1.
<mgrwt>
<rscale>  0 0.11439667E+04</rscale>
<asrwt>0</asrwt>
<pdfrwt beam="1">  1        2 0.17800450E+00 0.11439667E+04</pdfrwt>
<pdfrwt beam="2">  1       -2 0.43501982E-01 0.11439667E+04</pdfrwt>
<totfact> 0.99695233E+01</totfact>
</mgrwt>
</event>
<event>
 6    1  0.2238133E-007  0.6931338E+03  0.7818608E-02  0.9729047E-01
          1   -1    0    0  501    0  0.00000000000E+00  0.00000000000E+00  0.11835227466E+04  0.11835227466E+04  0.00000000000E+00 0. -1.
         -1   -1    0    0    0  501 -0.00000000000E+00 -0.00000000000E+00 -0.10148399050E+03  0.10148399050E+03  0.00000000000E+00 0.  1.
         23    2    1    2    0    0 -0.16514480459E+03  0.14641342023E+03  0.69961050356E+02  0.24914430483E+03  0.92025213704E+02 0.  0.
         13    1    3    3    0    0 -0.10562337214E+03  0.12226845723E+03  0.85865935683E+02  0.18297221452E+03  0.00000000000E+00 0. -1.
        -13    1    3    3    0    0 -0.59521432449E+02  0.24144962997E+02 -0.15904885326E+02  0.66172090311E+02  0.00000000000E+00 0.  1.
         22    1    1    2    0    0  0.16514480459E+03 -0.14641342023E+03  0.10120777058E+04  0.10358624323E+04  0.00000000000E+00 0. -1.
<mgrwt>
<rscale>  0 0.69313379E+03</rscale>
<asrwt>0</asrwt>
<pdfrwt beam="1">  1        1 0.18208041E+00 0.69313379E+03</pdfrwt>
<pdfrwt beam="2">  1       -1 0.15612923E-01 0.69313379E+03</pdfrwt>
<totfact> 0.34379397E+02</totfact>
</mgrwt>
</event>
<event>
 6    1  0.2238133E-007  0.1765235E+04  0.7818608E-02  0.8725009E-01
          4   -1    0    0  501    0  0.00000000000E+00  0.00000000000E+00  0.98599857708E+03  0.98599857708E+03  0.00000000000E+00 0. -1.
         -4   -1    0    0    0  501 -0.00000000000E+00 -0.00000000000E+00 -0.79007616199E+03  0.79007616199E+03  0.00000000000E+00 0.  1.
         23    2    1    2    0    0 -0.72420270047E+03 -0.17036018721E+03 -0.37492095727E+03  0.83833580925E+03  0.93536410630E+02 0.  0.
         13    1    3    3    0    0 -0.43852595555E+03 -0.77851526220E+02 -0.18026044736E+03  0.48047861836E+03  0.00000000000E+00 0. -1.
        -13    1    3    3    0    0 -0.28567674492E+03 -0.92508660992E+02 -0.19466050992E+03  0.35785719088E+03  0.00000000000E+00 0.  1.
         22    1    1    2    0    0  0.72420270047E+03  0.17036018721E+03  0.57084337236E+03  0.93773892983E+03  0.00000000000E+00 0.  1.
<mgrwt>
<rscale>  0 0.17652354E+04</rscale>
<asrwt>0</asrwt>
<pdfrwt beam="1">  1        4 0.15169209E+00 0.17652354E+04</pdfrwt>
<pdfrwt beam="2">  1       -4 0.12155018E+00 0.17652354E+04</pdfrwt>
<totfact> 0.28072597E-01</totfact>
</mgrwt>
</event>
<event>
 6    1  0.2238133E-007  0.4151874E+04  0.7818608E-02  0.7974590E-01
         -2   -1    0    0    0  501 -0.00000000000E+00  0.00000000000E+00  0.10330720387E+04  0.10330720387E+04  0.00000000000E+00 0.  1.
          2   -1    0    0  501    0  0.00000000000E+00 -0.00000000000E+00 -0.41715530124E+04  0.41715530124E+04  0.00000000000E+00 0. -1.
         23    2    1    2    0    0 -0.13259089993E+04 -0.15473759590E+04 -0.20604247376E+04  0.28992807643E+04  0.89843297977E+02 0.  0.
         11    1    3    3    0    0 -0.69496209757E+03 -0.75177660738E+03 -0.10671886957E+04  0.14788617571E+04  0.00000000000E+00 0. -1.
        -11    1    3    3    0    0 -0.63094690172E+03 -0.79559935157E+03 -0.99323604186E+03  0.14204190071E+04  0.00000000000E+00 0.  1.
         22    1    1    2    0    0  0.13259089993E+04  0.15473759590E+04 -0.10780562361E+04  0.23053442868E+04  0.00000000000E+00 0.  1.
<mgrwt>
<rscale>  0 0.41518742E+04</rscale>
<asrwt>0</asrwt>
<pdfrwt beam="1">  1        2 0.64177740E+00 0.41518742E+04</pdfrwt>
<pdfrwt beam="2">  1       -2 0.15893416E+00 0.41518742E+04</pdfrwt>
<totfact> 0.48948594E-02</totfact>
</mgrwt>
</event>
<event>
 6    1  0.2238133E-007  0.1786251E+04  0.7818608E-02  0.8713645E-01
         -2   -1    0    0    0  501 -0.00000000000E+00  0.00000000000E+00  0.86849233195E+03  0.86849233195E+03  0.00000000000E+00 0.  1.
          2   -1    0    0  501    0  0.00000000000E+00 -0.00000000000E+00 -0.91845728235E+03  0.91845728235E+03  0.00000000000E+00 0. -1.
         23    2    1    2    0    0  0.46188767151E+03  0.74982889521E+03  0.10666743789E+03  0.89245685400E+03  0.97558704198E+02 0.  0.
         11    1    3    3    0    0  0.26644143288E+03  0.48260464821E+03  0.26974119192E+02  0.55192924069E+03  0.00000000000E+00 0. -1.
        -11    1    3    3    0    0  0.19544623863E+03  0.26722424700E+03  0.79693318695E+02  0.34052761331E+03  0.00000000000E+00 0.  1.
         22    1    1    2    0    0 -0.46188767151E+03 -0.74982889521E+03 -0.15663238829E+03  0.89449276031E+03  0.00000000000E+00 0.  1.
<mgrwt>
<rscale>  0 0.17862509E+04</rscale>
<asrwt>0</asrwt>
<pdfrwt beam="1">  1        2 0.14130112E+00 0.17862509E+04</pdfrwt>
<pdfrwt beam="2">  1       -2 0.13361421E+00 0.17862509E+04</pdfrwt>
<totfact> 0.10906580E+01</totfact>
</mgrwt>
</event>
<event>
 6    1  0.2238133E-007  0.3128523E+04  0.7818608E-02  0.8207953E-01
          2   -1    0    0  501    0  0.00000000000E+00  0.00000000000E+00  0.18690427980E+04  0.18690427980E+04  0.00000000000E+00 0. -1.
         -2   -1    0    0    0  501 -0.00000000000E+00 -0.00000000000E+00 -0.13091802476E+04  0.13091802476E+04  0.00000000000E+00 0.  1.
         23    2    1    2    0    0  0.51988083223E+03 -0.35205684135E+03 -0.11738579372E+04  0.13343123025E+04  0.90701514385E+02 0.  0.
         11    1    3    3    0    0  0.19508805322E+03 -0.81914397092E+02 -0.41270741522E+03  0.46378521704E+03  0.00000000000E+00 0. -1.
        -11    1    3    3    0    0  0.32479277901E+03 -0.27014244425E+03 -0.76115052199E+03  0.87052708551E+03  0.00000000000E+00 0.  1.
         22    1    1    2    0    0 -0.51988083223E+03  0.35205684135E+03  0.17337204876E+04  0.18439107431E+04  0.00000000000E+00 0. -1.
<mgrwt>
<rscale>  0 0.31285229E+04</rscale>
<asrwt>0</asrwt>
<pdfrwt beam="1">  1        2 0.28754505E+00 0.31285229E+04</pdfrwt>
<pdfrwt beam="2">  1       -2 0.20141235E+00 0.31285229E+04</pdfrwt>
<totfact> 0.87126391E-01</totfact>
</mgrwt>
</event>
<event>
 6    1  0.2238133E-007  0.5020460E+04  0.7818608E-02  0.7825359E-01
         -2   -1    0    0    0  501 -0.00000000000E+00  0.00000000000E+00  0.22258592914E+04  0.22258592914E+04  0.00000000000E+00 0.  1.
          2   -1    0    0  501    0  0.00000000000E+00 -0.00000000000E+00 -0.28309308848E+04  0.28309308848E+04  0.00000000000E+00 0. -1.
         23    2    1    2    0    0  0.61138401408E+03 -0.21664885202E+04  0.81433707087E+03  0.23955528931E+04  0.89810231474E+02 0.  0.
         13    1    3    3    0    0  0.69736888864E+02 -0.27853060823E+03  0.13486934754E+03  0.31722590420E+03  0.00000000000E+00 0. -1.
        -13    1    3    3    0    0  0.54164712522E+03 -0.18879579120E+04  0.67946772333E+03  0.20783269889E+04  0.00000000000E+00 0.  1.
         22    1    1    2    0    0 -0.61138401408E+03  0.21664885202E+04 -0.14194086642E+04  0.26612372831E+04  0.00000000000E+00 0. -1.
<mgrwt>
<rscale>  0 0.50204597E+04</rscale>
<asrwt>0</asrwt>
<pdfrwt beam="1">  1        2 0.43552783E+00 0.50204597E+04</pdfrwt>
<pdfrwt beam="2">  1       -2 0.34243989E+00 0.50204597E+04</pdfrwt>
<totfact> 0.27936561E-02</totfact>
</mgrwt>
</event>
<event>
 6    1  0.2238133E-007  0.2956272E+04  0.7818608E-02  0.8256329E-01
         -2   -1    0    0    0  501 -0.00000000000E+00  0.00000000000E+00  0.12501389977E+04  0.12501389977E+04  0.00000000000E+00 0.  1.
          2   -1    0    0  501    0  0.00000000000E+00 -0.00000000000E+00 -0.17477142514E+04  0.17477142514E+04  0.00000000000E+00 0. -1.
         23    2    1    2    0    0  0.13548826129E+03  0.13025447478E+04  0.44307632705E+03  0.13854620790E+04  0.90601609164E+02 0.  0.
         13    1    3    3    0    0  0.14209931433E+03  0.10685937352E+04  0.38069450043E+03  0.11432467314E+04  0.00000000000E+00 0.  1.
        -13    1    3    3    0    0 -0.66110530376E+01  0.23395101261E+03  0.62381826627E+02  0.24221534760E+03  0.00000000000E+00 0. -1.
         22    1    1    2    0    0 -0.13548826129E+03 -0.13025447478E+04 -0.94065158070E+03  0.16123911701E+04  0.00000000000E+00 0. -1.
<mgrwt>
<rscale>  0 0.29562718E+04</rscale>
<asrwt>0</asrwt>
<pdfrwt beam="1">  1        2 0.26887911E+00 0.29562718E+04</pdfrwt>
<pdfrwt beam="2">  1       -2 0.19232908E+00 0.29562718E+04</pdfrwt>
<totfact> 0.11852676E+00</totfact>
</mgrwt>
</event>
<event>
 6    1  0.2238133E-007  0.1663710E+04  0.7818608E-02  0.8782337E-01
         -2   -1    0    0    0  501 -0.00000000000E+00  0.00000000000E+00  0.14675653702E+04  0.14675653702E+04  0.00000000000E+00 0.  1.
          2   -1    0    0  501    0  0.00000000000E+00 -0.00000000000E+00 -0.47151754508E+03  0.47151754508E+03  0.00000000000E+00 0. -1.
         23    2    1    2    0    0  0.26394418755E+03  0.20293208401E+02  0.14157196340E+04  0.14428946691E+04  0.87204333417E+02 0.  0.
         13    1    3    3    0    0  0.88876419777E+02  0.31403747463E+02  0.33411340585E+03  0.34715555780E+03  0.00000000000E+00 0. -1.
        -13    1    3    3    0    0  0.17506776777E+03 -0.11110539063E+02  0.10816062281E+04  0.10957391113E+04  0.00000000000E+00 0.  1.
         22    1    1    2    0    0 -0.26394418755E+03 -0.20293208401E+02 -0.41967180886E+03  0.49618824613E+03  0.00000000000E+00 0. -1.
<mgrwt>
<rscale>  0 0.16637101E+04</rscale>
<asrwt>0</asrwt>
<pdfrwt beam="1">  1        2 0.72541161E-01 0.16637101E+04</pdfrwt>
<pdfrwt beam="2">  1       -2 0.22577929E+00 0.16637101E+04</pdfrwt>
<totfact> 0.57122193E+00</totfact>
</mgrwt>
</event>
<event>
 6    1  0.2238133E-007  0.7748065E+04  0.7818608E-02  0.7504850E-01
         -2   -1    0    0    0  501 -0.00000000000E+00  0.00000000000E+00  0.43671420480E+04  0.43671420480E+04  0.00000000000E+00 0.  1.
          2   -1    0    0  501    0  0.00000000000E+00 -0.00000000000E+00 -0.34366013010E+04  0.34366013010E+04  0.00000000000E+00 0. -1.
         23    2    1    2    0    0  0.16622890677E+04  0.27234820022E+04 -0.17467827188E+04  0.36385758732E+04  0.86170516011E+02 0.  0.
         11    1    3    3    0    0  0.25938360320E+03  0.36772400171E+03 -0.24284492250E+03  0.51134572593E+03  0.00000000000E+00 0. -1.
        -11    1    3    3    0    0  0.14029054645E+04  0.23557580005E+04 -0.15039377963E+04  0.31272301473E+04  0.00000000000E+00 0.  1.
         22    1    1    2    0    0 -0.16622890677E+04 -0.27234820022E+04  0.26773234658E+04  0.41651674757E+04  0.00000000000E+00 0.  1.
<mgrwt>
<rscale>  0 0.77480645E+04</rscale>
<asrwt>0</asrwt>
<pdfrwt beam="1">  1        2 0.52870789E+00 0.77480645E+04</pdfrwt>
<pdfrwt beam="2">  1       -2 0.67186801E+00 0.77480645E+04</pdfrwt>
<totfact> 0.15565569E-04</totfact>
</mgrwt>
</event>
<event>
 6    1  0.2238133E-007  0.1494515E+04  0.7818608E-02  0.8888109E-01
          2   -1    0    0  501    0  0.00000000000E+00  0.00000000000E+00  0.13812876717E+04  0.13812876717E+04  0.00000000000E+00 0. -1.
         -2   -1    0    0    0  501 -0.00000000000E+00 -0.00000000000E+00 -0.40425582887E+03  0.40425582887E+03  0.00000000000E+00 0.  1.
         23    2    1    2    0    0  0.70196484678E+01  0.65277649770E+03  0.91793544512E+03  0.11300598504E+04  0.90902984473E+02 0.  0.
         11    1    3    3    0    0  0.26275856391E+02  0.38888038338E+03  0.47903355317E+03  0.61756903927E+03  0.00000000000E+00 0. -1.
        -11    1    3    3    0    0 -0.19256207923E+02  0.26389611433E+03  0.43890189195E+03  0.51249081109E+03  0.00000000000E+00 0.  1.
         22    1    1    2    0    0 -0.70196484678E+01 -0.65277649770E+03  0.59096397680E+02  0.65548365017E+03  0.00000000000E+00 0.  1.
<mgrwt>
<rscale>  0 0.14945148E+04</rscale>
<asrwt>0</asrwt>
<pdfrwt beam="1">  1        2 0.21250579E+00 0.14945148E+04</pdfrwt>
<pdfrwt beam="2">  1       -2 0.62193205E-01 0.14945148E+04</pdfrwt>
<totfact> 0.34402745E+01</totfact>
</mgrwt>
</event>
<event>
 6    1  0.2238133E-007  0.1546688E+04  0.7818608E-02  0.8853986E-01
         -2   -1    0    0    0  501 -0.00000000000E+00  0.00000000000E+00  0.11043374878E+04  0.11043374878E+04  0.00000000000E+00 0.  1.
          2   -1    0    0  501    0  0.00000000000E+00 -0.00000000000E+00 -0.54155615505E+03  0.54155615505E+03  0.00000000000E+00 0. -1.
         23    2    1    2    0    0 -0.26552346925E+03 -0.15351410892E+03 -0.46994345439E+03  0.56858691756E+03  0.91514688097E+02 0.  0.
         13    1    3    3    0    0 -0.44902522099E+02  0.82584451998E+01 -0.82513609017E+02  0.94302354589E+02  0.00000000000E+00 0. -1.
        -13    1    3    3    0    0 -0.22062094715E+03 -0.16177255412E+03 -0.38742984538E+03  0.47428456298E+03  0.00000000000E+00 0.  1.
         22    1    1    2    0    0  0.26552346925E+03  0.15351410892E+03  0.10327247871E+04  0.10773067253E+04  0.00000000000E+00 0.  1.
<mgrwt>
<rscale>  0 0.15466878E+04</rscale>
<asrwt>0</asrwt>
<pdfrwt beam="1">  1        2 0.83316332E-01 0.15466878E+04</pdfrwt>
<pdfrwt beam="2">  1       -2 0.16989807E+00 0.15466878E+04</pdfrwt>
<totfact> 0.11513859E+01</totfact>
</mgrwt>
</event>
<event>
 6    1  0.2238133E-007  0.2582740E+04  0.7818608E-02  0.8374088E-01
          1   -1    0    0  501    0  0.00000000000E+00  0.00000000000E+00  0.17413171363E+04  0.17413171363E+04  0.00000000000E+00 0. -1.
         -1   -1    0    0    0  501 -0.00000000000E+00 -0.00000000000E+00 -0.95768657777E+03  0.95768657777E+03  0.00000000000E+00 0.  1.
         23    2    1    2    0    0 -0.77956903059E+02  0.74562666784E+03  0.14891481194E+04  0.16695419929E+04  0.88158595712E+02 0.  0.
         13    1    3    3    0    0 -0.30411803607E+02  0.24124809639E+03  0.39581218264E+03  0.46453504253E+03  0.00000000000E+00 0. -1.
        -13    1    3    3    0    0 -0.47545099452E+02  0.50437857145E+03  0.10933359368E+04  0.12050069504E+04  0.00000000000E+00 0.  1.
         22    1    1    2    0    0  0.77956903059E+02 -0.74562666784E+03 -0.70551756091E+03  0.10294617211E+04  0.00000000000E+00 0.  1.
<mgrwt>
<rscale>  0 0.25827397E+04</rscale>
<asrwt>0</asrwt>
<pdfrwt beam="1">  1        1 0.26789494E+00 0.25827397E+04</pdfrwt>
<pdfrwt beam="2">  1       -1 0.14733640E+00 0.25827397E+04</pdfrwt>
<totfact> 0.14423956E+00</totfact>
</mgrwt>
</event>
<event>
 6    1  0.2238133E-007  0.2981065E+04  0.7818608E-02  0.8249159E-01
          2   -1    0    0  501    0  0.00000000000E+00  0.00000000000E+00  0.30394800721E+04  0.30394800721E+04  0.00000000000E+00 0. -1.
         -2   -1    0    0    0  501 -0.00000000000E+00 -0.00000000000E+00 -0.73094300110E+03  0.73094300110E+03  0.00000000000E+00 0.  1.
         23    2    1    2    0    0 -0.91363138923E+03 -0.53057251762E+03 -0.17222548122E+03  0.10740528552E+04  0.87740569845E+02 0.  0.
         11    1    3    3    0    0 -0.56119998006E+03 -0.36359689385E+03 -0.81371758668E+02  0.67362413996E+03  0.00000000000E+00 0. -1.
        -11    1    3    3    0    0 -0.35243140917E+03 -0.16697562378E+03 -0.90853722556E+02  0.40042871526E+03  0.00000000000E+00 0.  1.
         22    1    1    2    0    0  0.91363138923E+03  0.53057251762E+03  0.24807625522E+04  0.26963702180E+04  0.00000000000E+00 0. -1.
<mgrwt>
<rscale>  0 0.29810647E+04</rscale>
<asrwt>0</asrwt>
<pdfrwt beam="1">  1        2 0.46761231E+00 0.29810647E+04</pdfrwt>
<pdfrwt beam="2">  1       -2 0.11245277E+00 0.29810647E+04</pdfrwt>
<totfact> 0.87736916E-01</totfact>
</mgrwt>
</event>
<event>
 6    1  0.2238133E-007  0.1195033E+04  0.7818608E-02  0.9117215E-01
          2   -1    0    0  501    0  0.00000000000E+00  0.00000000000E+00  0.10150940123E+04  0.10150940123E+04  0.00000000000E+00 0. -1.
         -2   -1    0    0    0  501 -0.00000000000E+00 -0.00000000000E+00 -0.35171730564E+03  0.35171730564E+03  0.00000000000E+00 0.  1.
         23    2    1    2    0    0 -0.37831411118E+03  0.44982083874E+03  0.43163824831E+03  0.73501778617E+03  0.92082652533E+02 0.  0.
         11    1    3    3    0    0 -0.33349688239E+03  0.34751126390E+03  0.32866881705E+03  0.58310156954E+03  0.00000000000E+00 0. -1.
        -11    1    3    3    0    0 -0.44817228793E+02  0.10230957484E+03  0.10296943126E+03  0.15191621663E+03  0.00000000000E+00 0.  1.
         22    1    1    2    0    0  0.37831411118E+03 -0.44982083874E+03  0.23173845831E+03  0.63179353174E+03  0.00000000000E+00 0.  1.
<mgrwt>
<rscale>  0 0.11950333E+04</rscale>
<asrwt>0</asrwt>
<pdfrwt beam="1">  1        2 0.15616831E+00 0.11950333E+04</pdfrwt>
<pdfrwt beam="2">  1       -2 0.54110355E-01 0.11950333E+04</pdfrwt>
<totfact> 0.78195216E+01</totfact>
</mgrwt>
</event>
<event>
 6    1  0.2238133E-007  0.1220311E+04  0.7818608E-02  0.9095262E-01
         -2   -1    0    0    0  501 -0.00000000000E+00  0.00000000000E+00  0.38345888996E+03  0.38345888996E+03  0.00000000000E+00 0.  1.
          2   -1    0    0  501    0  0.00000000000E+00 -0.00000000000E+00 -0.97087249336E+03  0.97087249336E+03  0.00000000000E+00 0. -1.
         23    2    1    2    0    0  0.45669242940E+03 -0.63488666640E+01  0.14833015883E+03  0.48834803080E+03  0.88733758999E+02 0.  0.
         11    1    3    3    0    0  0.18986459454E+03 -0.60421621883E+01  0.16348100488E+02  0.19066287623E+03  0.00000000000E+00 0. -1.
        -11    1    3    3    0    0  0.26682783486E+03 -0.30670447566E+00  0.13198205835E+03  0.29768515456E+03  0.00000000000E+00 0.  1.
         22    1    1    2    0    0 -0.45669242940E+03  0.63488666640E+01 -0.73574376223E+03  0.86598335252E+03  0.00000000000E+00 0. -1.
<mgrwt>
<rscale>  0 0.12203109E+04</rscale>
<asrwt>0</asrwt>
<pdfrwt beam="1">  1        2 0.14936500E+00 0.12203109E+04</pdfrwt>
<pdfrwt beam="2">  1       -2 0.58993676E-01 0.12203109E+04</pdfrwt>
<totfact> 0.69594719E+01</totfact>
</mgrwt>
</event>
<event>
 6    1  0.2238133E-007  0.1525869E+04  0.7818608E-02  0.8867430E-01
          2   -1    0    0  501    0  0.00000000000E+00  0.00000000000E+00  0.13969901017E+04  0.13969901017E+04  0.00000000000E+00 0. -1.
         -2   -1    0    0    0  501 -0.00000000000E+00 -0.00000000000E+00 -0.41665937871E+03  0.41665937871E+03  0.00000000000E+00 0.  1.
         23    2    1    2    0    0  0.53797977167E+03 -0.10751054884E+03  0.11174726293E+04  0.12481508904E+04  0.90304014933E+02 0.  0.
         13    1    3    3    0    0  0.44848804456E+03 -0.10266385930E+03  0.99660609945E+03  0.10976816987E+04  0.00000000000E+00 0. -1.
        -13    1    3    3    0    0  0.89491727116E+02 -0.48466895398E+01  0.12086652983E+03  0.15046919172E+03  0.00000000000E+00 0.  1.
         22    1    1    2    0    0 -0.53797977167E+03  0.10751054884E+03 -0.13714190632E+03  0.56549859002E+03  0.00000000000E+00 0.  1.
<mgrwt>
<rscale>  0 0.15258690E+04</rscale>
<asrwt>0</asrwt>
<pdfrwt beam="1">  1        2 0.21492155E+00 0.15258690E+04</pdfrwt>
<pdfrwt beam="2">  1       -2 0.64101443E-01 0.15258690E+04</pdfrwt>
<totfact> 0.31512295E+01</totfact>
</mgrwt>
</event>
<event>
 6    1  0.2238133E-007  0.3738949E+04  0.7818608E-02  0.8059385E-01
          2   -1    0    0  501    0  0.00000000000E+00  0.00000000000E+00  0.18898205999E+04  0.18898205999E+04  0.00000000000E+00 0. -1.
         -2   -1    0    0    0  501 -0.00000000000E+00 -0.00000000000E+00 -0.18493472837E+04  0.18493472837E+04  0.00000000000E+00 0.  1.
         23    2    1    2    0    0  0.18352487966E+04  0.30860841690E+03  0.18599401403E+03  0.18724719860E+04  0.90444816830E+02 0.  0.
         13    1    3    3    0    0  0.10422481709E+04  0.20462548784E+03  0.14039760025E+03  0.10713843037E+04  0.00000000000E+00 0.  1.
        -13    1    3    3    0    0  0.79300062570E+03  0.10398292906E+03  0.45596413780E+02  0.80108768237E+03  0.00000000000E+00 0. -1.
         22    1    1    2    0    0 -0.18352487966E+04 -0.30860841690E+03 -0.14552069781E+03  0.18666958975E+04  0.00000000000E+00 0. -1.
<mgrwt>
<rscale>  0 0.37389488E+04</rscale>
<asrwt>0</asrwt>
<pdfrwt beam="1">  1        2 0.29074163E+00 0.37389488E+04</pdfrwt>
<pdfrwt beam="2">  1       -2 0.28451497E+00 0.37389488E+04</pdfrwt>
<totfact> 0.24502376E-01</totfact>
</mgrwt>
</event>
<event>
 6    1  0.2238133E-007  0.1193820E+04  0.7818608E-02  0.9118283E-01
          2   -1    0    0  501    0  0.00000000000E+00  0.00000000000E+00  0.15244943311E+04  0.15244943311E+04  0.00000000000E+00 0. -1.
         -2   -1    0    0    0  501 -0.00000000000E+00 -0.00000000000E+00 -0.23371785515E+03  0.23371785515E+03  0.00000000000E+00 0.  1.
         23    2    1    2    0    0 -0.26161145044E+03 -0.52652978361E+03  0.53121364717E+03  0.79768636415E+03  0.91877269103E+02 0.  0.
         13    1    3    3    0    0 -0.14613803433E+03 -0.36469202702E+03  0.39188474225E+03  0.55491463385E+03  0.00000000000E+00 0.  1.
        -13    1    3    3    0    0 -0.11547341612E+03 -0.16183775659E+03  0.13932890492E+03  0.24277173030E+03  0.00000000000E+00 0. -1.
         22    1    1    2    0    0  0.26161145044E+03  0.52652978361E+03  0.75956282876E+03  0.96052582207E+03  0.00000000000E+00 0.  1.
<mgrwt>
<rscale>  0 0.11938200E+04</rscale>
<asrwt>0</asrwt>
<pdfrwt beam="1">  1        2 0.23453758E+00 0.11938200E+04</pdfrwt>
<pdfrwt beam="2">  1       -2 0.35956594E-01 0.11938200E+04</pdfrwt>
<totfact> 0.88245496E+01</totfact>
</mgrwt>
</event>
<event>
 6    1  0.2238133E-007  0.3076410E+04  0.7818608E-02  0.8222242E-01
          2   -1    0    0  501    0  0.00000000000E+00  0.00000000000E+00  0.23574466736E+04  0.23574466736E+04  0.00000000000E+00 0. -1.
         -2   -1    0    0    0  501 -0.00000000000E+00 -0.00000000000E+00 -0.10036597825E+04  0.10036597825E+04  0.00000000000E+00 0.  1.
         23    2    1    2    0    0  0.13467516359E+04  0.59970545590E+03  0.11512589732E+04  0.18730190393E+04  0.97038628902E+02 0.  0.
         13    1    3    3    0    0  0.10429986277E+03  0.54606949528E+02  0.61712260935E+02  0.13292397624E+03  0.00000000000E+00 0. -1.
        -13    1    3    3    0    0  0.12424517731E+04  0.54509850638E+03  0.10895467122E+04  0.17400950630E+04  0.00000000000E+00 0.  1.
         22    1    1    2    0    0 -0.13467516359E+04 -0.59970545590E+03  0.20252791796E+03  0.14880874169E+04  0.00000000000E+00 0.  1.
<mgrwt>
<rscale>  0 0.30764099E+04</rscale>
<asrwt>0</asrwt>
<pdfrwt beam="1">  1        2 0.36268410E+00 0.30764099E+04</pdfrwt>
<pdfrwt beam="2">  1       -2 0.15440920E+00 0.30764099E+04</pdfrwt>
<totfact> 0.99192404E-01</totfact>
</mgrwt>
</event>
<event>
 6    1  0.2238133E-007  0.4108818E+04  0.7818608E-02  0.7982947E-01
         -2   -1    0    0    0  501 -0.00000000000E+00  0.00000000000E+00  0.24141709590E+04  0.24141709590E+04  0.00000000000E+00 0.  1.
          2   -1    0    0  501    0  0.00000000000E+00 -0.00000000000E+00 -0.17482589484E+04  0.17482589484E+04  0.00000000000E+00 0. -1.
         23    2    1    2    0    0 -0.25491803029E+03  0.18646420554E+04 -0.49889110291E+03  0.19491428744E+04  0.91610125943E+02 0.  0.
         11    1    3    3    0    0 -0.84817414814E+02  0.95662176088E+03 -0.25928984236E+03  0.99476148377E+03  0.00000000000E+00 0.  1.
        -11    1    3    3    0    0 -0.17010061548E+03  0.90802029455E+03 -0.23960126055E+03  0.95438139062E+03  0.00000000000E+00 0. -1.
         22    1    1    2    0    0  0.25491803029E+03 -0.18646420554E+04  0.11648031136E+04  0.22132870330E+04  0.00000000000E+00 0.  1.
<mgrwt>
<rscale>  0 0.41088178E+04</rscale>
<asrwt>0</asrwt>
<pdfrwt beam="1">  1        2 0.26896291E+00 0.41088178E+04</pdfrwt>
<pdfrwt beam="2">  1       -2 0.37141092E+00 0.41088178E+04</pdfrwt>
<totfact> 0.81949425E-02</totfact>
</mgrwt>
</event>
<event>
 6    1  0.2238133E-007  0.1964339E+04  0.7818608E-02  0.8623477E-01
          3   -1    0    0  501    0  0.00000000000E+00  0.00000000000E+00  0.15647098677E+04  0.15647098677E+04  0.00000000000E+00 0. -1.
         -3   -1    0    0    0  501 -0.00000000000E+00 -0.00000000000E+00 -0.61650823197E+03  0.61650823197E+03  0.00000000000E+00 0.  1.
         23    2    1    2    0    0  0.91153471554E+03  0.87930937531E+02  0.87548183141E+02  0.92449547600E+03  0.91650495698E+02 0.  0.
         11    1    3    3    0    0  0.85411256486E+03  0.88410476648E+02  0.10351441423E+03  0.86489301060E+03  0.00000000000E+00 0.  1.
        -11    1    3    3    0    0  0.57422150688E+02 -0.47953911691E+00 -0.15966231087E+02  0.59602465407E+02  0.00000000000E+00 0. -1.
         22    1    1    2    0    0 -0.91153471554E+03 -0.87930937531E+02  0.86065345261E+03  0.12567226237E+04  0.00000000000E+00 0. -1.
<mgrwt>
<rscale>  0 0.19643386E+04</rscale>
<asrwt>0</asrwt>
<pdfrwt beam="1">  1        3 0.24072459E+00 0.19643386E+04</pdfrwt>
<pdfrwt beam="2">  1       -3 0.94847421E-01 0.19643386E+04</pdfrwt>
<totfact> 0.20123900E-01</totfact>
</mgrwt>
</event>
<event>
 6    1  0.2238133E-007  0.4231710E+04  0.7818608E-02  0.7959368E-01
          2   -1    0    0  501    0  0.00000000000E+00  0.00000000000E+00  0.34264258633E+04  0.34264258633E+04  0.00000000000E+00 0. -1.
         -2   -1    0    0    0  501 -0.00000000000E+00 -0.00000000000E+00 -0.13065633630E+04  0.13065633630E+04  0.00000000000E+00 0.  1.
         23    2    1    2    0    0 -0.10964160933E+04  0.15362406094E+04  0.21276669296E+04  0.28456036354E+04  0.91268982873E+02 0.  0.
         13    1    3    3    0    0 -0.63215971213E+03  0.95757463414E+03  0.13157107835E+04  0.17457577001E+04  0.00000000000E+00 0. -1.
        -13    1    3    3    0    0 -0.46425638114E+03  0.57866597529E+03  0.81195614603E+03  0.10998459353E+04  0.00000000000E+00 0.  1.
         22    1    1    2    0    0  0.10964160933E+04 -0.15362406094E+04 -0.78044292559E+01  0.18873855909E+04  0.00000000000E+00 0. -1.
<mgrwt>
<rscale>  0 0.42317101E+04</rscale>
<asrwt>0</asrwt>
<pdfrwt beam="1">  1        2 0.52714244E+00 0.42317101E+04</pdfrwt>
<pdfrwt beam="2">  1       -2 0.20100975E+00 0.42317101E+04</pdfrwt>
<totfact> 0.92592055E-02</totfact>
</mgrwt>
</event>
<event>
 6    1  0.2238133E-007  0.1124492E+04  0.7818608E-02  0.9181644E-01
          2   -1    0    0  501    0  0.00000000000E+00  0.00000000000E+00  0.88101841939E+03  0.88101841939E+03  0.00000000000E+00 0. -1.
         -2   -1    0    0    0  501 -0.00000000000E+00 -0.00000000000E+00 -0.35881260443E+03  0.35881260443E+03  0.00000000000E+00 0.  1.
         23    2    1    2    0    0 -0.31333587448E+03  0.17033247910E+03 -0.21184169067E+03  0.42373160329E+03  0.86481478048E+02 0.  0.
         11    1    3    3    0    0 -0.23217986609E+03  0.13130638146E+03 -0.11205319968E+03  0.28931777614E+03  0.00000000000E+00 0.  1.
        -11    1    3    3    0    0 -0.81156008393E+02  0.39026097635E+02 -0.99788490993E+02  0.13441382715E+03  0.00000000000E+00 0. -1.
         22    1    1    2    0    0  0.31333587448E+03 -0.17033247910E+03  0.73404750563E+03  0.81609942054E+03  0.00000000000E+00 0. -1.
<mgrwt>
<rscale>  0 0.11244919E+04</rscale>
<asrwt>0</asrwt>
<pdfrwt beam="1">  1        2 0.13554129E+00 0.11244919E+04</pdfrwt>
<pdfrwt beam="2">  1       -2 0.55201939E-01 0.11244919E+04</pdfrwt>
<totfact> 0.92412617E+01</totfact>
</mgrwt>
</event>
<event>
 6    1  0.2238133E-007  0.1969904E+04  0.7818608E-02  0.8620822E-01
          2   -1    0    0  501    0  0.00000000000E+00  0.00000000000E+00  0.17902878335E+04  0.17902878335E+04  0.00000000000E+00 0. -1.
         -2   -1    0    0    0  501 -0.00000000000E+00 -0.00000000000E+00 -0.54188504386E+03  0.54188504386E+03  0.00000000000E+00 0.  1.
         23    2    1    2    0    0 -0.59535237545E+03  0.31216302205E+03 -0.22319297173E+03  0.71430876434E+03  0.92367228465E+02 0.  0.
         11    1    3    3    0    0 -0.30449328520E+03  0.15781680710E+03 -0.65248777271E+02  0.34911274436E+03  0.00000000000E+00 0. -1.
        -11    1    3    3    0    0 -0.29085909025E+03  0.15434621496E+03 -0.15794419446E+03  0.36519601999E+03  0.00000000000E+00 0.  1.
         22    1    1    2    0    0  0.59535237545E+03 -0.31216302205E+03  0.14715957614E+04  0.16178641130E+04  0.00000000000E+00 0. -1.
<mgrwt>
<rscale>  0 0.19699038E+04</rscale>
<asrwt>0</asrwt>
<pdfrwt beam="1">  1        2 0.27542889E+00 0.19699038E+04</pdfrwt>
<pdfrwt beam="2">  1       -2 0.83366931E-01 0.19699038E+04</pdfrwt>
<totfact> 0.10245491E+01</totfact>
</mgrwt>
</event>
<event>
 6    1  0.2238133E-007  0.2765537E+04  0.7818608E-02  0.8314048E-01
         -2   -1    0    0    0  501 -0.00000000000E+00  0.00000000000E+00  0.51271192933E+03  0.51271192933E+03  0.00000000000E+00 0.  1.
          2   -1    0    0  501    0  0.00000000000E+00 -0.00000000000E+00 -0.37292840268E+04  0.37292840268E+04  0.00000000000E+00 0. -1.
         23    2    1    2    0    0 -0.13572932573E+04  0.82209244102E+02 -0.12383781210E+04  0.18415262616E+04  0.92926074880E+02 0.  0.
         11    1    3    3    0    0 -0.32965466596E+03  0.15759129290E+02 -0.24845054054E+03  0.41309589690E+03  0.00000000000E+00 0.  1.
        -11    1    3    3    0    0 -0.10276385913E+04  0.66450114812E+02 -0.98992758046E+03  0.14284303646E+04  0.00000000000E+00 0. -1.
         22    1    1    2    0    0  0.13572932573E+04 -0.82209244102E+02 -0.19781939765E+04  0.24004696946E+04  0.00000000000E+00 0.  1.
<mgrwt>
<rscale>  0 0.27655368E+04</rscale>
<asrwt>0</asrwt>
<pdfrwt beam="1">  1        2 0.57373600E+00 0.27655368E+04</pdfrwt>
<pdfrwt beam="2">  1       -2 0.78878759E-01 0.27655368E+04</pdfrwt>
<totfact> 0.69150733E-01</totfact>
</mgrwt>
</event>
<event>
 6    1  0.2238133E-007  0.2356459E+04  0.7818608E-02  0.8455987E-01
         -1   -1    0    0    0  501 -0.00000000000E+00  0.00000000000E+00  0.10606496987E+04  0.10606496987E+04  0.00000000000E+00 0.  1.
          1   -1    0    0  501    0  0.00000000000E+00 -0.00000000000E+00 -0.13088438253E+04  0.13088438253E+04  0.00000000000E+00 0. -1.
         23    2    1    2    0    0 -0.20074949388E+03  0.84824259195E+03  0.67012655439E+03  0.11033463258E+04  0.92128506659E+02 0.  0.
         11    1    3    3    0    0 -0.18376064133E+02  0.15381323899E+03  0.82204167807E+02  0.17536737845E+03  0.00000000000E+00 0.  1.
        -11    1    3    3    0    0 -0.18237342975E+03  0.69442935296E+03  0.58792238658E+03  0.92797894737E+03  0.00000000000E+00 0. -1.
         22    1    1    2    0    0  0.20074949388E+03 -0.84824259195E+03 -0.91832068101E+03  0.12661471981E+04  0.00000000000E+00 0. -1.
<mgrwt>
<rscale>  0 0.23564590E+04</rscale>
<asrwt>0</asrwt>
<pdfrwt beam="1">  1        1 0.20136059E+00 0.23564590E+04</pdfrwt>
<pdfrwt beam="2">  1       -1 0.16317688E+00 0.23564590E+04</pdfrwt>
<totfact> 0.22177318E+00</totfact>
</mgrwt>
</event>
<event>
 6    1  0.2238133E-007  0.1157793E+04  0.7818608E-02  0.9150624E-01
          2   -1    0    0  501    0  0.00000000000E+00  0.00000000000E+00  0.20322433596E+03  0.20322433596E+03  0.00000000000E+00 0. -1.
         -2   -1    0    0    0  501 -0.00000000000E+00 -0.00000000000E+00 -0.16490207132E+04  0.16490207132E+04  0.00000000000E+00 0.  1.
         23    2    1    2    0    0 -0.12962080506E+03 -0.34504137051E+03 -0.22298778130E+02  0.38180276360E+03  0.97061909735E+02 0.  0.
         13    1    3    3    0    0 -0.86054243741E+02 -0.31772808468E+03 -0.12209042940E+02  0.32940177502E+03  0.00000000000E+00 0. -1.
        -13    1    3    3    0    0 -0.43566561317E+02 -0.27313285832E+02 -0.10089735190E+02  0.52400988580E+02  0.00000000000E+00 0.  1.
         22    1    1    2    0    0  0.12962080506E+03  0.34504137051E+03 -0.14234975991E+04  0.14704422855E+04  0.00000000000E+00 0.  1.
<mgrwt>
<rscale>  0 0.11577930E+04</rscale>
<asrwt>0</asrwt>
<pdfrwt beam="1">  1        2 0.31265282E-01 0.11577930E+04</pdfrwt>
<pdfrwt beam="2">  1       -2 0.25369550E+00 0.11577930E+04</pdfrwt>
<totfact> 0.10293068E+01</totfact>
</mgrwt>
</event>
<event>
 6    1  0.2238133E-007  0.4824907E+04  0.7818608E-02  0.7856100E-01
         -2   -1    0    0    0  501 -0.00000000000E+00  0.00000000000E+00  0.17786320278E+04  0.17786320278E+04  0.00000000000E+00 0.  1.
          2   -1    0    0  501    0  0.00000000000E+00 -0.00000000000E+00 -0.32721389623E+04  0.32721389623E+04  0.00000000000E+00 0. -1.
         23    2    1    2    0    0  0.32534266109E+03 -0.11248655261E+04 -0.29539358845E+04  0.31788674090E+04  0.91052155686E+02 0.  0.
         13    1    3    3    0    0  0.20401795894E+02 -0.18158255844E+03 -0.49170304298E+03  0.52455728122E+03  0.00000000000E+00 0.  1.
        -13    1    3    3    0    0  0.30494086520E+03 -0.94328296763E+03 -0.24622328416E+04  0.26543101278E+04  0.00000000000E+00 0. -1.
         22    1    1    2    0    0 -0.32534266109E+03  0.11248655261E+04  0.14604289501E+04  0.18719035811E+04  0.00000000000E+00 0.  1.
<mgrwt>
<rscale>  0 0.48249067E+04</rscale>
<asrwt>0</asrwt>
<pdfrwt beam="1">  1        2 0.50340599E+00 0.48249067E+04</pdfrwt>
<pdfrwt beam="2">  1       -2 0.27363570E+00 0.48249067E+04</pdfrwt>
<totfact> 0.39471547E-02</totfact>
</mgrwt>
</event>
<event>
 6    1  0.4904411E-007  0.3267700E+04  0.7818608E-02  0.8171163E-01
          2   -1    0    0  501    0  0.00000000000E+00  0.00000000000E+00  0.29933818641E+04  0.29933818641E+04  0.00000000000E+00 0. -1.
         -2   -1    0    0    0  501 -0.00000000000E+00 -0.00000000000E+00 -0.89178914047E+03  0.89178914047E+03  0.00000000000E+00 0.  1.
         23    2    1    2    0    0 -0.45977755823E+03 -0.33523207753E+03 -0.76748250158E+03  0.96021483452E+03  0.95954100241E+02 0.  0.
         11    1    3    3    0    0 -0.23664770879E+03 -0.19459008368E+03 -0.33785414146E+03  0.45608426814E+03  0.00000000000E+00 0. -1.
        -11    1    3    3    0    0 -0.22312984944E+03 -0.14064199385E+03 -0.42962836012E+03  0.50413056638E+03  0.00000000000E+00 0.  1.
         22    1    1    2    0    0  0.45977755823E+03  0.33523207753E+03  0.28690752252E+04  0.29249561700E+04  0.00000000000E+00 0. -1.
<mgrwt>
<rscale>  0 0.32676998E+04</rscale>
<asrwt>0</asrwt>
<pdfrwt beam="1">  1        2 0.46052028E+00 0.32676998E+04</pdfrwt>
<pdfrwt beam="2">  1       -2 0.13719833E+00 0.32676998E+04</pdfrwt>
<totfact> 0.55675960E-01</totfact>
</mgrwt>
</event>
<event>
 6    1  0.2238133E-007  0.1086385E+04  0.7818608E-02  0.9218565E-01
          1   -1    0    0  501    0  0.00000000000E+00  0.00000000000E+00  0.62149451225E+03  0.62149451225E+03  0.00000000000E+00 0. -1.
         -1   -1    0    0    0  501 -0.00000000000E+00 -0.00000000000E+00 -0.47475533066E+03  0.47475533066E+03  0.00000000000E+00 0.  1.
         23    2    1    2    0    0  0.51536028655E+03 -0.70021404473E+02 -0.69434556960E+02  0.53301782387E+03  0.93742310723E+02 0.  0.
         13    1    3    3    0    0  0.21060000322E+03 -0.65768931746E+02 -0.57471568747E+02  0.22799319059E+03  0.00000000000E+00 0. -1.
        -13    1    3    3    0    0  0.30476028333E+03 -0.42524727267E+01 -0.11962988213E+02  0.30502463328E+03  0.00000000000E+00 0.  1.
         22    1    1    2    0    0 -0.51536028655E+03  0.70021404473E+02  0.21617373855E+03  0.56323201904E+03  0.00000000000E+00 0. -1.
<mgrwt>
<rscale>  0 0.10863845E+04</rscale>
<asrwt>0</asrwt>
<pdfrwt beam="1">  1        1 0.95614540E-01 0.10863845E+04</pdfrwt>
<pdfrwt beam="2">  1       -1 0.73039282E-01 0.10863845E+04</pdfrwt>
<totfact> 0.61347992E+01</totfact>
</mgrwt>
</event>
<event>
 6    1  0.2238133E-007  0.2742410E+04  0.7818608E-02  0.8321374E-01
         -2   -1    0    0    0  501 -0.00000000000E+00  0.00000000000E+00  0.53631235137E+03  0.53631235137E+03  0.00000000000E+00 0.  1.
          2   -1    0    0  501    0  0.00000000000E+00 -0.00000000000E+00 -0.35057977696E+04  0.35057977696E+04  0.00000000000E+00 0. -1.
         23    2    1    2    0    0  0.12487558827E+04  0.20062013165E+03 -0.71233398968E+03  0.14547616204E+04  0.96291057096E+02 0.  0.
         11    1    3    3    0    0  0.24061087057E+03  0.51347781990E+02 -0.98300804562E+02  0.26494005724E+03  0.00000000000E+00 0. -1.
        -11    1    3    3    0    0  0.10081450121E+04  0.14927234966E+03 -0.61403318512E+03  0.11898215632E+04  0.00000000000E+00 0.  1.
         22    1    1    2    0    0 -0.12487558827E+04 -0.20062013165E+03 -0.22571514286E+04  0.25873485005E+04  0.00000000000E+00 0. -1.
<mgrwt>
<rscale>  0 0.27424096E+04</rscale>
<asrwt>0</asrwt>
<pdfrwt beam="1">  1        2 0.53935351E+00 0.27424096E+04</pdfrwt>
<pdfrwt beam="2">  1       -2 0.82509591E-01 0.27424096E+04</pdfrwt>
<totfact> 0.90777850E-01</totfact>
</mgrwt>
</event>
<event>
 6    1  0.2238133E-007  0.1355973E+04  0.7818608E-02  0.8986319E-01
         -1   -1    0    0    0  501 -0.00000000000E+00  0.00000000000E+00  0.28563530383E+03  0.28563530383E+03  0.00000000000E+00 0.  1.
          1   -1    0    0  501    0  0.00000000000E+00 -0.00000000000E+00 -0.16092746483E+04  0.16092746483E+04  0.00000000000E+00 0. -1.
         23    2    1    2    0    0 -0.65461506207E+03  0.15022705502E+03 -0.75814928023E+03  0.10169190294E+04  0.90801617595E+02 0.  0.
         11    1    3    3    0    0 -0.50523528119E+03  0.14774851443E+03 -0.55733427344E+03  0.76662494430E+03  0.00000000000E+00 0. -1.
        -11    1    3    3    0    0 -0.14937978088E+03  0.24785405941E+01 -0.20081500679E+03  0.25029408513E+03  0.00000000000E+00 0.  1.
         22    1    1    2    0    0  0.65461506207E+03 -0.15022705502E+03 -0.56549006421E+03  0.87799092266E+03  0.00000000000E+00 0. -1.
<mgrwt>
<rscale>  0 0.13559729E+04</rscale>
<asrwt>0</asrwt>
<pdfrwt beam="1">  1        1 0.24758072E+00 0.13559729E+04</pdfrwt>
<pdfrwt beam="2">  1       -1 0.43943893E-01 0.13559729E+04</pdfrwt>
<totfact> 0.27542419E+01</totfact>
</mgrwt>
</event>
<event>
 6    1  0.2238133E-007  0.1910912E+04  0.7818608E-02  0.8649444E-01
         -2   -1    0    0    0  501 -0.00000000000E+00  0.00000000000E+00  0.12393708859E+04  0.12393708859E+04  0.00000000000E+00 0.  1.
          2   -1    0    0  501    0  0.00000000000E+00 -0.00000000000E+00 -0.73658028032E+03  0.73658028032E+03  0.00000000000E+00 0. -1.
         23    2    1    2    0    0 -0.16024639725E+03  0.92436670780E+03  0.78602804414E+02  0.94635512459E+03  0.96316679010E+02 0.  0.
         11    1    3    3    0    0 -0.11677304142E+03  0.59958298657E+03  0.67312775518E+01  0.61088543204E+03  0.00000000000E+00 0.  1.
        -11    1    3    3    0    0 -0.43473355831E+02  0.32478372123E+03  0.71871526862E+02  0.33546969255E+03  0.00000000000E+00 0. -1.
         22    1    1    2    0    0  0.16024639725E+03 -0.92436670780E+03  0.42418780121E+03  0.10295960417E+04  0.00000000000E+00 0. -1.
<mgrwt>
<rscale>  0 0.19109120E+04</rscale>
<asrwt>0</asrwt>
<pdfrwt beam="1">  1        2 0.11332004E+00 0.19109120E+04</pdfrwt>
<pdfrwt beam="2">  1       -2 0.19067244E+00 0.19109120E+04</pdfrwt>
<totfact> 0.55066688E+00</totfact>
</mgrwt>
</event>
<event>
 6    1  0.2238133E-007  0.1464367E+04  0.7818608E-02  0.8908500E-01
          1   -1    0    0  501    0  0.00000000000E+00  0.00000000000E+00  0.22973969158E+04  0.22973969158E+04  0.00000000000E+00 0. -1.
         -1   -1    0    0    0  501 -0.00000000000E+00 -0.00000000000E+00 -0.23334792835E+03  0.23334792835E+03  0.00000000000E+00 0.  1.
         23    2    1    2    0    0  0.74655218857E+02  0.70036540813E+03  0.13633253774E+04  0.15372164428E+04  0.91067012119E+02 0.  0.
         11    1    3    3    0    0  0.71226315499E+02  0.38400797646E+03  0.67935425178E+03  0.78361821917E+03  0.00000000000E+00 0.  1.
        -11    1    3    3    0    0  0.34289033577E+01  0.31635743167E+03  0.68397112565E+03  0.75359822364E+03  0.00000000000E+00 0. -1.
         22    1    1    2    0    0 -0.74655218857E+02 -0.70036540813E+03  0.70072360998E+03  0.99352840130E+03  0.00000000000E+00 0.  1.
<mgrwt>
<rscale>  0 0.14643672E+04</rscale>
<asrwt>0</asrwt>
<pdfrwt beam="1">  1        1 0.35344566E+00 0.14643672E+04</pdfrwt>
<pdfrwt beam="2">  1       -1 0.35899683E-01 0.14643672E+04</pdfrwt>
<totfact> 0.13465577E+01</totfact>
</mgrwt>
</event>
<event>
 6    1  0.2238133E-007  0.2251488E+04  0.7818608E-02  0.8497298E-01
          2   -1    0    0  501    0  0.00000000000E+00  0.00000000000E+00  0.60955935749E+03  0.60955935749E+03  0.00000000000E+00 0. -1.
         -2   -1    0    0    0  501 -0.00000000000E+00 -0.00000000000E+00 -0.20790418505E+04  0.20790418505E+04  0.00000000000E+00 0.  1.
         23    2    1    2    0    0 -0.75040534377E+03 -0.69647459221E+03 -0.12897808047E+04  0.16491408988E+04  0.89141137611E+02 0.  0.
         13    1    3    3    0    0 -0.56198538389E+03 -0.48317376201E+03 -0.97621902152E+03  0.12256786014E+04  0.00000000000E+00 0.  1.
        -13    1    3    3    0    0 -0.18841995988E+03 -0.21330083019E+03 -0.31356178322E+03  0.42346229742E+03  0.00000000000E+00 0. -1.
         22    1    1    2    0    0  0.75040534377E+03  0.69647459221E+03 -0.17970168828E+03  0.10394603092E+04  0.00000000000E+00 0. -1.
<mgrwt>
<rscale>  0 0.22514879E+04</rscale>
<asrwt>0</asrwt>
<pdfrwt beam="1">  1        2 0.93778363E-01 0.22514879E+04</pdfrwt>
<pdfrwt beam="2">  1       -2 0.31985259E+00 0.22514879E+04</pdfrwt>
<totfact> 0.10634181E+00</totfact>
</mgrwt>
</event>
<event>
 6    1  0.2238133E-007  0.1693706E+04  0.7818608E-02  0.8764962E-01
          1   -1    0    0  501    0  0.00000000000E+00  0.00000000000E+00  0.17304290639E+04  0.17304290639E+04  0.00000000000E+00 0. -1.
         -1   -1    0    0    0  501 -0.00000000000E+00 -0.00000000000E+00 -0.41444055798E+03  0.41444055798E+03  0.00000000000E+00 0.  1.
         23    2    1    2    0    0  0.31010256019E+03  0.76092616750E+03  0.90787213218E+03  0.12274105194E+04  0.84454393435E+02 0.  0.
         11    1    3    3    0    0  0.22335133026E+03  0.46462196884E+03  0.52860216772E+03  0.73836281215E+03  0.00000000000E+00 0.  1.
        -11    1    3    3    0    0  0.86751229931E+02  0.29630419866E+03  0.37926996446E+03  0.48904770726E+03  0.00000000000E+00 0. -1.
         22    1    1    2    0    0 -0.31010256019E+03 -0.76092616750E+03  0.40811637377E+03  0.91745910250E+03  0.00000000000E+00 0.  1.
<mgrwt>
<rscale>  0 0.16937060E+04</rscale>
<asrwt>0</asrwt>
<pdfrwt beam="1">  1        1 0.26621985E+00 0.16937060E+04</pdfrwt>
<pdfrwt beam="2">  1       -1 0.63760087E-01 0.16937060E+04</pdfrwt>
<totfact> 0.10791687E+01</totfact>
</mgrwt>
</event>
<event>
 6    1  0.2238133E-007  0.3016437E+04  0.7818608E-02  0.8239053E-01
          2   -1    0    0  501    0  0.00000000000E+00  0.00000000000E+00  0.19403873951E+04  0.19403873951E+04  0.00000000000E+00 0. -1.
         -2   -1    0    0    0  501 -0.00000000000E+00 -0.00000000000E+00 -0.11723035588E+04  0.11723035588E+04  0.00000000000E+00 0.  1.
         23    2    1    2    0    0 -0.14245890640E+04  0.33153315105E+03  0.75860522431E+03  0.16500023078E+04  0.87507130103E+02 0.  0.
         13    1    3    3    0    0 -0.12133984261E+04  0.27688906418E+03  0.60991057277E+03  0.13859993511E+04  0.00000000000E+00 0. -1.
        -13    1    3    3    0    0 -0.21119063786E+03  0.54644086870E+02  0.14869465154E+03  0.26400295670E+03  0.00000000000E+00 0.  1.
         22    1    1    2    0    0  0.14245890640E+04 -0.33153315105E+03  0.94786120288E+01  0.14626886462E+04  0.00000000000E+00 0. -1.
<mgrwt>
<rscale>  0 0.30164370E+04</rscale>
<asrwt>0</asrwt>
<pdfrwt beam="1">  1        2 0.29852114E+00 0.30164370E+04</pdfrwt>
<pdfrwt beam="2">  1       -2 0.18035439E+00 0.30164370E+04</pdfrwt>
<totfact> 0.11116327E+00</totfact>
</mgrwt>
</event>
<event>
 6    1  0.2238133E-007  0.3603398E+04  0.7818608E-02  0.8089714E-01
         -2   -1    0    0    0  501 -0.00000000000E+00  0.00000000000E+00  0.13653622969E+04  0.13653622969E+04  0.00000000000E+00 0.  1.
          2   -1    0    0  501    0  0.00000000000E+00 -0.00000000000E+00 -0.23774777244E+04  0.23774777244E+04  0.00000000000E+00 0. -1.
         23    2    1    2    0    0  0.36113978457E+03 -0.16952325565E+04 -0.10134528889E+04  0.20095664845E+04  0.83876892487E+02 0.  0.
         11    1    3    3    0    0  0.18846314444E+03 -0.10761973564E+04 -0.64610681800E+03  0.12693199467E+04  0.00000000000E+00 0.  1.
        -11    1    3    3    0    0  0.17267664013E+03 -0.61903520003E+03 -0.36734607095E+03  0.74024653783E+03  0.00000000000E+00 0. -1.
         22    1    1    2    0    0 -0.36113978457E+03  0.16952325565E+04  0.13374615350E+01  0.17332735368E+04  0.00000000000E+00 0.  1.
<mgrwt>
<rscale>  0 0.36033975E+04</rscale>
<asrwt>0</asrwt>
<pdfrwt beam="1">  1        2 0.36576580E+00 0.36033975E+04</pdfrwt>
<pdfrwt beam="2">  1       -2 0.21005574E+00 0.36033975E+04</pdfrwt>
<totfact> 0.38178819E-01</totfact>
</mgrwt>
</event>
<event>
 6    1  0.2238133E-007  0.1062283E+04  0.7818608E-02  0.9242754E-01
         -2   -1    0    0    0  501 -0.00000000000E+00  0.00000000000E+00  0.32952046511E+03  0.32952046511E+03  0.00000000000E+00 0.  1.
          2   -1    0    0  501    0  0.00000000000E+00 -0.00000000000E+00 -0.85612664490E+03  0.85612664490E+03  0.00000000000E+00 0. -1.
         23    2    1    2    0    0 -0.27109980322E+03  0.45177637589E+03 -0.28950626160E+03  0.60788126789E+03  0.90048671400E+02 0.  0.
         11    1    3    3    0    0 -0.13963588309E+03  0.20806894136E+03 -0.18678761424E+03  0.31253876085E+03  0.00000000000E+00 0.  1.
        -11    1    3    3    0    0 -0.13146392013E+03  0.24370743454E+03 -0.10271864736E+03  0.29534250703E+03  0.00000000000E+00 0. -1.
         22    1    1    2    0    0  0.27109980322E+03 -0.45177637589E+03 -0.23709991818E+03  0.57776584212E+03  0.00000000000E+00 0.  1.
<mgrwt>
<rscale>  0 0.10622829E+04</rscale>
<asrwt>0</asrwt>
<pdfrwt beam="1">  1        2 0.13171179E+00 0.10622829E+04</pdfrwt>
<pdfrwt beam="2">  1       -2 0.50695457E-01 0.10622829E+04</pdfrwt>
<totfact> 0.11503788E+02</totfact>
</mgrwt>
</event>
<event>
 6    1  0.2238133E-007  0.1339426E+04  0.7818608E-02  0.8998871E-01
         -2   -1    0    0    0  501 -0.00000000000E+00  0.00000000000E+00  0.41283058224E+03  0.41283058224E+03  0.00000000000E+00 0.  1.
          2   -1    0    0  501    0  0.00000000000E+00 -0.00000000000E+00 -0.10864397795E+04  0.10864397795E+04  0.00000000000E+00 0. -1.
         23    2    1    2    0    0  0.17577225204E+03  0.22648378024E+03  0.33523739712E+03  0.45047951592E+03  0.91416051807E+02 0.  0.
         13    1    3    3    0    0  0.76104231047E+02  0.16199719448E+03  0.23301852556E+03  0.29382406004E+03  0.00000000000E+00 0.  1.
        -13    1    3    3    0    0  0.99668020996E+02  0.64486585765E+02  0.10221887156E+03  0.15665545588E+03  0.00000000000E+00 0. -1.
         22    1    1    2    0    0 -0.17577225204E+03 -0.22648378024E+03 -0.10088465944E+04  0.10487908459E+04  0.00000000000E+00 0. -1.
<mgrwt>
<rscale>  0 0.13394261E+04</rscale>
<asrwt>0</asrwt>
<pdfrwt beam="1">  1        2 0.16714458E+00 0.13394261E+04</pdfrwt>
<pdfrwt beam="2">  1       -2 0.63512397E-01 0.13394261E+04</pdfrwt>
<totfact> 0.49821898E+01</totfact>
</mgrwt>
</event>
<event>
 6    1  0.2238133E-007  0.3198660E+04  0.7818608E-02  0.8189171E-01
         -1   -1    0    0    0  501 -0.00000000000E+00  0.00000000000E+00  0.81449042391E+03  0.81449042391E+03  0.00000000000E+00 0.  1.
          1   -1    0    0  501    0  0.00000000000E+00 -0.00000000000E+00 -0.31404383619E+04  0.31404383619E+04  0.00000000000E+00 0. -1.
         23    2    1    2    0    0 -0.10143405203E+04  0.52042512202E+03 -0.25485058074E+04  0.27933518387E+04  0.90573979086E+02 0.  0.
         13    1    3    3    0    0 -0.55306078403E+03  0.29086572800E+03 -0.12870221084E+04  0.14307008807E+04  0.00000000000E+00 0. -1.
        -13    1    3    3    0    0 -0.46127973629E+03  0.22955939402E+03 -0.12614836990E+04  0.13626509580E+04  0.00000000000E+00 0.  1.
         22    1    1    2    0    0  0.10143405203E+04 -0.52042512202E+03  0.22255786941E+03  0.11615769471E+04  0.00000000000E+00 0. -1.
<mgrwt>
<rscale>  0 0.31986603E+04</rscale>
<asrwt>0</asrwt>
<pdfrwt beam="1">  1        1 0.48314436E+00 0.31986603E+04</pdfrwt>
<pdfrwt beam="2">  1       -1 0.12530622E+00 0.31986603E+04</pdfrwt>
<totfact> 0.21898390E-01</totfact>
</mgrwt>
</event>
<event>
 6    1  0.2238133E-007  0.1231564E+04  0.7818608E-02  0.9085668E-01
          2   -1    0    0  501    0  0.00000000000E+00  0.00000000000E+00  0.44392797672E+03  0.44392797672E+03  0.00000000000E+00 0. -1.
         -2   -1    0    0    0  501 -0.00000000000E+00 -0.00000000000E+00 -0.85416482804E+03  0.85416482804E+03  0.00000000000E+00 0.  1.
         23    2    1    2    0    0  0.13942902109E+03 -0.59414350687E+03 -0.15347693129E+03  0.63599567049E+03  0.92132327475E+02 0.  0.
         13    1    3    3    0    0  0.56158129345E+02 -0.22780792389E+03 -0.13263358589E+02  0.23500234543E+03  0.00000000000E+00 0.  1.
        -13    1    3    3    0    0  0.83270891745E+02 -0.36633558299E+03 -0.14021357271E+03  0.40099332506E+03  0.00000000000E+00 0. -1.
         22    1    1    2    0    0 -0.13942902109E+03  0.59414350687E+03 -0.25675992003E+03  0.66209713427E+03  0.00000000000E+00 0.  1.
<mgrwt>
<rscale>  0 0.12315643E+04</rscale>
<asrwt>0</asrwt>
<pdfrwt beam="1">  1        2 0.68296612E-01 0.12315643E+04</pdfrwt>
<pdfrwt beam="2">  1       -2 0.13140997E+00 0.12315643E+04</pdfrwt>
<totfact> 0.29374682E+01</totfact>
</mgrwt>
</event>
<event>
 6    1  0.2238133E-007  0.1997126E+04  0.7818608E-02  0.8607965E-01
          2   -1    0    0  501    0  0.00000000000E+00  0.00000000000E+00  0.17352728743E+04  0.17352728743E+04  0.00000000000E+00 0. -1.
         -2   -1    0    0    0  501 -0.00000000000E+00 -0.00000000000E+00 -0.57462342783E+03  0.57462342783E+03  0.00000000000E+00 0.  1.
         23    2    1    2    0    0 -0.96736029356E+03 -0.11391571771E+03  0.82412986994E+03  0.12793585038E+04  0.93837148706E+02 0.  0.
         11    1    3    3    0    0 -0.85218017253E+03 -0.86555835056E+02  0.68575506714E+03  0.10972524646E+04  0.00000000000E+00 0. -1.
        -11    1    3    3    0    0 -0.11518012103E+03 -0.27359882652E+02  0.13837480280E+03  0.18210603919E+03  0.00000000000E+00 0.  1.
         22    1    1    2    0    0  0.96736029356E+03  0.11391571771E+03  0.33651957648E+03  0.10305377983E+04  0.00000000000E+00 0.  1.
<mgrwt>
<rscale>  0 0.19971264E+04</rscale>
<asrwt>0</asrwt>
<pdfrwt beam="1">  1        2 0.26696506E+00 0.19971264E+04</pdfrwt>
<pdfrwt beam="2">  1       -2 0.88403605E-01 0.19971264E+04</pdfrwt>
<totfact> 0.95929832E+00</totfact>
</mgrwt>
</event>
<event>
 6    1  0.2238133E-007  0.1954320E+04  0.7818608E-02  0.8628280E-01
          2   -1    0    0  501    0  0.00000000000E+00  0.00000000000E+00  0.19083618241E+04  0.19083618241E+04  0.00000000000E+00 0. -1.
         -2   -1    0    0    0  501 -0.00000000000E+00 -0.00000000000E+00 -0.50034635862E+03  0.50034635862E+03  0.00000000000E+00 0.  1.
         23    2    1    2    0    0 -0.80334456286E+03 -0.42721591683E+03  0.11377041287E+04  0.14595274070E+04  0.89295245790E+02 0.  0.
         13    1    3    3    0    0 -0.56938215749E+03 -0.34761496037E+03  0.82749207395E+03  0.10629089022E+04  0.00000000000E+00 0. -1.
        -13    1    3    3    0    0 -0.23396240537E+03 -0.79600956461E+02  0.31021205476E+03  0.39661850476E+03  0.00000000000E+00 0.  1.
         22    1    1    2    0    0  0.80334456286E+03  0.42721591683E+03  0.27031133677E+03  0.94918077575E+03  0.00000000000E+00 0. -1.
<mgrwt>
<rscale>  0 0.19543202E+04</rscale>
<asrwt>0</asrwt>
<pdfrwt beam="1">  1        2 0.29359412E+00 0.19543202E+04</pdfrwt>
<pdfrwt beam="2">  1       -2 0.76976364E-01 0.19543202E+04</pdfrwt>
<totfact> 0.10556284E+01</totfact>
</mgrwt>
</event>
<event>
 6    1  0.2238133E-007  0.3073652E+04  0.7818608E-02  0.8223006E-01
          2   -1    0    0  501    0  0.00000000000E+00  0.00000000000E+00  0.23444834779E+04  0.23444834779E+04  0.00000000000E+00 0. -1.
         -2   -1    0    0    0  501 -0.00000000000E+00 -0.00000000000E+00 -0.10074004235E+04  0.10074004235E+04  0.00000000000E+00 0.  1.
         23    2    1    2    0    0 -0.96487632466E+03  0.71224873182E+03  0.17147334545E+04  0.20945436919E+04  0.92292357986E+02 0.  0.
         13    1    3    3    0    0 -0.39942469327E+03  0.24981531638E+03  0.71934083200E+03  0.85988313768E+03  0.00000000000E+00 0. -1.
        -13    1    3    3    0    0 -0.56545163140E+03  0.46243341544E+03  0.99539262247E+03  0.12346605542E+04  0.00000000000E+00 0.  1.
         22    1    1    2    0    0  0.96487632466E+03 -0.71224873182E+03 -0.37765040007E+03  0.12573402095E+04  0.00000000000E+00 0.  1.
<mgrwt>
<rscale>  0 0.30736517E+04</rscale>
<asrwt>0</asrwt>
<pdfrwt beam="1">  1        2 0.36068977E+00 0.30736517E+04</pdfrwt>
<pdfrwt beam="2">  1       -2 0.15498468E+00 0.30736517E+04</pdfrwt>
<totfact> 0.99918626E-01</totfact>
</mgrwt>
</event>
<event>
 6    1  0.2238133E-007  0.4650851E+04  0.7818608E-02  0.7884747E-01
         -2   -1    0    0    0  501 -0.00000000000E+00  0.00000000000E+00  0.19988534960E+04  0.19988534960E+04  0.00000000000E+00 0.  1.
          2   -1    0    0  501    0  0.00000000000E+00 -0.00000000000E+00 -0.27053526639E+04  0.27053526639E+04  0.00000000000E+00 0. -1.
         23    2    1    2    0    0  0.72613069181E+03 -0.22076588456E+04 -0.34255073565E+03  0.23518707626E+04  0.11371770867E+03 0.  0.
         13    1    3    3    0    0  0.45514489760E+03 -0.13255323971E+04 -0.25962254962E+03  0.14253409704E+04  0.00000000000E+00 0. -1.
        -13    1    3    3    0    0  0.27098579421E+03 -0.88212644848E+03 -0.82928186037E+02  0.92652979219E+03  0.00000000000E+00 0.  1.
         22    1    1    2    0    0 -0.72613069181E+03  0.22076588456E+04 -0.36394843222E+03  0.23523353973E+04  0.00000000000E+00 0. -1.
<mgrwt>
<rscale>  0 0.46508509E+04</rscale>
<asrwt>0</asrwt>
<pdfrwt beam="1">  1        2 0.41620810E+00 0.46508509E+04</pdfrwt>
<pdfrwt beam="2">  1       -2 0.30751592E+00 0.46508509E+04</pdfrwt>
<totfact> 0.56392968E-02</totfact>
</mgrwt>
</event>
<event>
 6    1  0.2238133E-007  0.4107397E+03  0.7818608E-02  0.1040123E+00
          2   -1    0    0  501    0  0.00000000000E+00  0.00000000000E+00  0.54817177951E+03  0.54817177951E+03  0.00000000000E+00 0. -1.
         -2   -1    0    0    0  501 -0.00000000000E+00 -0.00000000000E+00 -0.76940800544E+02  0.76940800544E+02  0.00000000000E+00 0.  1.
         23    2    1    2    0    0  0.36997024303E+02  0.10163940740E+03 -0.13173832865E+01  0.14034324974E+03  0.89415565229E+02 0.  0.
         11    1    3    3    0    0 -0.14576509835E+02  0.50479775509E+02 -0.31962180161E+02  0.61500108415E+02  0.00000000000E+00 0. -1.
        -11    1    3    3    0    0  0.51573534138E+02  0.51159631891E+02  0.30644796874E+02  0.78843141326E+02  0.00000000000E+00 0.  1.
         22    1    1    2    0    0 -0.36997024303E+02 -0.10163940740E+03  0.47254836225E+03  0.48476933031E+03  0.00000000000E+00 0. -1.
<mgrwt>
<rscale>  0 0.41073970E+03</rscale>
<asrwt>0</asrwt>
<pdfrwt beam="1">  1        2 0.84334117E-01 0.41073970E+03</pdfrwt>
<pdfrwt beam="2">  1       -2 0.11837047E-01 0.41073970E+03</pdfrwt>
<totfact> 0.28500615E+03</totfact>
</mgrwt>
</event>
<event>
 6    1  0.2238133E-007  0.2824130E+04  0.7818608E-02  0.8295816E-01
         -2   -1    0    0    0  501 -0.00000000000E+00  0.00000000000E+00  0.19153012142E+04  0.19153012142E+04  0.00000000000E+00 0.  1.
          2   -1    0    0  501    0  0.00000000000E+00 -0.00000000000E+00 -0.10410516695E+04  0.10410516695E+04  0.00000000000E+00 0. -1.
         23    2    1    2    0    0  0.97281085152E+03  0.54684988509E+03 -0.46552488500E+03  0.12126782373E+04  0.92029012300E+02 0.  0.
         13    1    3    3    0    0  0.13805940619E+03  0.65639799150E+02 -0.97215167870E+02  0.18116228011E+03  0.00000000000E+00 0.  1.
        -13    1    3    3    0    0  0.83475144533E+03  0.48121008594E+03 -0.36830971713E+03  0.10315159572E+04  0.00000000000E+00 0. -1.
         22    1    1    2    0    0 -0.97281085152E+03 -0.54684988509E+03  0.13397744297E+04  0.17436746463E+04  0.00000000000E+00 0.  1.
<mgrwt>
<rscale>  0 0.28241300E+04</rscale>
<asrwt>0</asrwt>
<pdfrwt beam="1">  1        2 0.16016180E+00 0.28241300E+04</pdfrwt>
<pdfrwt beam="2">  1       -2 0.29466172E+00 0.28241300E+04</pdfrwt>
<totfact> 0.70568963E-01</totfact>
</mgrwt>
</event>
<event>
 6    1  0.2238133E-007  0.4020479E+04  0.7818608E-02  0.8000428E-01
         -2   -1    0    0    0  501 -0.00000000000E+00  0.00000000000E+00  0.14610227918E+04  0.14610227918E+04  0.00000000000E+00 0.  1.
          2   -1    0    0  501    0  0.00000000000E+00 -0.00000000000E+00 -0.27659133658E+04  0.27659133658E+04  0.00000000000E+00 0. -1.
         23    2    1    2    0    0 -0.65426778981E+03 -0.13002371965E+04  0.80339277103E+03  0.16649951413E+04  0.89920898949E+02 0.  0.
         13    1    3    3    0    0 -0.37425344880E+03 -0.78045698131E+03  0.52411924478E+03  0.10118694216E+04  0.00000000000E+00 0.  1.
        -13    1    3    3    0    0 -0.28001434101E+03 -0.51978021523E+03  0.27927352625E+03  0.65312571973E+03  0.00000000000E+00 0. -1.
         22    1    1    2    0    0  0.65426778981E+03  0.13002371965E+04 -0.21082833450E+04  0.25619410162E+04  0.00000000000E+00 0. -1.
<mgrwt>
<rscale>  0 0.40204788E+04</rscale>
<asrwt>0</asrwt>
<pdfrwt beam="1">  1        2 0.42552513E+00 0.40204788E+04</pdfrwt>
<pdfrwt beam="2">  1       -2 0.22477274E+00 0.40204788E+04</pdfrwt>
<totfact> 0.17603929E-01</totfact>
</mgrwt>
</event>
<event>
 6    1  0.2238133E-007  0.1272284E+04  0.7818608E-02  0.9051837E-01
          2   -1    0    0  501    0  0.00000000000E+00  0.00000000000E+00  0.13655851718E+04  0.13655851718E+04  0.00000000000E+00 0. -1.
         -2   -1    0    0    0  501 -0.00000000000E+00 -0.00000000000E+00 -0.29633947423E+03  0.29633947423E+03  0.00000000000E+00 0.  1.
         23    2    1    2    0    0  0.20102573864E+03  0.39924384071E+03  0.11226219225E+04  0.12117513313E+04  0.90853266920E+02 0.  0.
         11    1    3    3    0    0  0.17683491981E+02  0.10942581886E+03  0.22429016533E+03  0.25018551914E+03  0.00000000000E+00 0.  1.
        -11    1    3    3    0    0  0.18334224666E+03  0.28981802185E+03  0.89833175714E+03  0.96156581215E+03  0.00000000000E+00 0. -1.
         22    1    1    2    0    0 -0.20102573864E+03 -0.39924384071E+03 -0.53376224893E+02  0.45017331476E+03  0.00000000000E+00 0. -1.
<mgrwt>
<rscale>  0 0.12722842E+04</rscale>
<asrwt>0</asrwt>
<pdfrwt beam="1">  1        2 0.21009002E+00 0.12722842E+04</pdfrwt>
<pdfrwt beam="2">  1       -2 0.45590689E-01 0.12722842E+04</pdfrwt>
<totfact> 0.67826283E+01</totfact>
</mgrwt>
</event>
<event>
 6    1  0.2238133E-007  0.1179146E+04  0.7818608E-02  0.9131308E-01
          2   -1    0    0  501    0  0.00000000000E+00  0.00000000000E+00  0.12540106402E+04  0.12540106402E+04  0.00000000000E+00 0. -1.
         -2   -1    0    0    0  501 -0.00000000000E+00 -0.00000000000E+00 -0.27718780671E+03  0.27718780671E+03  0.00000000000E+00 0.  1.
         23    2    1    2    0    0  0.45604619176E+02 -0.33362959596E+03 -0.13117882373E+03  0.37315865442E+03  0.93010800344E+02 0.  0.
         13    1    3    3    0    0  0.34296204253E+02 -0.31423487521E+03 -0.94095216242E+02  0.32980857500E+03  0.00000000000E+00 0.  1.
        -13    1    3    3    0    0  0.11308414923E+02 -0.19394720750E+02 -0.37083607489E+02  0.43350079417E+02  0.00000000000E+00 0. -1.
         22    1    1    2    0    0 -0.45604619176E+02  0.33362959596E+03  0.11080016572E+04  0.11580397925E+04  0.00000000000E+00 0. -1.
<mgrwt>
<rscale>  0 0.11791462E+04</rscale>
<asrwt>0</asrwt>
<pdfrwt beam="1">  1        2 0.19292471E+00 0.11791462E+04</pdfrwt>
<pdfrwt beam="2">  1       -2 0.42644279E-01 0.11791462E+04</pdfrwt>
<totfact> 0.90556171E+01</totfact>
</mgrwt>
</event>
<event>
 6    1  0.2238133E-007  0.3700504E+04  0.7818608E-02  0.8067850E-01
         -2   -1    0    0    0  501 -0.00000000000E+00  0.00000000000E+00  0.11548287108E+04  0.11548287108E+04  0.00000000000E+00 0.  1.
          2   -1    0    0  501    0  0.00000000000E+00 -0.00000000000E+00 -0.29644504821E+04  0.29644504821E+04  0.00000000000E+00 0. -1.
         23    2    1    2    0    0 -0.48685766639E+03 -0.17556444527E+04 -0.55281201712E+03  0.19059358870E+04  0.87593649917E+02 0.  0.
         11    1    3    3    0    0 -0.32591064699E+03 -0.13153597829E+04 -0.41897966499E+03  0.14184262645E+04  0.00000000000E+00 0. -1.
        -11    1    3    3    0    0 -0.16094701941E+03 -0.44028466981E+03 -0.13383235213E+03  0.48750962247E+03  0.00000000000E+00 0.  1.
         22    1    1    2    0    0  0.48685766639E+03  0.17556444527E+04 -0.12568097542E+04  0.22133433059E+04  0.00000000000E+00 0. -1.
<mgrwt>
<rscale>  0 0.37005040E+04</rscale>
<asrwt>0</asrwt>
<pdfrwt beam="1">  1        2 0.45606931E+00 0.37005040E+04</pdfrwt>
<pdfrwt beam="2">  1       -2 0.17766595E+00 0.37005040E+04</pdfrwt>
<totfact> 0.27865795E-01</totfact>
</mgrwt>
</event>
<event>
 6    1  0.2238133E-007  0.5810734E+04  0.7818608E-02  0.7714322E-01
         -2   -1    0    0    0  501 -0.00000000000E+00  0.00000000000E+00  0.25806110287E+04  0.25806110287E+04  0.00000000000E+00 0.  1.
          2   -1    0    0  501    0  0.00000000000E+00 -0.00000000000E+00 -0.32709912343E+04  0.32709912343E+04  0.00000000000E+00 0. -1.
         23    2    1    2    0    0 -0.17357958851E+04 -0.12586531427E+04 -0.23186202854E+04  0.31593242599E+04  0.90192363608E+02 0.  0.
         13    1    3    3    0    0 -0.13332839130E+04 -0.10047061662E+04 -0.18355130811E+04  0.24811668110E+04  0.00000000000E+00 0.  1.
        -13    1    3    3    0    0 -0.40251197211E+03 -0.25394697651E+03 -0.48310720432E+03  0.67815744885E+03  0.00000000000E+00 0. -1.
         22    1    1    2    0    0  0.17357958851E+04  0.12586531427E+04  0.16282400799E+04  0.26922780032E+04  0.00000000000E+00 0.  1.
<mgrwt>
<rscale>  0 0.58107335E+04</rscale>
<asrwt>0</asrwt>
<pdfrwt beam="1">  1        2 0.50322942E+00 0.58107335E+04</pdfrwt>
<pdfrwt beam="2">  1       -2 0.39701708E+00 0.58107335E+04</pdfrwt>
<totfact> 0.61739432E-03</totfact>
</mgrwt>
</event>
<event>
 6    1  0.2238133E-007  0.1127629E+04  0.7818608E-02  0.9178674E-01
         -2   -1    0    0    0  501 -0.00000000000E+00  0.00000000000E+00  0.80033221782E+03  0.80033221782E+03  0.00000000000E+00 0.  1.
          2   -1    0    0  501    0  0.00000000000E+00 -0.00000000000E+00 -0.39719329294E+03  0.39719329294E+03  0.00000000000E+00 0. -1.
         23    2    1    2    0    0 -0.48596479593E+03 -0.19488517615E+02 -0.91996863200E+02  0.50347865800E+03  0.92118136210E+02 0.  0.
         11    1    3    3    0    0 -0.75009290190E+02 -0.35568075479E+02 -0.53980741217E+01  0.83190268735E+02  0.00000000000E+00 0. -1.
        -11    1    3    3    0    0 -0.41095550574E+03  0.16079557864E+02 -0.86598789078E+02  0.42028838926E+03  0.00000000000E+00 0.  1.
         22    1    1    2    0    0  0.48596479593E+03  0.19488517615E+02  0.49513578807E+03  0.69404685277E+03  0.00000000000E+00 0.  1.
<mgrwt>
<rscale>  0 0.11276286E+04</rscale>
<asrwt>0</asrwt>
<pdfrwt beam="1">  1        2 0.61106661E-01 0.11276286E+04</pdfrwt>
<pdfrwt beam="2">  1       -2 0.12312803E+00 0.11276286E+04</pdfrwt>
<totfact> 0.39545553E+01</totfact>
</mgrwt>
</event>
<event>
 6    1  0.2238133E-007  0.3264166E+04  0.7818608E-02  0.8172074E-01
         -2   -1    0    0    0  501 -0.00000000000E+00  0.00000000000E+00  0.15682978093E+04  0.15682978093E+04  0.00000000000E+00 0.  1.
          2   -1    0    0  501    0  0.00000000000E+00 -0.00000000000E+00 -0.16984623350E+04  0.16984623350E+04  0.00000000000E+00 0. -1.
         23    2    1    2    0    0  0.13619108178E+04 -0.69595409320E+03 -0.63142239962E+03  0.16572842571E+04  0.93507682398E+02 0.  0.
         11    1    3    3    0    0  0.94038349295E+03 -0.47749291006E+03 -0.38825591767E+03  0.11238608680E+04  0.00000000000E+00 0.  1.
        -11    1    3    3    0    0  0.42152732480E+03 -0.21846118314E+03 -0.24316648195E+03  0.53342338910E+03  0.00000000000E+00 0. -1.
         22    1    1    2    0    0 -0.13619108178E+04  0.69595409320E+03  0.50125787398E+03  0.16094758872E+04  0.00000000000E+00 0.  1.
<mgrwt>
<rscale>  0 0.32641659E+04</rscale>
<asrwt>0</asrwt>
<pdfrwt beam="1">  1        2 0.26130190E+00 0.32641659E+04</pdfrwt>
<pdfrwt beam="2">  1       -2 0.24127659E+00 0.32641659E+04</pdfrwt>
<totfact> 0.59874572E-01</totfact>
</mgrwt>
</event>
<event>
 6    1  0.2238133E-007  0.2895424E+04  0.7818608E-02  0.8274240E-01
         -2   -1    0    0    0  501 -0.00000000000E+00  0.00000000000E+00  0.13056271045E+04  0.13056271045E+04  0.00000000000E+00 0.  1.
          2   -1    0    0  501    0  0.00000000000E+00 -0.00000000000E+00 -0.16052595066E+04  0.16052595066E+04  0.00000000000E+00 0. -1.
         23    2    1    2    0    0 -0.33582155282E+03 -0.67477389476E+03 -0.13909028877E+04  0.15846260044E+04  0.91284207481E+02 0.  0.
         11    1    3    3    0    0 -0.27724348230E+03 -0.51184552140E+03 -0.99982071803E+03  0.11569318279E+04  0.00000000000E+00 0. -1.
        -11    1    3    3    0    0 -0.58578070521E+02 -0.16292837336E+03 -0.39108216965E+03  0.42769417650E+03  0.00000000000E+00 0.  1.
         22    1    1    2    0    0  0.33582155282E+03  0.67477389476E+03  0.10912704856E+04  0.13262606068E+04  0.00000000000E+00 0.  1.
<mgrwt>
<rscale>  0 0.28954242E+04</rscale>
<asrwt>0</asrwt>
<pdfrwt beam="1">  1        2 0.24696300E+00 0.28954242E+04</pdfrwt>
<pdfrwt beam="2">  1       -2 0.20086571E+00 0.28954242E+04</pdfrwt>
<totfact> 0.12555282E+00</totfact>
</mgrwt>
</event>
<event>
 6    1  0.2238133E-007  0.2509936E+04  0.7818608E-02  0.8399454E-01
          2   -1    0    0  501    0  0.00000000000E+00  0.00000000000E+00  0.13630936399E+04  0.13630936399E+04  0.00000000000E+00 0. -1.
         -2   -1    0    0    0  501 -0.00000000000E+00 -0.00000000000E+00 -0.11554196432E+04  0.11554196432E+04  0.00000000000E+00 0.  1.
         23    2    1    2    0    0 -0.46518147223E+03  0.22614569983E+03 -0.10413908855E+04  0.11665891877E+04  0.94338097599E+02 0.  0.
         13    1    3    3    0    0 -0.12317475873E+03  0.17241354515E+02 -0.27167486630E+03  0.29879176440E+03  0.00000000000E+00 0.  1.
        -13    1    3    3    0    0 -0.34200671351E+03  0.20890434531E+03 -0.76971601921E+03  0.86779742325E+03  0.00000000000E+00 0. -1.
         22    1    1    2    0    0  0.46518147223E+03 -0.22614569983E+03  0.12490648822E+04  0.13519240954E+04  0.00000000000E+00 0. -1.
<mgrwt>
<rscale>  0 0.25099364E+04</rscale>
<asrwt>0</asrwt>
<pdfrwt beam="1">  1        2 0.20970671E+00 0.25099364E+04</pdfrwt>
<pdfrwt beam="2">  1       -2 0.17775687E+00 0.25099364E+04</pdfrwt>
<totfact> 0.25452383E+00</totfact>
</mgrwt>
</event>
<event>
 6    1  0.2389883E-007  0.2877540E+04  0.7818608E-02  0.8279592E-01
         -2   -1    0    0    0  501 -0.00000000000E+00  0.00000000000E+00  0.18956913693E+04  0.18956913693E+04  0.00000000000E+00 0.  1.
          2   -1    0    0  501    0  0.00000000000E+00 -0.00000000000E+00 -0.10919809045E+04  0.10919809045E+04  0.00000000000E+00 0. -1.
         23    2    1    2    0    0 -0.24158396305E+03 -0.30548798077E+03  0.18388079339E+04  0.18817281125E+04  0.89444698092E+02 0.  0.
         13    1    3    3    0    0 -0.18643512967E+03 -0.21618185083E+03  0.15040267659E+04  0.15308785591E+04  0.00000000000E+00 0. -1.
        -13    1    3    3    0    0 -0.55148833382E+02 -0.89306129938E+02  0.33478116797E+03  0.35084955337E+03  0.00000000000E+00 0.  1.
         22    1    1    2    0    0  0.24158396305E+03  0.30548798077E+03 -0.10350974690E+04  0.11059441613E+04  0.00000000000E+00 0. -1.
<mgrwt>
<rscale>  0 0.28775398E+04</rscale>
<asrwt>0</asrwt>
<pdfrwt beam="1">  1        2 0.16799706E+00 0.28775398E+04</pdfrwt>
<pdfrwt beam="2">  1       -2 0.29164483E+00 0.28775398E+04</pdfrwt>
<totfact> 0.68120580E-01</totfact>
</mgrwt>
</event>
<event>
 6    1  0.2238133E-007  0.2957737E+04  0.7818608E-02  0.8255903E-01
         -2   -1    0    0    0  501 -0.00000000000E+00  0.00000000000E+00  0.23971361215E+04  0.23971361215E+04  0.00000000000E+00 0.  1.
          2   -1    0    0  501    0  0.00000000000E+00 -0.00000000000E+00 -0.91236034716E+03  0.91236034716E+03  0.00000000000E+00 0. -1.
         23    2    1    2    0    0  0.30909341619E+03 -0.13079540250E+04  0.14290408902E+04  0.19643612157E+04  0.10136393917E+03 0.  0.
         11    1    3    3    0    0  0.26371728724E+02 -0.24985903080E+03  0.30161717730E+03  0.39255308557E+03  0.00000000000E+00 0. -1.
        -11    1    3    3    0    0  0.28272168747E+03 -0.10580949942E+04  0.11274237129E+04  0.15718081301E+04  0.00000000000E+00 0.  1.
         22    1    1    2    0    0 -0.30909341619E+03  0.13079540250E+04  0.55734884142E+02  0.13451352530E+04  0.00000000000E+00 0.  1.
<mgrwt>
<rscale>  0 0.29577369E+04</rscale>
<asrwt>0</asrwt>
<pdfrwt beam="1">  1        2 0.14036313E+00 0.29577369E+04</pdfrwt>
<pdfrwt beam="2">  1       -2 0.36879017E+00 0.29577369E+04</pdfrwt>
<totfact> 0.29191190E-01</totfact>
</mgrwt>
</event>
<event>
 6    1  0.2238133E-007  0.3742176E+04  0.7818608E-02  0.8058679E-01
          2   -1    0    0  501    0  0.00000000000E+00  0.00000000000E+00  0.38884807546E+04  0.38884807546E+04  0.00000000000E+00 0. -1.
         -2   -1    0    0    0  501 -0.00000000000E+00 -0.00000000000E+00 -0.90034406710E+03  0.90034406710E+03  0.00000000000E+00 0.  1.
         23    2    1    2    0    0  0.18103278630E+04  0.17692387608E+03  0.93971956366E+03  0.20493720036E+04  0.90905012512E+02 0.  0.
         13    1    3    3    0    0  0.37195421612E+03  0.72595839743E+02  0.20422330322E+03  0.43049651848E+03  0.00000000000E+00 0. -1.
        -13    1    3    3    0    0  0.14383736469E+04  0.10432803634E+03  0.73549626044E+03  0.16188754851E+04  0.00000000000E+00 0.  1.
         22    1    1    2    0    0 -0.18103278630E+04 -0.17692387608E+03  0.20484171239E+04  0.27394528181E+04  0.00000000000E+00 0. -1.
<mgrwt>
<rscale>  0 0.37421761E+04</rscale>
<asrwt>0</asrwt>
<pdfrwt beam="1">  1        2 0.59822780E+00 0.37421761E+04</pdfrwt>
<pdfrwt beam="2">  1       -2 0.13851447E+00 0.37421761E+04</pdfrwt>
<totfact> 0.12449360E-01</totfact>
</mgrwt>
</event>
<event>
 6    1  0.2238133E-007  0.3969723E+04  0.7818608E-02  0.8010682E-01
         -2   -1    0    0    0  501 -0.00000000000E+00  0.00000000000E+00  0.18115230094E+04  0.18115230094E+04  0.00000000000E+00 0.  1.
          2   -1    0    0  501    0  0.00000000000E+00 -0.00000000000E+00 -0.21747861920E+04  0.21747861920E+04  0.00000000000E+00 0. -1.
         23    2    1    2    0    0 -0.15624277057E+04 -0.87701318285E+03  0.67326306701E+03  0.19163528916E+04  0.93769874031E+02 0.  0.
         11    1    3    3    0    0 -0.29274449535E+03 -0.18893133126E+03  0.98889958909E+02  0.36217897711E+03  0.00000000000E+00 0.  1.
        -11    1    3    3    0    0 -0.12696832104E+04 -0.68808185158E+03  0.57437310810E+03  0.15541739145E+04  0.00000000000E+00 0. -1.
         22    1    1    2    0    0  0.15624277057E+04  0.87701318285E+03 -0.10365262496E+04  0.20699563098E+04  0.00000000000E+00 0. -1.
<mgrwt>
<rscale>  0 0.39697230E+04</rscale>
<asrwt>0</asrwt>
<pdfrwt beam="1">  1        2 0.33458249E+00 0.39697230E+04</pdfrwt>
<pdfrwt beam="2">  1       -2 0.27869585E+00 0.39697230E+04</pdfrwt>
<totfact> 0.18097562E-01</totfact>
</mgrwt>
</event>
<event>
 6    1  0.2238133E-007  0.2543978E+04  0.7818608E-02  0.8387484E-01
         -2   -1    0    0    0  501 -0.00000000000E+00  0.00000000000E+00  0.11040714429E+04  0.11040714429E+04  0.00000000000E+00 0.  1.
          2   -1    0    0  501    0  0.00000000000E+00 -0.00000000000E+00 -0.14654448108E+04  0.14654448108E+04  0.00000000000E+00 0. -1.
         23    2    1    2    0    0  0.78858776651E+03 -0.52691804451E+03  0.67254910597E+03  0.11664806259E+04  0.94029035402E+02 0.  0.
         11    1    3    3    0    0  0.50056436732E+03 -0.35215533561E+03  0.38086100028E+03  0.72085585783E+03  0.00000000000E+00 0. -1.
        -11    1    3    3    0    0  0.28802339919E+03 -0.17476270890E+03  0.29168810570E+03  0.44562476806E+03  0.00000000000E+00 0.  1.
         22    1    1    2    0    0 -0.78858776651E+03  0.52691804451E+03 -0.10339224739E+04  0.14030356279E+04  0.00000000000E+00 0. -1.
<mgrwt>
<rscale>  0 0.25439778E+04</rscale>
<asrwt>0</asrwt>
<pdfrwt beam="1">  1        2 0.22545305E+00 0.25439778E+04</pdfrwt>
<pdfrwt beam="2">  1       -2 0.16985715E+00 0.25439778E+04</pdfrwt>
<totfact> 0.25213406E+00</totfact>
</mgrwt>
</event>
<event>
 6    1  0.2238133E-007  0.2981729E+04  0.7818608E-02  0.8248968E-01
         -2   -1    0    0    0  501 -0.00000000000E+00  0.00000000000E+00  0.94212702936E+03  0.94212702936E+03  0.00000000000E+00 0.  1.
          2   -1    0    0  501    0  0.00000000000E+00 -0.00000000000E+00 -0.23592111960E+04  0.23592111960E+04  0.00000000000E+00 0. -1.
         23    2    1    2    0    0 -0.83491609535E+03  0.47413307195E+03 -0.19699738606E+04  0.21933788082E+04  0.90700214712E+02 0.  0.
         13    1    3    3    0    0 -0.11863091634E+02  0.21000722986E+02 -0.64468494707E+02  0.68832769223E+02  0.00000000000E+00 0. -1.
        -13    1    3    3    0    0 -0.82305300371E+03  0.45313234896E+03 -0.19055053659E+04  0.21245460390E+04  0.00000000000E+00 0.  1.
         22    1    1    2    0    0  0.83491609535E+03 -0.47413307195E+03  0.55288969396E+03  0.11079594171E+04  0.00000000000E+00 0.  1.
<mgrwt>
<rscale>  0 0.29817288E+04</rscale>
<asrwt>0</asrwt>
<pdfrwt beam="1">  1        2 0.36295556E+00 0.29817288E+04</pdfrwt>
<pdfrwt beam="2">  1       -2 0.14494262E+00 0.29817288E+04</pdfrwt>
<totfact> 0.11795357E+00</totfact>
</mgrwt>
</event>
<event>
 6    1  0.2238133E-007  0.2896535E+04  0.7818608E-02  0.8273909E-01
          2   -1    0    0  501    0  0.00000000000E+00  0.00000000000E+00  0.23500139307E+04  0.23500139307E+04  0.00000000000E+00 0. -1.
         -2   -1    0    0    0  501 -0.00000000000E+00 -0.00000000000E+00 -0.89253871994E+03  0.89253871994E+03  0.00000000000E+00 0.  1.
         23    2    1    2    0    0  0.94949217380E+01  0.10726347691E+04 -0.35768670722E+03  0.11341294745E+04  0.87603555025E+02 0.  0.
         11    1    3    3    0    0  0.11517776268E+02  0.70843530381E+03 -0.27925419097E+03  0.76157477770E+03  0.00000000000E+00 0. -1.
        -11    1    3    3    0    0 -0.20228545299E+01  0.36419946530E+03 -0.78432516247E+02  0.37255469675E+03  0.00000000000E+00 0.  1.
         22    1    1    2    0    0 -0.94949217380E+01 -0.10726347691E+04  0.18151619180E+04  0.21084231762E+04  0.00000000000E+00 0. -1.
<mgrwt>
<rscale>  0 0.28965348E+04</rscale>
<asrwt>0</asrwt>
<pdfrwt beam="1">  1        2 0.36154060E+00 0.28965348E+04</pdfrwt>
<pdfrwt beam="2">  1       -2 0.13731365E+00 0.28965348E+04</pdfrwt>
<totfact> 0.13842264E+00</totfact>
</mgrwt>
</event>
<event>
 6    1  0.2238133E-007  0.3241525E+04  0.7818608E-02  0.8177936E-01
          2   -1    0    0  501    0  0.00000000000E+00  0.00000000000E+00  0.33917131207E+04  0.33917131207E+04  0.00000000000E+00 0. -1.
         -2   -1    0    0    0  501 -0.00000000000E+00 -0.00000000000E+00 -0.77449679437E+03  0.77449679437E+03  0.00000000000E+00 0.  1.
         23    2    1    2    0    0 -0.11998703529E+04 -0.81155043208E+03  0.22403428354E+04  0.26694345159E+04  0.91878433932E+02 0.  0.
         13    1    3    3    0    0 -0.10321604090E+04 -0.73317535605E+03  0.19365442010E+04  0.23136777336E+04  0.00000000000E+00 0.  1.
        -13    1    3    3    0    0 -0.16770994394E+03 -0.78375076023E+02  0.30379863447E+03  0.35575678229E+03  0.00000000000E+00 0. -1.
         22    1    1    2    0    0  0.11998703529E+04  0.81155043208E+03  0.37687349091E+03  0.14967753992E+04  0.00000000000E+00 0.  1.
<mgrwt>
<rscale>  0 0.32415249E+04</rscale>
<asrwt>0</asrwt>
<pdfrwt beam="1">  1        2 0.52180201E+00 0.32415249E+04</pdfrwt>
<pdfrwt beam="2">  1       -2 0.11915335E+00 0.32415249E+04</pdfrwt>
<totfact> 0.43752954E-01</totfact>
</mgrwt>
</event>
<event>
 6    1  0.2238133E-007  0.2216642E+04  0.7818608E-02  0.8511533E-01
          2   -1    0    0  501    0  0.00000000000E+00  0.00000000000E+00  0.81272202753E+03  0.81272202753E+03  0.00000000000E+00 0. -1.
         -2   -1    0    0    0  501 -0.00000000000E+00 -0.00000000000E+00 -0.15114329912E+04  0.15114329912E+04  0.00000000000E+00 0.  1.
         23    2    1    2    0    0 -0.99146993225E+03 -0.38436948702E+03 -0.67034375151E+03  0.12604082313E+04  0.92280199407E+02 0.  0.
         13    1    3    3    0    0 -0.24014784238E+02 -0.25577443433E+02 -0.15849945565E+02  0.38498522686E+02  0.00000000000E+00 0.  1.
        -13    1    3    3    0    0 -0.96745514801E+03 -0.35879204358E+03 -0.65449380595E+03  0.12219097086E+04  0.00000000000E+00 0. -1.
         22    1    1    2    0    0  0.99146993225E+03  0.38436948702E+03 -0.28367212163E+02  0.10637467875E+04  0.00000000000E+00 0.  1.
<mgrwt>
<rscale>  0 0.22166415E+04</rscale>
<asrwt>0</asrwt>
<pdfrwt beam="1">  1        2 0.12503416E+00 0.22166415E+04</pdfrwt>
<pdfrwt beam="2">  1       -2 0.23252815E+00 0.22166415E+04</pdfrwt>
<totfact> 0.25372225E+00</totfact>
</mgrwt>
</event>
<event>
 6    1  0.2238133E-007  0.6025281E+04  0.7818608E-02  0.7687275E-01
         -2   -1    0    0    0  501 -0.00000000000E+00  0.00000000000E+00  0.47030626498E+04  0.47030626498E+04  0.00000000000E+00 0.  1.
          2   -1    0    0  501    0  0.00000000000E+00 -0.00000000000E+00 -0.19298069981E+04  0.19298069981E+04  0.00000000000E+00 0. -1.
         23    2    1    2    0    0 -0.88395876213E+03  0.13113218262E+04  0.42088088984E+04  0.44970416704E+04  0.91451722346E+02 0.  0.
         13    1    3    3    0    0 -0.76113582380E+03  0.11356300533E+04  0.37216997079E+04  0.39648495654E+04  0.00000000000E+00 0.  1.
        -13    1    3    3    0    0 -0.12282293833E+03  0.17569177286E+03  0.48710919051E+03  0.53219210508E+03  0.00000000000E+00 0. -1.
         22    1    1    2    0    0  0.88395876213E+03 -0.13113218262E+04 -0.14355532467E+04  0.21358279774E+04  0.00000000000E+00 0. -1.
<mgrwt>
<rscale>  0 0.60252811E+04</rscale>
<asrwt>0</asrwt>
<pdfrwt beam="1">  1        2 0.29689339E+00 0.60252811E+04</pdfrwt>
<pdfrwt beam="2">  1       -2 0.72354809E+00 0.60252811E+04</pdfrwt>
<totfact> 0.92585691E-04</totfact>
</mgrwt>
</event>
<event>
 6    1  0.2238133E-007  0.1995116E+04  0.7818608E-02  0.8608907E-01
         -2   -1    0    0    0  501 -0.00000000000E+00  0.00000000000E+00  0.39617984911E+03  0.39617984911E+03  0.00000000000E+00 0.  1.
          2   -1    0    0  501    0  0.00000000000E+00 -0.00000000000E+00 -0.25117936315E+04  0.25117936315E+04  0.00000000000E+00 0. -1.
         23    2    1    2    0    0  0.58799046302E+03  0.39486455404E+03 -0.20796432613E+04  0.21987875536E+04  0.89998948989E+02 0.  0.
         11    1    3    3    0    0  0.27024537344E+03  0.18068733511E+03 -0.10939833576E+04  0.11412624859E+04  0.00000000000E+00 0.  1.
        -11    1    3    3    0    0  0.31774508958E+03  0.21417721893E+03 -0.98565990368E+03  0.10575250677E+04  0.00000000000E+00 0. -1.
         22    1    1    2    0    0 -0.58799046302E+03 -0.39486455404E+03 -0.35970521027E+02  0.70918592698E+03  0.00000000000E+00 0.  1.
<mgrwt>
<rscale>  0 0.19951161E+04</rscale>
<asrwt>0</asrwt>
<pdfrwt beam="1">  1        2 0.38642978E+00 0.19951161E+04</pdfrwt>
<pdfrwt beam="2">  1       -2 0.60950747E-01 0.19951161E+04</pdfrwt>
<totfact> 0.79828304E+00</totfact>
</mgrwt>
</event>
<event>
 6    1  0.2238133E-007  0.4026410E+04  0.7818608E-02  0.7999240E-01
          2   -1    0    0  501    0  0.00000000000E+00  0.00000000000E+00  0.28846037899E+04  0.28846037899E+04  0.00000000000E+00 0. -1.
         -2   -1    0    0    0  501 -0.00000000000E+00 -0.00000000000E+00 -0.14050438052E+04  0.14050438052E+04  0.00000000000E+00 0.  1.
         23    2    1    2    0    0 -0.17546133071E+04  0.44393658793E+03  0.16769327425E+04  0.24690148598E+04  0.90462165089E+02 0.  0.
         11    1    3    3    0    0 -0.62442511386E+03  0.13150805766E+03  0.54400978354E+03  0.83853904896E+03  0.00000000000E+00 0. -1.
        -11    1    3    3    0    0 -0.11301881932E+04  0.31242853027E+03  0.11329229590E+04  0.16304758108E+04  0.00000000000E+00 0.  1.
         22    1    1    2    0    0  0.17546133071E+04 -0.44393658793E+03 -0.19737275781E+03  0.18206327353E+04  0.00000000000E+00 0.  1.
<mgrwt>
<rscale>  0 0.40264102E+04</rscale>
<asrwt>0</asrwt>
<pdfrwt beam="1">  1        2 0.44378520E+00 0.40264102E+04</pdfrwt>
<pdfrwt beam="2">  1       -2 0.21616059E+00 0.40264102E+04</pdfrwt>
<totfact> 0.16893061E-01</totfact>
</mgrwt>
</event>
<event>
 6    1  0.2238133E-007  0.2493240E+04  0.7818608E-02  0.8405398E-01
          2   -1    0    0  501    0  0.00000000000E+00  0.00000000000E+00  0.10414363968E+04  0.10414363968E+04  0.00000000000E+00 0. -1.
         -2   -1    0    0    0  501 -0.00000000000E+00 -0.00000000000E+00 -0.14922292961E+04  0.14922292961E+04  0.00000000000E+00 0.  1.
         23    2    1    2    0    0 -0.70433668672E+03 -0.73834665214E+03 -0.95122691031E+03  0.13971446212E+04  0.77035774633E+02 0.  0.
         11    1    3    3    0    0 -0.27205098247E+03 -0.32930151935E+03 -0.36658942175E+03  0.56288456352E+03  0.00000000000E+00 0. -1.
        -11    1    3    3    0    0 -0.43228570426E+03 -0.40904513279E+03 -0.58463748855E+03  0.83426005765E+03  0.00000000000E+00 0.  1.
         22    1    1    2    0    0  0.70433668672E+03  0.73834665214E+03  0.50043401106E+03  0.11365210717E+04  0.00000000000E+00 0. -1.
<mgrwt>
<rscale>  0 0.24932404E+04</rscale>
<asrwt>0</asrwt>
<pdfrwt beam="1">  1        2 0.16022099E+00 0.24932404E+04</pdfrwt>
<pdfrwt beam="2">  1       -2 0.22957374E+00 0.24932404E+04</pdfrwt>
<totfact> 0.18192487E+00</totfact>
</mgrwt>
</event>
<event>
 6    1  0.2238133E-007  0.2177239E+04  0.7818608E-02  0.8527962E-01
         -2   -1    0    0    0  501 -0.00000000000E+00  0.00000000000E+00  0.40921578927E+03  0.40921578927E+03  0.00000000000E+00 0.  1.
          2   -1    0    0  501    0  0.00000000000E+00 -0.00000000000E+00 -0.28960091319E+04  0.28960091319E+04  0.00000000000E+00 0. -1.
         23    2    1    2    0    0  0.83757374125E+03 -0.47612809178E+03 -0.48407550532E+03  0.10828148628E+04  0.99655408149E+02 0.  0.
         13    1    3    3    0    0  0.56269409818E+03 -0.27162913519E+03 -0.28719418757E+03  0.68766818785E+03  0.00000000000E+00 0.  1.
        -13    1    3    3    0    0  0.27487964308E+03 -0.20449895659E+03 -0.19688131775E+03  0.39514667492E+03  0.00000000000E+00 0. -1.
         22    1    1    2    0    0 -0.83757374125E+03  0.47612809178E+03 -0.20027178373E+04  0.22224100584E+04  0.00000000000E+00 0. -1.
<mgrwt>
<rscale>  0 0.21772392E+04</rscale>
<asrwt>0</asrwt>
<pdfrwt beam="1">  1        2 0.44553985E+00 0.21772392E+04</pdfrwt>
<pdfrwt beam="2">  1       -2 0.62956277E-01 0.21772392E+04</pdfrwt>
<totfact> 0.43302821E+00</totfact>
</mgrwt>
</event>
<event>
 6    1  0.2238133E-007  0.1710223E+04  0.7818608E-02  0.8755555E-01
          4   -1    0    0  501    0  0.00000000000E+00  0.00000000000E+00  0.51936855975E+03  0.51936855975E+03  0.00000000000E+00 0. -1.
         -4   -1    0    0    0  501 -0.00000000000E+00 -0.00000000000E+00 -0.14078932333E+04  0.14078932333E+04  0.00000000000E+00 0.  1.
         23    2    1    2    0    0 -0.25256612107E+03 -0.76678931797E+03 -0.13619732473E+03  0.82374380794E+03  0.90822057835E+02 0.  0.
         13    1    3    3    0    0 -0.22735533795E+03 -0.74529698128E+03 -0.13283642092E+03  0.79044516238E+03  0.00000000000E+00 0. -1.
        -13    1    3    3    0    0 -0.25210783122E+02 -0.21492336691E+02 -0.33609038052E+01  0.33298645564E+02  0.00000000000E+00 0.  1.
         22    1    1    2    0    0  0.25256612107E+03  0.76678931797E+03 -0.75232734883E+03  0.11035179851E+04  0.00000000000E+00 0.  1.
<mgrwt>
<rscale>  0 0.17102228E+04</rscale>
<asrwt>0</asrwt>
<pdfrwt beam="1">  1        4 0.79902857E-01 0.17102228E+04</pdfrwt>
<pdfrwt beam="2">  1       -4 0.21659895E+00 0.17102228E+04</pdfrwt>
<totfact> 0.27157019E-01</totfact>
</mgrwt>
</event>
<event>
 6    1  0.2238133E-007  0.1808364E+04  0.7818608E-02  0.8701864E-01
          2   -1    0    0  501    0  0.00000000000E+00  0.00000000000E+00  0.77138316248E+03  0.77138316248E+03  0.00000000000E+00 0. -1.
         -2   -1    0    0    0  501 -0.00000000000E+00 -0.00000000000E+00 -0.10598429512E+04  0.10598429512E+04  0.00000000000E+00 0.  1.
         23    2    1    2    0    0 -0.18876768104E+03 -0.86528168486E+03  0.29650360640E+02  0.89019492468E+03  0.84983695431E+02 0.  0.
         11    1    3    3    0    0 -0.69464172372E+02 -0.41311572114E+03 -0.23323228555E+02  0.41956387271E+03  0.00000000000E+00 0.  1.
        -11    1    3    3    0    0 -0.11930350866E+03 -0.45216596372E+03  0.52973589196E+02  0.47063105197E+03  0.00000000000E+00 0. -1.
         22    1    1    2    0    0  0.18876768104E+03  0.86528168486E+03 -0.31811014937E+03  0.94103118901E+03  0.00000000000E+00 0.  1.
<mgrwt>
<rscale>  0 0.18083639E+04</rscale>
<asrwt>0</asrwt>
<pdfrwt beam="1">  1        2 0.11867433E+00 0.18083639E+04</pdfrwt>
<pdfrwt beam="2">  1       -2 0.16305276E+00 0.18083639E+04</pdfrwt>
<totfact> 0.81532408E+00</totfact>
</mgrwt>
</event>
<event>
 6    1  0.2238133E-007  0.1038580E+04  0.7818608E-02  0.9267214E-01
          2   -1    0    0  501    0  0.00000000000E+00  0.00000000000E+00  0.16499611656E+04  0.16499611656E+04  0.00000000000E+00 0. -1.
         -2   -1    0    0    0  501 -0.00000000000E+00 -0.00000000000E+00 -0.16343545600E+03  0.16343545600E+03  0.00000000000E+00 0.  1.
         23    2    1    2    0    0  0.38199356439E+03  0.12781284268E+03  0.18812180700E+03  0.45394529836E+03  0.91767715691E+02 0.  0.
         11    1    3    3    0    0  0.19526300560E+03  0.26073245482E+02  0.61125651610E+02  0.20626148640E+03  0.00000000000E+00 0. -1.
        -11    1    3    3    0    0  0.18673055879E+03  0.10173959720E+03  0.12699615539E+03  0.24768381196E+03  0.00000000000E+00 0.  1.
         22    1    1    2    0    0 -0.38199356439E+03 -0.12781284268E+03  0.12984039026E+04  0.13594513232E+04  0.00000000000E+00 0. -1.
<mgrwt>
<rscale>  0 0.10385801E+04</rscale>
<asrwt>0</asrwt>
<pdfrwt beam="1">  1        2 0.25384017E+00 0.10385801E+04</pdfrwt>
<pdfrwt beam="2">  1       -2 0.25143917E-01 0.10385801E+04</pdfrwt>
<totfact> 0.14790222E+02</totfact>
</mgrwt>
</event>
<event>
 6    1  0.2238133E-007  0.4355265E+04  0.7818608E-02  0.7936477E-01
          1   -1    0    0  501    0  0.00000000000E+00  0.00000000000E+00  0.30223654093E+04  0.30223654093E+04  0.00000000000E+00 0. -1.
         -1   -1    0    0    0  501 -0.00000000000E+00 -0.00000000000E+00 -0.15689975871E+04  0.15689975871E+04  0.00000000000E+00 0.  1.
         23    2    1    2    0    0 -0.20575358263E+04  0.48009994882E+03  0.12789045051E+04  0.24713660421E+04  0.90020796022E+02 0.  0.
         13    1    3    3    0    0 -0.13690617159E+04  0.29073772676E+03  0.88416483410E+03  0.16554775328E+04  0.00000000000E+00 0.  1.
        -13    1    3    3    0    0 -0.68847411034E+03  0.18936222206E+03  0.39473967100E+03  0.81588850930E+03  0.00000000000E+00 0. -1.
         22    1    1    2    0    0  0.20575358263E+04 -0.48009994882E+03  0.17446331713E+03  0.21199969543E+04  0.00000000000E+00 0.  1.
<mgrwt>
<rscale>  0 0.43552653E+04</rscale>
<asrwt>0</asrwt>
<pdfrwt beam="1">  1        1 0.46497929E+00 0.43552653E+04</pdfrwt>
<pdfrwt beam="2">  1       -1 0.24138424E+00 0.43552653E+04</pdfrwt>
<totfact> 0.34735988E-02</totfact>
</mgrwt>
</event>
<event>
 6    1  0.2238133E-007  0.2799985E+04  0.7818608E-02  0.8303273E-01
          2   -1    0    0  501    0  0.00000000000E+00  0.00000000000E+00  0.12906077014E+04  0.12906077014E+04  0.00000000000E+00 0. -1.
         -2   -1    0    0    0  501 -0.00000000000E+00 -0.00000000000E+00 -0.15186481138E+04  0.15186481138E+04  0.00000000000E+00 0.  1.
         23    2    1    2    0    0  0.97257065362E+03  0.97541922584E+03 -0.35638211044E+03  0.14258513430E+04  0.93313992964E+02 0.  0.
         13    1    3    3    0    0  0.37578863857E+03  0.41284627392E+03 -0.18382380347E+03  0.58775023393E+03  0.00000000000E+00 0.  1.
        -13    1    3    3    0    0  0.59678201505E+03  0.56257295193E+03 -0.17255830697E+03  0.83810110908E+03  0.00000000000E+00 0. -1.
         22    1    1    2    0    0 -0.97257065362E+03 -0.97541922584E+03  0.12834169805E+03  0.13834044723E+04  0.00000000000E+00 0. -1.
<mgrwt>
<rscale>  0 0.27999850E+04</rscale>
<asrwt>0</asrwt>
<pdfrwt beam="1">  1        2 0.19855503E+00 0.27999850E+04</pdfrwt>
<pdfrwt beam="2">  1       -2 0.23363817E+00 0.27999850E+04</pdfrwt>
<totfact> 0.11820142E+00</totfact>
</mgrwt>
</event>
<event>
 6    1  0.2238133E-007  0.1485219E+04  0.7818608E-02  0.8894342E-01
         -2   -1    0    0    0  501 -0.00000000000E+00  0.00000000000E+00  0.35699963315E+03  0.35699963315E+03  0.00000000000E+00 0.  1.
          2   -1    0    0  501    0  0.00000000000E+00 -0.00000000000E+00 -0.15447321971E+04  0.15447321971E+04  0.00000000000E+00 0. -1.
         23    2    1    2    0    0  0.11354134417E+03 -0.73086410033E+03 -0.58581121577E+03  0.94812641950E+03  0.93353933232E+02 0.  0.
         13    1    3    3    0    0  0.33361898731E+02 -0.26559033032E+03 -0.26940590800E+03  0.37977728093E+03  0.00000000000E+00 0. -1.
        -13    1    3    3    0    0  0.80179445442E+02 -0.46527377001E+03 -0.31640530778E+03  0.56834913857E+03  0.00000000000E+00 0.  1.
         22    1    1    2    0    0 -0.11354134417E+03  0.73086410033E+03 -0.60192134814E+03  0.95360541071E+03  0.00000000000E+00 0. -1.
<mgrwt>
<rscale>  0 0.14852189E+04</rscale>
<asrwt>0</asrwt>
<pdfrwt beam="1">  1        2 0.23765111E+00 0.14852189E+04</pdfrwt>
<pdfrwt beam="2">  1       -2 0.54923020E-01 0.14852189E+04</pdfrwt>
<totfact> 0.36117744E+01</totfact>
</mgrwt>
</event>
<event>
 6    1  0.2238133E-007  0.7146326E+03  0.7818608E-02  0.9692531E-01
          2   -1    0    0  501    0  0.00000000000E+00  0.00000000000E+00  0.28686239899E+04  0.28686239899E+04  0.00000000000E+00 0. -1.
         -2   -1    0    0    0  501 -0.00000000000E+00 -0.00000000000E+00 -0.44507374770E+02  0.44507374770E+02  0.00000000000E+00 0.  1.
         23    2    1    2    0    0  0.10487597413E+03 -0.24084810897E+03  0.23870208178E+04  0.24031710548E+04  0.91410900643E+02 0.  0.
         11    1    3    3    0    0  0.43407355934E+01 -0.46299037870E+02  0.20598545645E+03  0.21116924767E+03  0.00000000000E+00 0.  1.
        -11    1    3    3    0    0  0.10053523853E+03 -0.19454907110E+03  0.21810353613E+04  0.21920018071E+04  0.00000000000E+00 0. -1.
         22    1    1    2    0    0 -0.10487597413E+03  0.24084810897E+03  0.43709579734E+03  0.50996030982E+03  0.00000000000E+00 0.  1.
<mgrwt>
<rscale>  0 0.71463256E+03</rscale>
<asrwt>0</asrwt>
<pdfrwt beam="1">  1        2 0.44132662E+00 0.71463256E+03</pdfrwt>
<pdfrwt beam="2">  1       -2 0.68472907E-02 0.71463256E+03</pdfrwt>
<totfact> 0.27913525E+02</totfact>
</mgrwt>
</event>
<event>
 6    1  0.2238133E-007  0.9564644E+03  0.7818608E-02  0.9357626E-01
         -2   -1    0    0    0  501 -0.00000000000E+00  0.00000000000E+00  0.16784546158E+03  0.16784546158E+03  0.00000000000E+00 0.  1.
          2   -1    0    0  501    0  0.00000000000E+00 -0.00000000000E+00 -0.13625988336E+04  0.13625988336E+04  0.00000000000E+00 0. -1.
         23    2    1    2    0    0  0.35731098391E+03  0.30725629092E+03 -0.52250356427E+03  0.70947086591E+03  0.90892064375E+02 0.  0.
         11    1    3    3    0    0  0.24413482961E+03  0.17229294965E+03 -0.37666681773E+03  0.48079576445E+03  0.00000000000E+00 0. -1.
        -11    1    3    3    0    0  0.11317615430E+03  0.13496334127E+03 -0.14583674653E+03  0.22867510146E+03  0.00000000000E+00 0.  1.
         22    1    1    2    0    0 -0.35731098391E+03 -0.30725629092E+03 -0.67224980774E+03  0.82097342925E+03  0.00000000000E+00 0.  1.
<mgrwt>
<rscale>  0 0.95646439E+03</rscale>
<asrwt>0</asrwt>
<pdfrwt beam="1">  1        2 0.20963059E+00 0.95646439E+03</pdfrwt>
<pdfrwt beam="2">  1       -2 0.25822379E-01 0.95646439E+03</pdfrwt>
<totfact> 0.20547888E+02</totfact>
</mgrwt>
</event>
<event>
 6    1  0.2238133E-007  0.1149129E+04  0.7818608E-02  0.9158587E-01
          2   -1    0    0  501    0  0.00000000000E+00  0.00000000000E+00  0.56544800203E+03  0.56544800203E+03  0.00000000000E+00 0. -1.
         -2   -1    0    0    0  501 -0.00000000000E+00 -0.00000000000E+00 -0.58382791888E+03  0.58382791888E+03  0.00000000000E+00 0.  1.
         23    2    1    2    0    0  0.29914017508E+03 -0.19518720276E+03 -0.45480410416E+03  0.58531762480E+03  0.90371789144E+02 0.  0.
         13    1    3    3    0    0  0.82423763366E+02 -0.29604960839E+02 -0.62787614287E+02  0.10776091584E+03  0.00000000000E+00 0. -1.
        -13    1    3    3    0    0  0.21671641172E+03 -0.16558224192E+03 -0.39201648988E+03  0.47755670897E+03  0.00000000000E+00 0.  1.
         22    1    1    2    0    0 -0.29914017508E+03  0.19518720276E+03  0.43642418731E+03  0.56395829610E+03  0.00000000000E+00 0. -1.
<mgrwt>
<rscale>  0 0.11491289E+04</rscale>
<asrwt>0</asrwt>
<pdfrwt beam="1">  1        2 0.86992001E-01 0.11491289E+04</pdfrwt>
<pdfrwt beam="2">  1       -2 0.89819679E-01 0.11491289E+04</pdfrwt>
<totfact> 0.56008459E+01</totfact>
</mgrwt>
</event>
<event>
 6    1  0.2238133E-007  0.3752319E+04  0.7818608E-02  0.8056465E-01
         -2   -1    0    0    0  501 -0.00000000000E+00  0.00000000000E+00  0.16209984799E+04  0.16209984799E+04  0.00000000000E+00 0.  1.
          2   -1    0    0  501    0  0.00000000000E+00 -0.00000000000E+00 -0.21714855164E+04  0.21714855164E+04  0.00000000000E+00 0. -1.
         23    2    1    2    0    0  0.59203459930E+03  0.29237527097E+03 -0.20491324432E+04  0.21548252037E+04  0.91321534602E+02 0.  0.
         13    1    3    3    0    0  0.49396416307E+03  0.25069502254E+03 -0.15983084888E+04  0.16915787342E+04  0.00000000000E+00 0. -1.
        -13    1    3    3    0    0  0.98070436227E+02  0.41680248424E+02 -0.45082395447E+03  0.46324646949E+03  0.00000000000E+00 0.  1.
         22    1    1    2    0    0 -0.59203459930E+03 -0.29237527097E+03  0.14986454068E+04  0.16376587926E+04  0.00000000000E+00 0.  1.
<mgrwt>
<rscale>  0 0.37523191E+04</rscale>
<asrwt>0</asrwt>
<pdfrwt beam="1">  1        2 0.33407470E+00 0.37523191E+04</pdfrwt>
<pdfrwt beam="2">  1       -2 0.24938438E+00 0.37523191E+04</pdfrwt>
<totfact> 0.27960606E-01</totfact>
</mgrwt>
</event>
<event>
 6    1  0.2238133E-007  0.1640136E+04  0.7818608E-02  0.8796263E-01
          2   -1    0    0  501    0  0.00000000000E+00  0.00000000000E+00  0.36951548411E+04  0.36951548411E+04  0.00000000000E+00 0. -1.
         -2   -1    0    0    0  501 -0.00000000000E+00 -0.00000000000E+00 -0.18199829708E+03  0.18199829708E+03  0.00000000000E+00 0.  1.
         23    2    1    2    0    0 -0.37288941518E+03  0.43593239408E+03  0.38520005728E+03  0.69702808543E+03  0.91572373515E+02 0.  0.
         13    1    3    3    0    0 -0.14110225033E+03  0.10837500895E+03  0.93955072496E+02  0.20120274168E+03  0.00000000000E+00 0.  1.
        -13    1    3    3    0    0 -0.23178716486E+03  0.32755738513E+03  0.29124498478E+03  0.49582534375E+03  0.00000000000E+00 0. -1.
         22    1    1    2    0    0  0.37288941518E+03 -0.43593239408E+03  0.31279564867E+04  0.31801250528E+04  0.00000000000E+00 0. -1.
<mgrwt>
<rscale>  0 0.16401364E+04</rscale>
<asrwt>0</asrwt>
<pdfrwt beam="1">  1        2 0.56848530E+00 0.16401364E+04</pdfrwt>
<pdfrwt beam="2">  1       -2 0.27999741E-01 0.16401364E+04</pdfrwt>
<totfact> 0.66502780E+00</totfact>
</mgrwt>
</event>
<event>
 6    1  0.2238133E-007  0.2176555E+04  0.7818608E-02  0.8528250E-01
         -2   -1    0    0    0  501 -0.00000000000E+00  0.00000000000E+00  0.14733585139E+04  0.14733585139E+04  0.00000000000E+00 0.  1.
          2   -1    0    0  501    0  0.00000000000E+00 -0.00000000000E+00 -0.80384211240E+03  0.80384211240E+03  0.00000000000E+00 0. -1.
         23    2    1    2    0    0 -0.85185585051E+03  0.62587700392E+03  0.59542199675E+03  0.12175448355E+04  0.10250686941E+03 0.  0.
         13    1    3    3    0    0 -0.48507892823E+03  0.35958849910E+03  0.39781549465E+03  0.72309240286E+03  0.00000000000E+00 0.  1.
        -13    1    3    3    0    0 -0.36677692227E+03  0.26628850482E+03  0.19760650210E+03  0.49445243268E+03  0.00000000000E+00 0. -1.
         22    1    1    2    0    0  0.85185585051E+03 -0.62587700392E+03  0.74094404745E+02  0.10596557908E+04  0.00000000000E+00 0. -1.
<mgrwt>
<rscale>  0 0.21765547E+04</rscale>
<asrwt>0</asrwt>
<pdfrwt beam="1">  1        2 0.12366802E+00 0.21765547E+04</pdfrwt>
<pdfrwt beam="2">  1       -2 0.22667054E+00 0.21765547E+04</pdfrwt>
<totfact> 0.28108683E+00</totfact>
</mgrwt>
</event>
<event>
 6    1  0.2238133E-007  0.1183039E+04  0.7818608E-02  0.9127834E-01
         -2   -1    0    0    0  501 -0.00000000000E+00  0.00000000000E+00  0.37823265301E+03  0.37823265301E+03  0.00000000000E+00 0.  1.
          2   -1    0    0  501    0  0.00000000000E+00 -0.00000000000E+00 -0.92507905375E+03  0.92507905375E+03  0.00000000000E+00 0. -1.
         23    2    1    2    0    0  0.30339349572E+03  0.23203179526E+03  0.21728198243E+03  0.44904093399E+03  0.92411759299E+02 0.  0.
         13    1    3    3    0    0  0.21758435083E+03  0.11709984864E+03  0.16124677530E+03  0.29505227812E+03  0.00000000000E+00 0.  1.
        -13    1    3    3    0    0  0.85809144886E+02  0.11493194662E+03  0.56035207127E+02  0.15398865587E+03  0.00000000000E+00 0. -1.
         22    1    1    2    0    0 -0.30339349572E+03 -0.23203179526E+03 -0.76412838317E+03  0.85427077277E+03  0.00000000000E+00 0. -1.
<mgrwt>
<rscale>  0 0.11830386E+04</rscale>
<asrwt>0</asrwt>
<pdfrwt beam="1">  1        2 0.14231985E+00 0.11830386E+04</pdfrwt>
<pdfrwt beam="2">  1       -2 0.58189640E-01 0.11830386E+04</pdfrwt>
<totfact> 0.76988363E+01</totfact>
</mgrwt>
</event>
<event>
 6    1  0.2238133E-007  0.2763094E+03  0.7818608E-02  0.1097722E+00
          3   -1    0    0  501    0  0.00000000000E+00  0.00000000000E+00  0.83513703905E+02  0.83513703905E+02  0.00000000000E+00 0. -1.
         -3   -1    0    0    0  501 -0.00000000000E+00 -0.00000000000E+00 -0.22854598228E+03  0.22854598228E+03  0.00000000000E+00 0.  1.
         23    2    1    2    0    0  0.10702806310E+03  0.62517787573E+02 -0.80554392000E+02  0.17234255092E+03  0.88597204997E+02 0.  0.
         13    1    3    3    0    0 -0.52294170719E+01  0.99896174682E+01  0.12888692043E+02  0.17124766937E+02  0.00000000000E+00 0. -1.
        -13    1    3    3    0    0  0.11225748017E+03  0.52528170105E+02 -0.93443084043E+02  0.15521778398E+03  0.00000000000E+00 0.  1.
         22    1    1    2    0    0 -0.10702806310E+03 -0.62517787573E+02 -0.64477886371E+02  0.13971713526E+03  0.00000000000E+00 0.  1.
<mgrwt>
<rscale>  0 0.27630940E+03</rscale>
<asrwt>0</asrwt>
<pdfrwt beam="1">  1        3 0.12848262E-01 0.27630940E+03</pdfrwt>
<pdfrwt beam="2">  1       -3 0.35160921E-01 0.27630940E+03</pdfrwt>
<totfact> 0.97987654E+02</totfact>
</mgrwt>
</event>
<event>
 6    1  0.2238133E-007  0.1247297E+04  0.7818608E-02  0.9072436E-01
         -2   -1    0    0    0  501 -0.00000000000E+00  0.00000000000E+00  0.33100986138E+03  0.33100986138E+03  0.00000000000E+00 0.  1.
          2   -1    0    0  501    0  0.00000000000E+00 -0.00000000000E+00 -0.11750017894E+04  0.11750017894E+04  0.00000000000E+00 0. -1.
         23    2    1    2    0    0 -0.17228576342E+03 -0.45750971907E+03  0.36642672216E+02  0.49878038318E+03  0.91878495299E+02 0.  0.
         13    1    3    3    0    0 -0.12163710514E+03 -0.23483958584E+03 -0.14120975570E+02  0.26484829313E+03  0.00000000000E+00 0.  1.
        -13    1    3    3    0    0 -0.50648658286E+02 -0.22267013323E+03  0.50763647787E+02  0.23393209005E+03  0.00000000000E+00 0. -1.
         22    1    1    2    0    0  0.17228576342E+03  0.45750971907E+03 -0.88063460027E+03  0.10072312676E+04  0.00000000000E+00 0. -1.
<mgrwt>
<rscale>  0 0.12472966E+04</rscale>
<asrwt>0</asrwt>
<pdfrwt beam="1">  1        2 0.18076951E+00 0.12472966E+04</pdfrwt>
<pdfrwt beam="2">  1       -2 0.50924594E-01 0.12472966E+04</pdfrwt>
<totfact> 0.70285169E+01</totfact>
</mgrwt>
</event>
<event>
 6    1  0.2238133E-007  0.2417827E+04  0.7818608E-02  0.8432859E-01
         -2   -1    0    0    0  501 -0.00000000000E+00  0.00000000000E+00  0.12702327707E+04  0.12702327707E+04  0.00000000000E+00 0.  1.
          2   -1    0    0  501    0  0.00000000000E+00 -0.00000000000E+00 -0.11505543446E+04  0.11505543446E+04  0.00000000000E+00 0. -1.
         23    2    1    2    0    0 -0.50626811915E+03  0.96129120797E+03  0.58681615114E+03  0.12381604417E+04  0.91103727884E+02 0.  0.
         11    1    3    3    0    0 -0.16871223888E+03  0.39843300356E+03  0.26254183797E+03  0.50610364013E+03  0.00000000000E+00 0. -1.
        -11    1    3    3    0    0 -0.33755588027E+03  0.56285820441E+03  0.32427431317E+03  0.73205680160E+03  0.00000000000E+00 0.  1.
         22    1    1    2    0    0  0.50626811915E+03 -0.96129120797E+03 -0.46713772498E+03  0.11826266736E+04  0.00000000000E+00 0. -1.
<mgrwt>
<rscale>  0 0.24178270E+04</rscale>
<asrwt>0</asrwt>
<pdfrwt beam="1">  1        2 0.17700836E+00 0.24178270E+04</pdfrwt>
<pdfrwt beam="2">  1       -2 0.19542043E+00 0.24178270E+04</pdfrwt>
<totfact> 0.25973500E+00</totfact>
</mgrwt>
</event>
<event>
 6    1  0.2238133E-007  0.1722227E+04  0.7818608E-02  0.8748788E-01
          2   -1    0    0  501    0  0.00000000000E+00  0.00000000000E+00  0.67800500004E+03  0.67800500004E+03  0.00000000000E+00 0. -1.
         -2   -1    0    0    0  501 -0.00000000000E+00 -0.00000000000E+00 -0.10936739201E+04  0.10936739201E+04  0.00000000000E+00 0.  1.
         23    2    1    2    0    0  0.74089845911E+02  0.28120835710E+03 -0.10395495659E+04  0.10833515957E+04  0.91760200446E+02 0.  0.
         11    1    3    3    0    0  0.88546661635E+02  0.27374815519E+03 -0.96146226423E+03  0.10035876889E+04  0.00000000000E+00 0. -1.
        -11    1    3    3    0    0 -0.14456815724E+02  0.74602019139E+01 -0.78087301718E+02  0.79763906769E+02  0.00000000000E+00 0.  1.
         22    1    1    2    0    0 -0.74089845911E+02 -0.28120835710E+03  0.62388064587E+03  0.68832732450E+03  0.00000000000E+00 0. -1.
<mgrwt>
<rscale>  0 0.17222269E+04</rscale>
<asrwt>0</asrwt>
<pdfrwt beam="1">  1        2 0.10430846E+00 0.17222269E+04</pdfrwt>
<pdfrwt beam="2">  1       -2 0.16825753E+00 0.17222269E+04</pdfrwt>
<totfact> 0.88808000E+00</totfact>
</mgrwt>
</event>
<event>
 6    1  0.2238133E-007  0.1409793E+04  0.7818608E-02  0.8946761E-01
         -2   -1    0    0    0  501 -0.00000000000E+00  0.00000000000E+00  0.92113407200E+03  0.92113407200E+03  0.00000000000E+00 0.  1.
          2   -1    0    0  501    0  0.00000000000E+00 -0.00000000000E+00 -0.53942065662E+03  0.53942065662E+03  0.00000000000E+00 0. -1.
         23    2    1    2    0    0 -0.28933281767E+03 -0.57212201879E+03  0.48775942155E+03  0.81072179686E+03  0.91233189329E+02 0.  0.
         13    1    3    3    0    0 -0.18898207080E+03 -0.31107664402E+03  0.23123257654E+03  0.43122083204E+03  0.00000000000E+00 0. -1.
        -13    1    3    3    0    0 -0.10035074688E+03 -0.26104537477E+03  0.25652684502E+03  0.37950096482E+03  0.00000000000E+00 0.  1.
         22    1    1    2    0    0  0.28933281767E+03  0.57212201879E+03 -0.10604600618E+03  0.64983293175E+03  0.00000000000E+00 0. -1.
<mgrwt>
<rscale>  0 0.14097925E+04</rscale>
<asrwt>0</asrwt>
<pdfrwt beam="1">  1        2 0.82987794E-01 0.14097925E+04</pdfrwt>
<pdfrwt beam="2">  1       -2 0.14171293E+00 0.14097925E+04</pdfrwt>
<totfact> 0.19051411E+01</totfact>
</mgrwt>
</event>
<event>
 6    1  0.2238133E-007  0.2228746E+04  0.7818608E-02  0.8506558E-01
          2   -1    0    0  501    0  0.00000000000E+00  0.00000000000E+00  0.22800916714E+04  0.22800916714E+04  0.00000000000E+00 0. -1.
         -2   -1    0    0    0  501 -0.00000000000E+00 -0.00000000000E+00 -0.54463934059E+03  0.54463934059E+03  0.00000000000E+00 0.  1.
         23    2    1    2    0    0  0.58978129020E+03 -0.37365939121E+03 -0.22870082186E+03  0.74017808197E+03  0.89978976428E+02 0.  0.
         13    1    3    3    0    0  0.16387375059E+03 -0.58038124334E+02 -0.55324210026E+02  0.18243847791E+03  0.00000000000E+00 0. -1.
        -13    1    3    3    0    0  0.42590753961E+03 -0.31562126688E+03 -0.17337661184E+03  0.55773960406E+03  0.00000000000E+00 0.  1.
         22    1    1    2    0    0 -0.58978129020E+03  0.37365939121E+03  0.19641531527E+04  0.20845529301E+04  0.00000000000E+00 0. -1.
<mgrwt>
<rscale>  0 0.22287464E+04</rscale>
<asrwt>0</asrwt>
<pdfrwt beam="1">  1        2 0.35078333E+00 0.22287464E+04</pdfrwt>
<pdfrwt beam="2">  1       -2 0.83790669E-01 0.22287464E+04</pdfrwt>
<totfact> 0.52813944E+00</totfact>
</mgrwt>
</event>
<event>
 6    1  0.2238133E-007  0.2851885E+04  0.7818608E-02  0.8287339E-01
          2   -1    0    0  501    0  0.00000000000E+00  0.00000000000E+00  0.26497643618E+04  0.26497643618E+04  0.00000000000E+00 0. -1.
         -2   -1    0    0    0  501 -0.00000000000E+00 -0.00000000000E+00 -0.76735595620E+03  0.76735595620E+03  0.00000000000E+00 0.  1.
         23    2    1    2    0    0  0.22030351327E+03  0.13993286030E+04  0.11179485992E+04  0.18074455146E+04  0.10196097655E+03 0.  0.
         11    1    3    3    0    0  0.12214255432E+03  0.10384833289E+04  0.79952479855E+03  0.13162850494E+04  0.00000000000E+00 0. -1.
        -11    1    3    3    0    0  0.98160958948E+02  0.36084527413E+03  0.31842380068E+03  0.49116046518E+03  0.00000000000E+00 0.  1.
         22    1    1    2    0    0 -0.22030351327E+03 -0.13993286030E+04  0.76445980640E+03  0.16096748034E+04  0.00000000000E+00 0. -1.
<mgrwt>
<rscale>  0 0.28518853E+04</rscale>
<asrwt>0</asrwt>
<pdfrwt beam="1">  1        2 0.40765605E+00 0.28518853E+04</pdfrwt>
<pdfrwt beam="2">  1       -2 0.11805476E+00 0.28518853E+04</pdfrwt>
<totfact> 0.13623864E+00</totfact>
</mgrwt>
</event>
<event>
 6    1  0.2238133E-007  0.2387247E+04  0.7818608E-02  0.8444294E-01
          2   -1    0    0  501    0  0.00000000000E+00  0.00000000000E+00  0.13162279479E+04  0.13162279479E+04  0.00000000000E+00 0. -1.
         -2   -1    0    0    0  501 -0.00000000000E+00 -0.00000000000E+00 -0.10824395731E+04  0.10824395731E+04  0.00000000000E+00 0.  1.
         23    2    1    2    0    0 -0.91628989469E+03  0.75653685320E+03  0.20744121324E+03  0.12101266701E+04  0.97157188879E+02 0.  0.
         11    1    3    3    0    0 -0.66824854555E+03  0.49909352069E+03  0.12664833902E+03  0.84361736753E+03  0.00000000000E+00 0.  1.
        -11    1    3    3    0    0 -0.24804134915E+03  0.25744333251E+03  0.80792874227E+02  0.36650930256E+03  0.00000000000E+00 0. -1.
         22    1    1    2    0    0  0.91628989469E+03 -0.75653685320E+03  0.26347161475E+02  0.11885408509E+04  0.00000000000E+00 0.  1.
<mgrwt>
<rscale>  0 0.23872471E+04</rscale>
<asrwt>0</asrwt>
<pdfrwt beam="1">  1        2 0.20249661E+00 0.23872471E+04</pdfrwt>
<pdfrwt beam="2">  1       -2 0.16652916E+00 0.23872471E+04</pdfrwt>
<totfact> 0.32865712E+00</totfact>
</mgrwt>
</event>
<event>
 6    1  0.2238133E-007  0.1251726E+04  0.7818608E-02  0.9068748E-01
          2   -1    0    0  501    0  0.00000000000E+00  0.00000000000E+00  0.14883659938E+04  0.14883659938E+04  0.00000000000E+00 0. -1.
         -2   -1    0    0    0  501 -0.00000000000E+00 -0.00000000000E+00 -0.26317740319E+03  0.26317740319E+03  0.00000000000E+00 0.  1.
         23    2    1    2    0    0  0.42550204407E+03 -0.16223490478E+03  0.12098342016E+04  0.12959032856E+04  0.91073467349E+02 0.  0.
         11    1    3    3    0    0  0.12804715903E+03 -0.83106912059E+02  0.32509030837E+03  0.35914696485E+03  0.00000000000E+00 0. -1.
        -11    1    3    3    0    0  0.29745488504E+03 -0.79127992716E+02  0.88474389325E+03  0.93675632077E+03  0.00000000000E+00 0.  1.
         22    1    1    2    0    0 -0.42550204407E+03  0.16223490478E+03  0.15354389011E+02  0.45564011138E+03  0.00000000000E+00 0.  1.
<mgrwt>
<rscale>  0 0.12517257E+04</rscale>
<asrwt>0</asrwt>
<pdfrwt beam="1">  1        2 0.22897938E+00 0.12517257E+04</pdfrwt>
<pdfrwt beam="2">  1       -2 0.40488832E-01 0.12517257E+04</pdfrwt>
<totfact> 0.73154079E+01</totfact>
</mgrwt>
</event>
<event>
 6    1  0.2238133E-007  0.2550615E+04  0.7818608E-02  0.8385172E-01
         -2   -1    0    0    0  501 -0.00000000000E+00  0.00000000000E+00  0.65786594458E+03  0.65786594458E+03  0.00000000000E+00 0.  1.
          2   -1    0    0  501    0  0.00000000000E+00 -0.00000000000E+00 -0.24722495548E+04  0.24722495548E+04  0.00000000000E+00 0. -1.
         23    2    1    2    0    0  0.44106440046E+03 -0.25228093266E+03 -0.23416436203E+04  0.23978678687E+04  0.91060404128E+02 0.  0.
         13    1    3    3    0    0  0.14106929575E+03 -0.86514189814E+02 -0.57775538708E+03  0.60098796872E+03  0.00000000000E+00 0. -1.
        -13    1    3    3    0    0  0.29999510470E+03 -0.16576674284E+03 -0.17638882332E+04  0.17968799000E+04  0.00000000000E+00 0.  1.
         22    1    1    2    0    0 -0.44106440046E+03  0.25228093266E+03  0.52726001008E+03  0.73224763063E+03  0.00000000000E+00 0.  1.
<mgrwt>
<rscale>  0 0.25506147E+04</rscale>
<asrwt>0</asrwt>
<pdfrwt beam="1">  1        2 0.38034608E+00 0.25506147E+04</pdfrwt>
<pdfrwt beam="2">  1       -2 0.10121015E+00 0.25506147E+04</pdfrwt>
<totfact> 0.25748622E+00</totfact>
</mgrwt>
</event>
<event>
 6    1  0.2238133E-007  0.5500682E+04  0.7818608E-02  0.7755595E-01
         -2   -1    0    0    0  501 -0.00000000000E+00  0.00000000000E+00  0.16836849765E+04  0.16836849765E+04  0.00000000000E+00 0.  1.
          2   -1    0    0  501    0  0.00000000000E+00 -0.00000000000E+00 -0.44927505030E+04  0.44927505030E+04  0.00000000000E+00 0. -1.
         23    2    1    2    0    0  0.87861889763E+03 -0.38556231560E+03 -0.42982210126E+04  0.44049351188E+04  0.90111384035E+02 0.  0.
         11    1    3    3    0    0  0.66818930623E+03 -0.25162141532E+03 -0.31382997985E+04  0.32184959082E+04  0.00000000000E+00 0.  1.
        -11    1    3    3    0    0  0.21042959141E+03 -0.13394090028E+03 -0.11599212140E+04  0.11864392106E+04  0.00000000000E+00 0. -1.
         22    1    1    2    0    0 -0.87861889763E+03  0.38556231560E+03  0.14891554861E+04  0.17715003608E+04  0.00000000000E+00 0.  1.
<mgrwt>
<rscale>  0 0.55006823E+04</rscale>
<asrwt>0</asrwt>
<pdfrwt beam="1">  1        2 0.69119239E+00 0.55006823E+04</pdfrwt>
<pdfrwt beam="2">  1       -2 0.25902846E+00 0.55006823E+04</pdfrwt>
<totfact> 0.48987485E-03</totfact>
</mgrwt>
</event>
<event>
 6    1  0.2238133E-007  0.1857124E+04  0.7818608E-02  0.8676498E-01
         -1   -1    0    0    0  501 -0.00000000000E+00  0.00000000000E+00  0.43443610364E+03  0.43443610364E+03  0.00000000000E+00 0.  1.
          1   -1    0    0  501    0  0.00000000000E+00 -0.00000000000E+00 -0.19847048589E+04  0.19847048589E+04  0.00000000000E+00 0. -1.
         23    2    1    2    0    0  0.23897262125E+03 -0.49698163871E+03 -0.17465327280E+04  0.18338049822E+04  0.91462997584E+02 0.  0.
         11    1    3    3    0    0  0.23294144198E+03 -0.49910299459E+03 -0.17042759533E+04  0.17910672907E+04  0.00000000000E+00 0.  1.
        -11    1    3    3    0    0  0.60311792696E+01  0.21213558767E+01 -0.42256774629E+02  0.42737691517E+02  0.00000000000E+00 0. -1.
         22    1    1    2    0    0 -0.23897262125E+03  0.49698163871E+03  0.19626397270E+03  0.58533598036E+03  0.00000000000E+00 0.  1.
<mgrwt>
<rscale>  0 0.18571241E+04</rscale>
<asrwt>0</asrwt>
<pdfrwt beam="1">  1        1 0.30533921E+00 0.18571241E+04</pdfrwt>
<pdfrwt beam="2">  1       -1 0.66836324E-01 0.18571241E+04</pdfrwt>
<totfact> 0.65001195E+00</totfact>
</mgrwt>
</event>
<event>
 6    1  0.2238133E-007  0.2436868E+04  0.7818608E-02  0.8425828E-01
          2   -1    0    0  501    0  0.00000000000E+00  0.00000000000E+00  0.16043380073E+04  0.16043380073E+04  0.00000000000E+00 0. -1.
         -2   -1    0    0    0  501 -0.00000000000E+00 -0.00000000000E+00 -0.92535413897E+03  0.92535413897E+03  0.00000000000E+00 0.  1.
         23    2    1    2    0    0  0.39547159490E+03 -0.54947025505E+03 -0.70972197836E+03  0.98475872630E+03  0.87915407621E+02 0.  0.
         13    1    3    3    0    0  0.70424755965E+02 -0.49303182962E+02 -0.81679070307E+02  0.11858296939E+03  0.00000000000E+00 0.  1.
        -13    1    3    3    0    0  0.32504683893E+03 -0.50016707209E+03 -0.62804290805E+03  0.86617575691E+03  0.00000000000E+00 0. -1.
         22    1    1    2    0    0 -0.39547159490E+03  0.54947025505E+03  0.13887058467E+04  0.15449334200E+04  0.00000000000E+00 0. -1.
<mgrwt>
<rscale>  0 0.24368675E+04</rscale>
<asrwt>0</asrwt>
<pdfrwt beam="1">  1        2 0.24682123E+00 0.24368675E+04</pdfrwt>
<pdfrwt beam="2">  1       -2 0.14236218E+00 0.24368675E+04</pdfrwt>
<totfact> 0.34189524E+00</totfact>
</mgrwt>
</event>
<event>
 6    1  0.2238133E-007  0.1752013E+04  0.7818608E-02  0.8732243E-01
         -2   -1    0    0    0  501 -0.00000000000E+00  0.00000000000E+00  0.11371703908E+04  0.11371703908E+04  0.00000000000E+00 0.  1.
          2   -1    0    0  501    0  0.00000000000E+00 -0.00000000000E+00 -0.67482218478E+03  0.67482218478E+03  0.00000000000E+00 0. -1.
         23    2    1    2    0    0 -0.76235019117E+03  0.42318070742E+03  0.30225192190E+03  0.92548789688E+03  0.70084933280E+02 0.  0.
         13    1    3    3    0    0 -0.24499801541E+03  0.15480365250E+03  0.70335299811E+02  0.29822014147E+03  0.00000000000E+00 0. -1.
        -13    1    3    3    0    0 -0.51735217576E+03  0.26837705492E+03  0.23191662209E+03  0.62726775541E+03  0.00000000000E+00 0.  1.
         22    1    1    2    0    0  0.76235019117E+03 -0.42318070742E+03  0.16009628408E+03  0.88650467866E+03  0.00000000000E+00 0. -1.
<mgrwt>
<rscale>  0 0.17520135E+04</rscale>
<asrwt>0</asrwt>
<pdfrwt beam="1">  1        2 0.10381880E+00 0.17520135E+04</pdfrwt>
<pdfrwt beam="2">  1       -2 0.17494929E+00 0.17520135E+04</pdfrwt>
<totfact> 0.79902021E+00</totfact>
</mgrwt>
</event>
<event>
 6    1  0.2238133E-007  0.1016092E+04  0.7818608E-02  0.9291069E-01
         -2   -1    0    0    0  501 -0.00000000000E+00  0.00000000000E+00  0.24420401222E+03  0.24420401222E+03  0.00000000000E+00 0.  1.
          2   -1    0    0  501    0  0.00000000000E+00 -0.00000000000E+00 -0.10569479534E+04  0.10569479534E+04  0.00000000000E+00 0. -1.
         23    2    1    2    0    0 -0.14343013980E+03  0.10114743930E+03  0.19506356078E+03  0.27817641826E+03  0.92354303924E+02 0.  0.
         11    1    3    3    0    0 -0.13848854011E+03  0.53225820865E+02  0.13029816501E+03  0.19745803492E+03  0.00000000000E+00 0.  1.
        -11    1    3    3    0    0 -0.49415996939E+01  0.47921618438E+02  0.64765395768E+02  0.80718383347E+02  0.00000000000E+00 0. -1.
         22    1    1    2    0    0  0.14343013980E+03 -0.10114743930E+03 -0.10078075019E+04  0.10229755473E+04  0.00000000000E+00 0. -1.
<mgrwt>
<rscale>  0 0.10160924E+04</rscale>
<asrwt>0</asrwt>
<pdfrwt beam="1">  1        2 0.16260738E+00 0.10160924E+04</pdfrwt>
<pdfrwt beam="2">  1       -2 0.37569848E-01 0.10160924E+04</pdfrwt>
<totfact> 0.15432774E+02</totfact>
</mgrwt>
</event>
<event>
 6    1  0.2238133E-007  0.8634758E+03  0.7818608E-02  0.9472427E-01
          2   -1    0    0  501    0  0.00000000000E+00  0.00000000000E+00  0.22895992689E+03  0.22895992689E+03  0.00000000000E+00 0. -1.
         -2   -1    0    0    0  501 -0.00000000000E+00 -0.00000000000E+00 -0.81410585193E+03  0.81410585193E+03  0.00000000000E+00 0.  1.
         23    2    1    2    0    0 -0.23876911881E+03  0.14846230421E+03 -0.68452384756E+03  0.74485826827E+03  0.84789115250E+02 0.  0.
         13    1    3    3    0    0 -0.22351932249E+03  0.15579221970E+03 -0.60446434605E+03  0.66303035292E+03  0.00000000000E+00 0. -1.
        -13    1    3    3    0    0 -0.15249796313E+02 -0.73299154888E+01 -0.80059501504E+02  0.81827915345E+02  0.00000000000E+00 0.  1.
         22    1    1    2    0    0  0.23876911881E+03 -0.14846230421E+03  0.99377922517E+02  0.29820751056E+03  0.00000000000E+00 0.  1.
<mgrwt>
<rscale>  0 0.86347580E+03</rscale>
<asrwt>0</asrwt>
<pdfrwt beam="1">  1        2 0.35224604E-01 0.86347580E+03</pdfrwt>
<pdfrwt beam="2">  1       -2 0.12524705E+00 0.86347580E+03</pdfrwt>
<totfact> 0.71174713E+01</totfact>
</mgrwt>
</event>
<event>
 6    1  0.2238133E-007  0.4468823E+04  0.7818608E-02  0.7916118E-01
         -2   -1    0    0    0  501 -0.00000000000E+00  0.00000000000E+00  0.15077977888E+04  0.15077977888E+04  0.00000000000E+00 0.  1.
          2   -1    0    0  501    0  0.00000000000E+00 -0.00000000000E+00 -0.33111825982E+04  0.33111825982E+04  0.00000000000E+00 0. -1.
         23    2    1    2    0    0 -0.15811096444E+04 -0.11772948789E+04 -0.20343188796E+04  0.28342231009E+04  0.91849563057E+02 0.  0.
         13    1    3    3    0    0 -0.70169122112E+03 -0.55605503720E+03 -0.97680188324E+03  0.13250319594E+04  0.00000000000E+00 0. -1.
        -13    1    3    3    0    0 -0.87941842332E+03 -0.62123984170E+03 -0.10575169963E+04  0.15091911415E+04  0.00000000000E+00 0.  1.
         22    1    1    2    0    0  0.15811096444E+04  0.11772948789E+04  0.23093407016E+03  0.19847572860E+04  0.00000000000E+00 0.  1.
<mgrwt>
<rscale>  0 0.44688226E+04</rscale>
<asrwt>0</asrwt>
<pdfrwt beam="1">  1        2 0.50941270E+00 0.44688226E+04</pdfrwt>
<pdfrwt beam="2">  1       -2 0.23196889E+00 0.44688226E+04</pdfrwt>
<totfact> 0.69028717E-02</totfact>
</mgrwt>
</event>
<event>
 6    1  0.2726477E-007  0.6199161E+04  0.7818608E-02  0.7666187E-01
          2   -1    0    0  501    0  0.00000000000E+00  0.00000000000E+00  0.24452219955E+04  0.24452219955E+04  0.00000000000E+00 0. -1.
         -2   -1    0    0    0  501 -0.00000000000E+00 -0.00000000000E+00 -0.39290498453E+04  0.39290498453E+04  0.00000000000E+00 0.  1.
         23    2    1    2    0    0 -0.88656419071E+03 -0.18958392947E+04  0.16079331676E+04  0.26407495249E+04  0.88917300883E+02 0.  0.
         11    1    3    3    0    0 -0.56182690271E+03 -0.11041891345E+04  0.93259594150E+03  0.15506831732E+04  0.00000000000E+00 0.  1.
        -11    1    3    3    0    0 -0.32473728800E+03 -0.79165016013E+03  0.67533722605E+03  0.10900663517E+04  0.00000000000E+00 0. -1.
         22    1    1    2    0    0  0.88656419071E+03  0.18958392947E+04 -0.30917610173E+04  0.37335223160E+04  0.00000000000E+00 0.  1.
<mgrwt>
<rscale>  0 0.61991609E+04</rscale>
<asrwt>0</asrwt>
<pdfrwt beam="1">  1        2 0.37618800E+00 0.61991609E+04</pdfrwt>
<pdfrwt beam="2">  1       -2 0.60446920E+00 0.61991609E+04</pdfrwt>
<totfact> 0.12385233E-03</totfact>
</mgrwt>
</event>
<event>
 6    1  0.2238133E-007  0.1911130E+04  0.7818608E-02  0.8649336E-01
          2   -1    0    0  501    0  0.00000000000E+00  0.00000000000E+00  0.13144628407E+04  0.13144628407E+04  0.00000000000E+00 0. -1.
         -2   -1    0    0    0  501 -0.00000000000E+00 -0.00000000000E+00 -0.69465976373E+03  0.69465976373E+03  0.00000000000E+00 0.  1.
         23    2    1    2    0    0 -0.36344214062E+03  0.49935900642E+03 -0.45301069421E+03  0.77122963873E+03  0.90149097118E+02 0.  0.
         11    1    3    3    0    0 -0.22662669458E+03  0.37067934242E+03 -0.34314873108E+03  0.55363696159E+03  0.00000000000E+00 0. -1.
        -11    1    3    3    0    0 -0.13681544604E+03  0.12867966400E+03 -0.10986196313E+03  0.21759267714E+03  0.00000000000E+00 0.  1.
         22    1    1    2    0    0  0.36344214062E+03 -0.49935900642E+03  0.10728137711E+04  0.12378929657E+04  0.00000000000E+00 0.  1.
<mgrwt>
<rscale>  0 0.19111300E+04</rscale>
<asrwt>0</asrwt>
<pdfrwt beam="1">  1        2 0.20222505E+00 0.19111300E+04</pdfrwt>
<pdfrwt beam="2">  1       -2 0.10687073E+00 0.19111300E+04</pdfrwt>
<totfact> 0.10690062E+01</totfact>
</mgrwt>
</event>
<event>
 6    1  0.2238133E-007  0.2516782E+04  0.7818608E-02  0.8397031E-01
          2   -1    0    0  501    0  0.00000000000E+00  0.00000000000E+00  0.11367908476E+04  0.11367908476E+04  0.00000000000E+00 0. -1.
         -2   -1    0    0    0  501 -0.00000000000E+00 -0.00000000000E+00 -0.13929987845E+04  0.13929987845E+04  0.00000000000E+00 0.  1.
         23    2    1    2    0    0 -0.39363711739E+03 -0.20892784799E+03 -0.13094278643E+04  0.13861667742E+04  0.90862358903E+02 0.  0.
         11    1    3    3    0    0 -0.27857814186E+03 -0.19034513367E+03 -0.93460711920E+03  0.99364355696E+03  0.00000000000E+00 0. -1.
        -11    1    3    3    0    0 -0.11505897553E+03 -0.18582714325E+02 -0.37482074509E+03  0.39252321724E+03  0.00000000000E+00 0.  1.
         22    1    1    2    0    0  0.39363711739E+03  0.20892784799E+03  0.10532199274E+04  0.11436228580E+04  0.00000000000E+00 0. -1.
<mgrwt>
<rscale>  0 0.25167823E+04</rscale>
<asrwt>0</asrwt>
<pdfrwt beam="1">  1        2 0.17489090E+00 0.25167823E+04</pdfrwt>
<pdfrwt beam="2">  1       -2 0.21430750E+00 0.25167823E+04</pdfrwt>
<totfact> 0.19789316E+00</totfact>
</mgrwt>
</event>
<event>
 6    1  0.2238133E-007  0.2552319E+04  0.7818608E-02  0.8384580E-01
          1   -1    0    0  501    0  0.00000000000E+00  0.00000000000E+00  0.57807124348E+03  0.57807124348E+03  0.00000000000E+00 0. -1.
         -1   -1    0    0    0  501 -0.00000000000E+00 -0.00000000000E+00 -0.28172695422E+04  0.28172695422E+04  0.00000000000E+00 0.  1.
         23    2    1    2    0    0  0.11033006813E+04  0.63646264432E+03 -0.10701271847E+04  0.16664439234E+04  0.97499063349E+02 0.  0.
         11    1    3    3    0    0  0.61578057062E+03  0.39114878744E+03 -0.56380590203E+03  0.92198708247E+03  0.00000000000E+00 0.  1.
        -11    1    3    3    0    0  0.48752011065E+03  0.24531385688E+03 -0.50632128268E+03  0.74445684089E+03  0.00000000000E+00 0. -1.
         22    1    1    2    0    0 -0.11033006813E+04 -0.63646264432E+03 -0.11690711140E+04  0.17288968623E+04  0.00000000000E+00 0. -1.
<mgrwt>
<rscale>  0 0.25523186E+04</rscale>
<asrwt>0</asrwt>
<pdfrwt beam="1">  1        1 0.88934037E-01 0.25523186E+04</pdfrwt>
<pdfrwt beam="2">  1       -1 0.43342609E+00 0.25523186E+04</pdfrwt>
<totfact> 0.13452767E-01</totfact>
</mgrwt>
</event>
<event>
 6    1  0.3644930E-007  0.3564586E+04  0.7818608E-02  0.8098652E-01
         -1   -1    0    0    0  501 -0.00000000000E+00  0.00000000000E+00  0.13922846555E+04  0.13922846555E+04  0.00000000000E+00 0.  1.
          1   -1    0    0  501    0  0.00000000000E+00 -0.00000000000E+00 -0.22815512776E+04  0.22815512776E+04  0.00000000000E+00 0. -1.
         23    2    1    2    0    0  0.25703984324E+03  0.36346868724E+03  0.13325143765E+04  0.14078946776E+04  0.91618186923E+02 0.  0.
         11    1    3    3    0    0  0.12843599101E+03  0.13224606130E+03  0.44191863084E+03  0.47882867583E+03  0.00000000000E+00 0.  1.
        -11    1    3    3    0    0  0.12860385222E+03  0.23122262594E+03  0.89059574563E+03  0.92906600179E+03  0.00000000000E+00 0. -1.
         22    1    1    2    0    0 -0.25703984324E+03 -0.36346868724E+03 -0.22217809986E+04  0.22659412555E+04  0.00000000000E+00 0. -1.
<mgrwt>
<rscale>  0 0.35645863E+04</rscale>
<asrwt>0</asrwt>
<pdfrwt beam="1">  1        1 0.35100789E+00 0.35645863E+04</pdfrwt>
<pdfrwt beam="2">  1       -1 0.21419764E+00 0.35645863E+04</pdfrwt>
<totfact> 0.18721643E-01</totfact>
</mgrwt>
</event>
<event>
 6    1  0.2238133E-007  0.2228682E+04  0.7818608E-02  0.8506584E-01
          2   -1    0    0  501    0  0.00000000000E+00  0.00000000000E+00  0.37110012231E+04  0.37110012231E+04  0.00000000000E+00 0. -1.
         -2   -1    0    0    0  501 -0.00000000000E+00 -0.00000000000E+00 -0.33461475663E+03  0.33461475663E+03  0.00000000000E+00 0.  1.
         23    2    1    2    0    0 -0.52799267856E+03 -0.59587285154E+03  0.28094349446E+03  0.84942951508E+03  0.93597704042E+02 0.  0.
         11    1    3    3    0    0 -0.19242681306E+03 -0.15700574754E+03  0.69523590641E+02  0.25790000543E+03  0.00000000000E+00 0.  1.
        -11    1    3    3    0    0 -0.33556586550E+03 -0.43886710400E+03  0.21141990382E+03  0.59152950965E+03  0.00000000000E+00 0. -1.
         22    1    1    2    0    0  0.52799267856E+03  0.59587285154E+03  0.30954429720E+04  0.31961864647E+04  0.00000000000E+00 0. -1.
<mgrwt>
<rscale>  0 0.22286819E+04</rscale>
<asrwt>0</asrwt>
<pdfrwt beam="1">  1        2 0.57092324E+00 0.22286819E+04</pdfrwt>
<pdfrwt beam="2">  1       -2 0.51479196E-01 0.22286819E+04</pdfrwt>
<totfact> 0.18706964E+00</totfact>
</mgrwt>
</event>
<event>
 6    1  0.2238133E-007  0.2471613E+04  0.7818608E-02  0.8413169E-01
         -2   -1    0    0    0  501 -0.00000000000E+00  0.00000000000E+00  0.50971039399E+03  0.50971039399E+03  0.00000000000E+00 0.  1.
          2   -1    0    0  501    0  0.00000000000E+00 -0.00000000000E+00 -0.29962465465E+04  0.29962465465E+04  0.00000000000E+00 0. -1.
         23    2    1    2    0    0  0.38200793877E+03 -0.11680055939E+04 -0.14066379824E+04  0.18700024208E+04  0.90063908286E+02 0.  0.
         11    1    3    3    0    0  0.15213459676E+03 -0.44569443027E+03 -0.60571987899E+03  0.76725812639E+03  0.00000000000E+00 0.  1.
        -11    1    3    3    0    0  0.22987334201E+03 -0.72231116364E+03 -0.80091810341E+03  0.11027442944E+04  0.00000000000E+00 0. -1.
         22    1    1    2    0    0 -0.38200793877E+03  0.11680055939E+04 -0.10798981702E+04  0.16359545197E+04  0.00000000000E+00 0.  1.
<mgrwt>
<rscale>  0 0.24716132E+04</rscale>
<asrwt>0</asrwt>
<pdfrwt beam="1">  1        2 0.46096100E+00 0.24716132E+04</pdfrwt>
<pdfrwt beam="2">  1       -2 0.78416985E-01 0.24716132E+04</pdfrwt>
<totfact> 0.22631473E+00</totfact>
</mgrwt>
</event>
<event>
 6    1  0.2238133E-007  0.2420231E+04  0.7818608E-02  0.8431968E-01
          2   -1    0    0  501    0  0.00000000000E+00  0.00000000000E+00  0.88467650306E+03  0.88467650306E+03  0.00000000000E+00 0. -1.
         -2   -1    0    0    0  501 -0.00000000000E+00 -0.00000000000E+00 -0.16552715308E+04  0.16552715308E+04  0.00000000000E+00 0.  1.
         23    2    1    2    0    0  0.10844833554E+04  0.41902526364E+03 -0.73163039490E+03  0.13766748233E+04  0.90907726729E+02 0.  0.
         13    1    3    3    0    0  0.93120511477E+03  0.33456898143E+03 -0.59451648846E+03  0.11543522964E+04  0.00000000000E+00 0. -1.
        -13    1    3    3    0    0  0.15327824061E+03  0.84456282212E+02 -0.13711390643E+03  0.22232252694E+03  0.00000000000E+00 0.  1.
         22    1    1    2    0    0 -0.10844833554E+04 -0.41902526364E+03 -0.38964632807E+02  0.11632732105E+04  0.00000000000E+00 0. -1.
<mgrwt>
<rscale>  0 0.24202313E+04</rscale>
<asrwt>0</asrwt>
<pdfrwt beam="1">  1        2 0.13610408E+00 0.24202313E+04</pdfrwt>
<pdfrwt beam="2">  1       -2 0.25465716E+00 0.24202313E+04</pdfrwt>
<totfact> 0.16219664E+00</totfact>
</mgrwt>
</event>
<event>
 6    1  0.2238133E-007  0.3383701E+04  0.7818608E-02  0.8141918E-01
          2   -1    0    0  501    0  0.00000000000E+00  0.00000000000E+00  0.42176974512E+04  0.42176974512E+04  0.00000000000E+00 0. -1.
         -2   -1    0    0    0  501 -0.00000000000E+00 -0.00000000000E+00 -0.67865406965E+03  0.67865406965E+03  0.00000000000E+00 0.  1.
         23    2    1    2    0    0 -0.69332947955E+03  0.70560274590E+03  0.37546891715E+04  0.38838871467E+04  0.91145988003E+02 0.  0.
         11    1    3    3    0    0 -0.40846469898E+03  0.43207453444E+03  0.20845067718E+04  0.21676485636E+04  0.00000000000E+00 0.  1.
        -11    1    3    3    0    0 -0.28486478057E+03  0.27352821145E+03  0.16701823997E+04  0.17162385830E+04  0.00000000000E+00 0. -1.
         22    1    1    2    0    0  0.69332947955E+03 -0.70560274590E+03 -0.21564578998E+03  0.10124643742E+04  0.00000000000E+00 0.  1.
<mgrwt>
<rscale>  0 0.33837007E+04</rscale>
<asrwt>0</asrwt>
<pdfrwt beam="1">  1        2 0.64887652E+00 0.33837007E+04</pdfrwt>
<pdfrwt beam="2">  1       -2 0.10440832E+00 0.33837007E+04</pdfrwt>
<totfact> 0.13830666E-01</totfact>
</mgrwt>
</event>
<event>
 6    1  0.2238133E-007  0.2580852E+04  0.7818608E-02  0.8374735E-01
          2   -1    0    0  501    0  0.00000000000E+00  0.00000000000E+00  0.90712084444E+03  0.90712084444E+03  0.00000000000E+00 0. -1.
         -2   -1    0    0    0  501 -0.00000000000E+00 -0.00000000000E+00 -0.18356965989E+04  0.18356965989E+04  0.00000000000E+00 0.  1.
         23    2    1    2    0    0 -0.85754594368E+03  0.92910899488E+03 -0.73071131360E+03  0.14630600808E+04  0.89315208528E+02 0.  0.
         11    1    3    3    0    0 -0.38872952903E+03  0.40463419352E+03 -0.27485895166E+03  0.62480950746E+03  0.00000000000E+00 0. -1.
        -11    1    3    3    0    0 -0.46881641465E+03  0.52447480135E+03 -0.45585236194E+03  0.83825057339E+03  0.00000000000E+00 0.  1.
         22    1    1    2    0    0  0.85754594368E+03 -0.92910899488E+03 -0.19786444084E+03  0.12797573625E+04  0.00000000000E+00 0. -1.
<mgrwt>
<rscale>  0 0.25808515E+04</rscale>
<asrwt>0</asrwt>
<pdfrwt beam="1">  1        2 0.13955706E+00 0.25808515E+04</pdfrwt>
<pdfrwt beam="2">  1       -2 0.28241486E+00 0.25808515E+04</pdfrwt>
<totfact> 0.10458526E+00</totfact>
</mgrwt>
</event>
<event>
 6    1  0.2238133E-007  0.1116175E+04  0.7818608E-02  0.9189569E-01
          2   -1    0    0  501    0  0.00000000000E+00  0.00000000000E+00  0.50006099562E+03  0.50006099562E+03  0.00000000000E+00 0. -1.
         -2   -1    0    0    0  501 -0.00000000000E+00 -0.00000000000E+00 -0.62284724135E+03  0.62284724135E+03  0.00000000000E+00 0.  1.
         23    2    1    2    0    0  0.14870048999E+03 -0.51898778854E+03 -0.19031596807E+03  0.57883064712E+03  0.85817189249E+02 0.  0.
         13    1    3    3    0    0  0.70836072312E+02 -0.38548674363E+03 -0.13019052309E+03  0.41299800357E+03  0.00000000000E+00 0.  1.
        -13    1    3    3    0    0  0.77864417676E+02 -0.13350104491E+03 -0.60125444982E+02  0.16583264355E+03  0.00000000000E+00 0. -1.
         22    1    1    2    0    0 -0.14870048999E+03  0.51898778854E+03  0.67529722338E+02  0.54407758985E+03  0.00000000000E+00 0. -1.
<mgrwt>
<rscale>  0 0.11161749E+04</rscale>
<asrwt>0</asrwt>
<pdfrwt beam="1">  1        2 0.76932461E-01 0.11161749E+04</pdfrwt>
<pdfrwt beam="2">  1       -2 0.95822652E-01 0.11161749E+04</pdfrwt>
<totfact> 0.55802452E+01</totfact>
</mgrwt>
</event>
<event>
 6    1  0.2238133E-007  0.2061105E+04  0.7818608E-02  0.8578573E-01
          2   -1    0    0  501    0  0.00000000000E+00  0.00000000000E+00  0.99870230755E+03  0.99870230755E+03  0.00000000000E+00 0. -1.
         -2   -1    0    0    0  501 -0.00000000000E+00 -0.00000000000E+00 -0.10634182620E+04  0.10634182620E+04  0.00000000000E+00 0.  1.
         23    2    1    2    0    0 -0.18285285299E+03 -0.83251464558E+03 -0.60838178860E+03  0.10511367219E+04  0.90797612322E+02 0.  0.
         11    1    3    3    0    0 -0.10907304918E+03 -0.31030318061E+03 -0.25684152328E+03  0.41731590197E+03  0.00000000000E+00 0.  1.
        -11    1    3    3    0    0 -0.73779803811E+02 -0.52221146497E+03 -0.35154026532E+03  0.63382081990E+03  0.00000000000E+00 0. -1.
         22    1    1    2    0    0  0.18285285299E+03  0.83251464558E+03  0.54366583418E+03  0.10109838477E+04  0.00000000000E+00 0. -1.
<mgrwt>
<rscale>  0 0.20611048E+04</rscale>
<asrwt>0</asrwt>
<pdfrwt beam="1">  1        2 0.15364651E+00 0.20611048E+04</pdfrwt>
<pdfrwt beam="2">  1       -2 0.16360281E+00 0.20611048E+04</pdfrwt>
<totfact> 0.55284862E+00</totfact>
</mgrwt>
</event>
<event>
 6    1  0.2238133E-007  0.4909224E+04  0.7818608E-02  0.7842665E-01
          2   -1    0    0  501    0  0.00000000000E+00  0.00000000000E+00  0.27971361371E+04  0.27971361371E+04  0.00000000000E+00 0. -1.
         -2   -1    0    0    0  501 -0.00000000000E+00 -0.00000000000E+00 -0.21540320640E+04  0.21540320640E+04  0.00000000000E+00 0.  1.
         23    2    1    2    0    0  0.81357295643E+03  0.22728024770E+04  0.76536597352E+03  0.25340459395E+04  0.89842613102E+02 0.  0.
         13    1    3    3    0    0  0.20926558307E+03  0.67257334671E+03  0.25280416834E+03  0.74836952002E+03  0.00000000000E+00 0.  1.
        -13    1    3    3    0    0  0.60430737336E+03  0.16002291303E+04  0.51256180518E+03  0.17856764195E+04  0.00000000000E+00 0. -1.
         22    1    1    2    0    0 -0.81357295643E+03 -0.22728024770E+04 -0.12226190041E+03  0.24171222616E+04  0.00000000000E+00 0. -1.
<mgrwt>
<rscale>  0 0.49092243E+04</rscale>
<asrwt>0</asrwt>
<pdfrwt beam="1">  1        2 0.43032864E+00 0.49092243E+04</pdfrwt>
<pdfrwt beam="2">  1       -2 0.33138955E+00 0.49092243E+04</pdfrwt>
<totfact> 0.34637956E-02</totfact>
</mgrwt>
</event>
<event>
 6    1  0.2238133E-007  0.1230428E+04  0.7818608E-02  0.9086632E-01
         -2   -1    0    0    0  501 -0.00000000000E+00  0.00000000000E+00  0.23211254749E+03  0.23211254749E+03  0.00000000000E+00 0.  1.
          2   -1    0    0  501    0  0.00000000000E+00 -0.00000000000E+00 -0.16306249628E+04  0.16306249628E+04  0.00000000000E+00 0. -1.
         23    2    1    2    0    0  0.33265213975E+03  0.18849919038E+03  0.19528807515E+02  0.39405432440E+03  0.93316908456E+02 0.  0.
         11    1    3    3    0    0  0.28376378444E+03  0.19072424780E+03  0.32446905470E+02  0.34343911503E+03  0.00000000000E+00 0.  1.
        -11    1    3    3    0    0  0.48888355306E+02 -0.22250574135E+01 -0.12918097955E+02  0.50615209373E+02  0.00000000000E+00 0. -1.
         22    1    1    2    0    0 -0.33265213975E+03 -0.18849919038E+03 -0.14180412228E+04  0.14686831858E+04  0.00000000000E+00 0. -1.
<mgrwt>
<rscale>  0 0.12304284E+04</rscale>
<asrwt>0</asrwt>
<pdfrwt beam="1">  1        2 0.25086538E+00 0.12304284E+04</pdfrwt>
<pdfrwt beam="2">  1       -2 0.35709622E-01 0.12304284E+04</pdfrwt>
<totfact> 0.77796947E+01</totfact>
</mgrwt>
</event>
<event>
 6    1  0.2238133E-007  0.1091495E+04  0.7818608E-02  0.9213521E-01
          2   -1    0    0  501    0  0.00000000000E+00  0.00000000000E+00  0.22590999692E+03  0.22590999692E+03  0.00000000000E+00 0. -1.
         -2   -1    0    0    0  501 -0.00000000000E+00 -0.00000000000E+00 -0.13184030455E+04  0.13184030455E+04  0.00000000000E+00 0.  1.
         23    2    1    2    0    0  0.16515284742E+03 -0.22688929325E+03 -0.12060816727E+04  0.12415646487E+04  0.89975336748E+02 0.  0.
         11    1    3    3    0    0  0.14863650061E+03 -0.20305452439E+03 -0.91275602671E+03  0.94680912199E+03  0.00000000000E+00 0.  1.
        -11    1    3    3    0    0  0.16516346811E+02 -0.23834768866E+02 -0.29332564597E+03  0.29475552667E+03  0.00000000000E+00 0. -1.
         22    1    1    2    0    0 -0.16515284742E+03  0.22688929325E+03  0.11358862410E+03  0.30274839377E+03  0.00000000000E+00 0. -1.
<mgrwt>
<rscale>  0 0.10914952E+04</rscale>
<asrwt>0</asrwt>
<pdfrwt beam="1">  1        2 0.34755385E-01 0.10914952E+04</pdfrwt>
<pdfrwt beam="2">  1       -2 0.20283124E+00 0.10914952E+04</pdfrwt>
<totfact> 0.19095174E+01</totfact>
</mgrwt>
</event>
<event>
 6    1  0.2238133E-007  0.1635175E+04  0.7818608E-02  0.8799226E-01
         -2   -1    0    0    0  501 -0.00000000000E+00  0.00000000000E+00  0.64104274604E+03  0.64104274604E+03  0.00000000000E+00 0.  1.
          2   -1    0    0  501    0  0.00000000000E+00 -0.00000000000E+00 -0.10427527860E+04  0.10427527860E+04  0.00000000000E+00 0. -1.
         23    2    1    2    0    0  0.44890414275E+03 -0.45453849712E+03 -0.72277291955E+03  0.96881193260E+03  0.89864858361E+02 0.  0.
         11    1    3    3    0    0  0.20069131470E+03 -0.16437058147E+03 -0.24117481406E+03  0.35420330714E+03  0.00000000000E+00 0.  1.
        -11    1    3    3    0    0  0.24821282805E+03 -0.29016791565E+03 -0.48159810549E+03  0.61460862547E+03  0.00000000000E+00 0. -1.
         22    1    1    2    0    0 -0.44890414275E+03  0.45453849712E+03  0.32106287962E+03  0.71498359940E+03  0.00000000000E+00 0.  1.
<mgrwt>
<rscale>  0 0.16351747E+04</rscale>
<asrwt>0</asrwt>
<pdfrwt beam="1">  1        2 0.16042350E+00 0.16351747E+04</pdfrwt>
<pdfrwt beam="2">  1       -2 0.98621961E-01 0.16351747E+04</pdfrwt>
<totfact> 0.19314350E+01</totfact>
</mgrwt>
</event>
<event>
 6    1  0.2238133E-007  0.2743207E+04  0.7818608E-02  0.8321120E-01
          2   -1    0    0  501    0  0.00000000000E+00  0.00000000000E+00  0.29825573474E+04  0.29825573474E+04  0.00000000000E+00 0. -1.
         -2   -1    0    0    0  501 -0.00000000000E+00 -0.00000000000E+00 -0.63076603909E+03  0.63076603909E+03  0.00000000000E+00 0.  1.
         23    2    1    2    0    0 -0.13642767537E+04  0.88244930736E+02  0.12958949692E+04  0.18859104922E+04  0.90974638525E+02 0.  0.
         11    1    3    3    0    0 -0.72879070125E+03  0.89338098729E+02  0.67139780967E+03  0.99493326457E+03  0.00000000000E+00 0. -1.
        -11    1    3    3    0    0 -0.63548605245E+03 -0.10931679927E+01  0.62449715954E+03  0.89097722763E+03  0.00000000000E+00 0.  1.
         22    1    1    2    0    0  0.13642767537E+04 -0.88244930736E+02  0.10558963392E+04  0.17274128943E+04  0.00000000000E+00 0.  1.
<mgrwt>
<rscale>  0 0.27432068E+04</rscale>
<asrwt>0</asrwt>
<pdfrwt beam="1">  1        2 0.45885497E+00 0.27432068E+04</pdfrwt>
<pdfrwt beam="2">  1       -2 0.97040931E-01 0.27432068E+04</pdfrwt>
<totfact> 0.13835553E+00</totfact>
</mgrwt>
</event>
<event>
 6    1  0.2357883E-007  0.3799208E+04  0.7818608E-02  0.8046325E-01
         -2   -1    0    0    0  501 -0.00000000000E+00  0.00000000000E+00  0.19767204220E+04  0.19767204220E+04  0.00000000000E+00 0.  1.
          2   -1    0    0  501    0  0.00000000000E+00 -0.00000000000E+00 -0.18254963420E+04  0.18254963420E+04  0.00000000000E+00 0. -1.
         23    2    1    2    0    0 -0.67650495637E+03  0.84148810551E+03 -0.14871968916E+04  0.18400280707E+04  0.90484910692E+02 0.  0.
         13    1    3    3    0    0 -0.27632988903E+03  0.30907214312E+03 -0.50648020069E+03  0.65452730341E+03  0.00000000000E+00 0. -1.
        -13    1    3    3    0    0 -0.40017506734E+03  0.53241596239E+03 -0.98071669091E+03  0.11855007673E+04  0.00000000000E+00 0.  1.
         22    1    1    2    0    0  0.67650495637E+03 -0.84148810551E+03  0.16384209716E+04  0.19621886932E+04  0.00000000000E+00 0.  1.
<mgrwt>
<rscale>  0 0.37992083E+04</rscale>
<asrwt>0</asrwt>
<pdfrwt beam="1">  1        2 0.28084559E+00 0.37992083E+04</pdfrwt>
<pdfrwt beam="2">  1       -2 0.30411083E+00 0.37992083E+04</pdfrwt>
<totfact> 0.20085768E-01</totfact>
</mgrwt>
</event>
<event>
 6    1  0.2238133E-007  0.2947034E+04  0.7818608E-02  0.8259019E-01
         -2   -1    0    0    0  501 -0.00000000000E+00  0.00000000000E+00  0.11059371881E+04  0.11059371881E+04  0.00000000000E+00 0.  1.
          2   -1    0    0  501    0  0.00000000000E+00 -0.00000000000E+00 -0.19632689119E+04  0.19632689119E+04  0.00000000000E+00 0. -1.
         23    2    1    2    0    0  0.24903475073E+03  0.13045037785E+04  0.23233438933E+03  0.13513234925E+04  0.91364641971E+02 0.  0.
         11    1    3    3    0    0  0.43133167801E+02  0.27167595416E+03  0.11816669689E+02  0.27533239533E+03  0.00000000000E+00 0. -1.
        -11    1    3    3    0    0  0.20590158293E+03  0.10328278243E+04  0.22051771964E+03  0.10759910972E+04  0.00000000000E+00 0.  1.
         22    1    1    2    0    0 -0.24903475073E+03 -0.13045037785E+04 -0.10896661132E+04  0.17178826075E+04  0.00000000000E+00 0. -1.
<mgrwt>
<rscale>  0 0.29470338E+04</rscale>
<asrwt>0</asrwt>
<pdfrwt beam="1">  1        2 0.30204137E+00 0.29470338E+04</pdfrwt>
<pdfrwt beam="2">  1       -2 0.17014418E+00 0.29470338E+04</pdfrwt>
<totfact> 0.12803347E+00</totfact>
</mgrwt>
</event>
<event>
 6    1  0.2238133E-007  0.1678641E+04  0.7818608E-02  0.8773641E-01
         -2   -1    0    0    0  501 -0.00000000000E+00  0.00000000000E+00  0.47682105561E+03  0.47682105561E+03  0.00000000000E+00 0.  1.
          2   -1    0    0  501    0  0.00000000000E+00 -0.00000000000E+00 -0.14774067613E+04  0.14774067613E+04  0.00000000000E+00 0. -1.
         23    2    1    2    0    0  0.36928599654E+03 -0.23046861414E+03 -0.13338213502E+04  0.14060180723E+04  0.91211272696E+02 0.  0.
         11    1    3    3    0    0  0.15535150232E+03 -0.15062543297E+03 -0.64181037534E+03  0.67730544677E+03  0.00000000000E+00 0.  1.
        -11    1    3    3    0    0  0.21393449422E+03 -0.79843181166E+02 -0.69201097481E+03  0.72871262556E+03  0.00000000000E+00 0. -1.
         22    1    1    2    0    0 -0.36928599654E+03  0.23046861414E+03  0.33323564444E+03  0.54820974459E+03  0.00000000000E+00 0.  1.
<mgrwt>
<rscale>  0 0.16786407E+04</rscale>
<asrwt>0</asrwt>
<pdfrwt beam="1">  1        2 0.22729334E+00 0.16786407E+04</pdfrwt>
<pdfrwt beam="2">  1       -2 0.73357087E-01 0.16786407E+04</pdfrwt>
<totfact> 0.20896307E+01</totfact>
</mgrwt>
</event>
<event>
 6    1  0.2238133E-007  0.3505448E+04  0.7818608E-02  0.8112500E-01
          1   -1    0    0  501    0  0.00000000000E+00  0.00000000000E+00  0.11903800857E+04  0.11903800857E+04  0.00000000000E+00 0. -1.
         -1   -1    0    0    0  501 -0.00000000000E+00 -0.00000000000E+00 -0.25807228838E+04  0.25807228838E+04  0.00000000000E+00 0.  1.
         23    2    1    2    0    0 -0.14245698300E+04 -0.88724835032E+03 -0.12349415770E+04  0.20856480234E+04  0.90764218290E+02 0.  0.
         11    1    3    3    0    0 -0.85540070513E+03 -0.51760542727E+03 -0.78821928653E+03  0.12731517539E+04  0.00000000000E+00 0. -1.
        -11    1    3    3    0    0 -0.56916912487E+03 -0.36964292305E+03 -0.44672229043E+03  0.81249626955E+03  0.00000000000E+00 0.  1.
         22    1    1    2    0    0  0.14245698300E+04  0.88724835032E+03 -0.15540122118E+03  0.16854549461E+04  0.00000000000E+00 0.  1.
<mgrwt>
<rscale>  0 0.35054478E+04</rscale>
<asrwt>0</asrwt>
<pdfrwt beam="1">  1        1 0.18313540E+00 0.35054478E+04</pdfrwt>
<pdfrwt beam="2">  1       -1 0.39703428E+00 0.35054478E+04</pdfrwt>
<totfact> 0.66327559E-02</totfact>
</mgrwt>
</event>
<event>
 6    1  0.2238133E-007  0.1597517E+04  0.7818608E-02  0.8822075E-01
         -2   -1    0    0    0  501 -0.00000000000E+00  0.00000000000E+00  0.20009097961E+03  0.20009097961E+03  0.00000000000E+00 0.  1.
          2   -1    0    0  501    0  0.00000000000E+00 -0.00000000000E+00 -0.31886242056E+04  0.31886242056E+04  0.00000000000E+00 0. -1.
         23    2    1    2    0    0 -0.14997301899E+03  0.77689855612E+03 -0.16835734530E+04  0.18626145064E+04  0.94074197489E+02 0.  0.
         13    1    3    3    0    0  0.24340814418E+01  0.84883093958E+02 -0.13295813484E+03  0.15776225788E+03  0.00000000000E+00 0.  1.
        -13    1    3    3    0    0 -0.15240710043E+03  0.69201546216E+03 -0.15506153182E+04  0.17048522485E+04  0.00000000000E+00 0. -1.
         22    1    1    2    0    0  0.14997301899E+03 -0.77689855612E+03 -0.13049597730E+04  0.15261006788E+04  0.00000000000E+00 0. -1.
<mgrwt>
<rscale>  0 0.15975167E+04</rscale>
<asrwt>0</asrwt>
<pdfrwt beam="1">  1        2 0.49055757E+00 0.15975167E+04</pdfrwt>
<pdfrwt beam="2">  1       -2 0.30783228E-01 0.15975167E+04</pdfrwt>
<totfact> 0.12461726E+01</totfact>
</mgrwt>
</event>
<event>
 6    1  0.2238133E-007  0.1372740E+04  0.7818608E-02  0.8973791E-01
         -2   -1    0    0    0  501 -0.00000000000E+00  0.00000000000E+00  0.19972070646E+03  0.19972070646E+03  0.00000000000E+00 0.  1.
          2   -1    0    0  501    0  0.00000000000E+00 -0.00000000000E+00 -0.23588126593E+04  0.23588126593E+04  0.00000000000E+00 0. -1.
         23    2    1    2    0    0  0.10270036743E+03 -0.87643959788E+02 -0.23328232268E+04  0.23385074930E+04  0.91237371841E+02 0.  0.
         13    1    3    3    0    0  0.94570756244E+02 -0.95595772833E+02 -0.22967751540E+04  0.23007082144E+04  0.00000000000E+00 0. -1.
        -13    1    3    3    0    0  0.81296111813E+01  0.79518130451E+01 -0.36048072790E+02  0.37799278571E+02  0.00000000000E+00 0.  1.
         22    1    1    2    0    0 -0.10270036743E+03  0.87643959788E+02  0.17373127394E+03  0.22002587280E+03  0.00000000000E+00 0.  1.
<mgrwt>
<rscale>  0 0.13727399E+04</rscale>
<asrwt>0</asrwt>
<pdfrwt beam="1">  1        2 0.36289427E+00 0.13727399E+04</pdfrwt>
<pdfrwt beam="2">  1       -2 0.30726261E-01 0.13727399E+04</pdfrwt>
<totfact> 0.40246491E+01</totfact>
</mgrwt>
</event>
<event>
 6    1  0.2238133E-007  0.3626209E+04  0.7818608E-02  0.8084514E-01
         -2   -1    0    0    0  501 -0.00000000000E+00  0.00000000000E+00  0.17678701348E+04  0.17678701348E+04  0.00000000000E+00 0.  1.
          2   -1    0    0  501    0  0.00000000000E+00 -0.00000000000E+00 -0.18594963924E+04  0.18594963924E+04  0.00000000000E+00 0. -1.
         23    2    1    2    0    0 -0.79689349465E+03  0.10660440771E+04  0.11840739762E+04  0.17837558573E+04  0.90909632473E+02 0.  0.
         13    1    3    3    0    0 -0.11442857130E+03  0.20686325237E+03  0.19294120482E+03  0.30514359182E+03  0.00000000000E+00 0. -1.
        -13    1    3    3    0    0 -0.68246492334E+03  0.85918082471E+03  0.99113277135E+03  0.14786122655E+04  0.00000000000E+00 0.  1.
         22    1    1    2    0    0  0.79689349465E+03 -0.10660440771E+04 -0.12757002337E+04  0.18436106700E+04  0.00000000000E+00 0. -1.
<mgrwt>
<rscale>  0 0.36262091E+04</rscale>
<asrwt>0</asrwt>
<pdfrwt beam="1">  1        2 0.28607637E+00 0.36262091E+04</pdfrwt>
<pdfrwt beam="2">  1       -2 0.27198002E+00 0.36262091E+04</pdfrwt>
<totfact> 0.30657503E-01</totfact>
</mgrwt>
</event>
<event>
 6    1  0.2238133E-007  0.3342240E+04  0.7818608E-02  0.8152230E-01
         -2   -1    0    0    0  501 -0.00000000000E+00  0.00000000000E+00  0.18762109773E+04  0.18762109773E+04  0.00000000000E+00 0.  1.
          2   -1    0    0  501    0  0.00000000000E+00 -0.00000000000E+00 -0.14884482175E+04  0.14884482175E+04  0.00000000000E+00 0. -1.
         23    2    1    2    0    0 -0.92167094894E+03  0.11129994810E+04 -0.64867421202E+03  0.15863322340E+04  0.86177377672E+02 0.  0.
         13    1    3    3    0    0 -0.52804841967E+03  0.66410973091E+03 -0.42325219212E+03  0.94816627568E+03  0.00000000000E+00 0.  1.
        -13    1    3    3    0    0 -0.39362252927E+03  0.44888975012E+03 -0.22542201990E+03  0.63816595832E+03  0.00000000000E+00 0. -1.
         22    1    1    2    0    0  0.92167094894E+03 -0.11129994810E+04  0.10364369718E+04  0.17783269608E+04  0.00000000000E+00 0. -1.
<mgrwt>
<rscale>  0 0.33422405E+04</rscale>
<asrwt>0</asrwt>
<pdfrwt beam="1">  1        2 0.22899203E+00 0.33422405E+04</pdfrwt>
<pdfrwt beam="2">  1       -2 0.28864784E+00 0.33422405E+04</pdfrwt>
<totfact> 0.39996358E-01</totfact>
</mgrwt>
</event>
<event>
 6    1  0.2238133E-007  0.3053986E+04  0.7818608E-02  0.8228481E-01
          3   -1    0    0  501    0  0.00000000000E+00  0.00000000000E+00  0.10778322691E+04  0.10778322691E+04  0.00000000000E+00 0. -1.
         -3   -1    0    0    0  501 -0.00000000000E+00 -0.00000000000E+00 -0.21633304161E+04  0.21633304161E+04  0.00000000000E+00 0.  1.
         23    2    1    2    0    0 -0.12564130850E+04 -0.49585902799E+03 -0.12960883742E+04  0.18741227225E+04  0.89671005691E+02 0.  0.
         13    1    3    3    0    0 -0.40348007058E+03 -0.14397192262E+03 -0.46622161971E+03  0.63315612652E+03  0.00000000000E+00 0.  1.
        -13    1    3    3    0    0 -0.85293301445E+03 -0.35188710537E+03 -0.82986675451E+03  0.12409665960E+04  0.00000000000E+00 0. -1.
         22    1    1    2    0    0  0.12564130850E+04  0.49585902799E+03  0.21059022727E+03  0.13670399627E+04  0.00000000000E+00 0. -1.
<mgrwt>
<rscale>  0 0.30539858E+04</rscale>
<asrwt>0</asrwt>
<pdfrwt beam="1">  1        3 0.16582035E+00 0.30539858E+04</pdfrwt>
<pdfrwt beam="2">  1       -3 0.33282006E+00 0.30539858E+04</pdfrwt>
<totfact> 0.13680470E-02</totfact>
</mgrwt>
</event>
<event>
 6    1  0.2238133E-007  0.2315773E+04  0.7818608E-02  0.8471728E-01
         -2   -1    0    0    0  501 -0.00000000000E+00  0.00000000000E+00  0.69956989835E+03  0.69956989835E+03  0.00000000000E+00 0.  1.
          2   -1    0    0  501    0  0.00000000000E+00 -0.00000000000E+00 -0.19164649325E+04  0.19164649325E+04  0.00000000000E+00 0. -1.
         23    2    1    2    0    0  0.63376535490E+03 -0.44135385295E+03  0.36222430925E+03  0.85817543679E+03  0.93844986659E+02 0.  0.
         11    1    3    3    0    0  0.26976353404E+03 -0.13572916456E+03  0.15861493038E+03  0.34110623939E+03  0.00000000000E+00 0. -1.
        -11    1    3    3    0    0  0.36400182086E+03 -0.30562468839E+03  0.20360937887E+03  0.51706919741E+03  0.00000000000E+00 0.  1.
         22    1    1    2    0    0 -0.63376535490E+03  0.44135385295E+03 -0.15791193434E+04  0.17578593940E+04  0.00000000000E+00 0. -1.
<mgrwt>
<rscale>  0 0.23157730E+04</rscale>
<asrwt>0</asrwt>
<pdfrwt beam="1">  1        2 0.29484076E+00 0.23157730E+04</pdfrwt>
<pdfrwt beam="2">  1       -2 0.10762614E+00 0.23157730E+04</pdfrwt>
<totfact> 0.46628541E+00</totfact>
</mgrwt>
</event>
<event>
 6    1  0.2238133E-007  0.9217689E+03  0.7818608E-02  0.9398771E-01
          2   -1    0    0  501    0  0.00000000000E+00  0.00000000000E+00  0.29521201218E+04  0.29521201218E+04  0.00000000000E+00 0. -1.
         -2   -1    0    0    0  501 -0.00000000000E+00 -0.00000000000E+00 -0.71953190949E+02  0.71953190949E+02  0.00000000000E+00 0.  1.
         23    2    1    2    0    0 -0.25675119226E+03  0.26817061282E+03  0.23252748777E+04  0.23564343063E+04  0.89681272702E+02 0.  0.
         13    1    3    3    0    0 -0.39821783616E+02  0.86224703268E+02  0.74058388810E+03  0.74664916073E+03  0.00000000000E+00 0.  1.
        -13    1    3    3    0    0 -0.21692940865E+03  0.18194590955E+03  0.15846909896E+04  0.16097851455E+04  0.00000000000E+00 0. -1.
         22    1    1    2    0    0  0.25675119226E+03 -0.26817061282E+03  0.55489205319E+03  0.66763900650E+03  0.00000000000E+00 0.  1.
<mgrwt>
<rscale>  0 0.92176887E+03</rscale>
<asrwt>0</asrwt>
<pdfrwt beam="1">  1        2 0.45417223E+00 0.92176887E+03</pdfrwt>
<pdfrwt beam="2">  1       -2 0.11069724E-01 0.92176887E+03</pdfrwt>
<totfact> 0.11203822E+02</totfact>
</mgrwt>
</event>
<event>
 6    1  0.2238133E-007  0.1618152E+04  0.7818608E-02  0.8809474E-01
          2   -1    0    0  501    0  0.00000000000E+00  0.00000000000E+00  0.17496062693E+04  0.17496062693E+04  0.00000000000E+00 0. -1.
         -2   -1    0    0    0  501 -0.00000000000E+00 -0.00000000000E+00 -0.37414354161E+03  0.37414354161E+03  0.00000000000E+00 0.  1.
         23    2    1    2    0    0  0.56601713756E+03  0.17306315349E+03  0.14088776884E+04  0.15309236857E+04  0.92003997812E+02 0.  0.
         13    1    3    3    0    0  0.20872969051E+03  0.11068018635E+03  0.56443333208E+03  0.61188493503E+03  0.00000000000E+00 0.  1.
        -13    1    3    3    0    0  0.35728744705E+03  0.62382967138E+02  0.84444435631E+03  0.91903875071E+03  0.00000000000E+00 0. -1.
         22    1    1    2    0    0 -0.56601713756E+03 -0.17306315349E+03 -0.33414960684E+02  0.59282612519E+03  0.00000000000E+00 0.  1.
<mgrwt>
<rscale>  0 0.16181519E+04</rscale>
<asrwt>0</asrwt>
<pdfrwt beam="1">  1        2 0.26917019E+00 0.16181519E+04</pdfrwt>
<pdfrwt beam="2">  1       -2 0.57560546E-01 0.16181519E+04</pdfrwt>
<totfact> 0.24910298E+01</totfact>
</mgrwt>
</event>
<event>
 6    1  0.2238133E-007  0.3560569E+04  0.7818608E-02  0.8099584E-01
          2   -1    0    0  501    0  0.00000000000E+00  0.00000000000E+00  0.49778082338E+04  0.49778082338E+04  0.00000000000E+00 0. -1.
         -2   -1    0    0    0  501 -0.00000000000E+00 -0.00000000000E+00 -0.63670850387E+03  0.63670850387E+03  0.00000000000E+00 0.  1.
         23    2    1    2    0    0  0.14401697928E+04  0.15963875081E+03  0.54412276935E+03  0.15504537950E+04  0.90905553178E+02 0.  0.
         11    1    3    3    0    0  0.18553642733E+03 -0.38258276433E+01  0.89368301078E+02  0.20597353243E+03  0.00000000000E+00 0.  1.
        -11    1    3    3    0    0  0.12546333654E+04  0.16346457846E+03  0.45475446827E+03  0.13444802626E+04  0.00000000000E+00 0. -1.
         22    1    1    2    0    0 -0.14401697928E+04 -0.15963875081E+03  0.37969769606E+04  0.40640629426E+04  0.00000000000E+00 0. -1.
<mgrwt>
<rscale>  0 0.35605690E+04</rscale>
<asrwt>0</asrwt>
<pdfrwt beam="1">  1        2 0.76581663E+00 0.35605690E+04</pdfrwt>
<pdfrwt beam="2">  1       -2 0.97955158E-01 0.35605690E+04</pdfrwt>
<totfact> 0.25758669E-02</totfact>
</mgrwt>
</event>
<event>
 6    1  0.2238133E-007  0.3828445E+04  0.7818608E-02  0.8040078E-01
         -2   -1    0    0    0  501 -0.00000000000E+00  0.00000000000E+00  0.13477353527E+04  0.13477353527E+04  0.00000000000E+00 0.  1.
          2   -1    0    0  501    0  0.00000000000E+00 -0.00000000000E+00 -0.27188190664E+04  0.27188190664E+04  0.00000000000E+00 0. -1.
         23    2    1    2    0    0 -0.30083350864E+03  0.13148812998E+04 -0.21270667208E+04  0.25202931412E+04  0.89727645952E+02 0.  0.
         11    1    3    3    0    0 -0.22100556144E+03  0.81043476107E+03 -0.13713608564E+04  0.16081910828E+04  0.00000000000E+00 0.  1.
        -11    1    3    3    0    0 -0.79827947191E+02  0.50444653870E+03 -0.75570586440E+03  0.91210205846E+03  0.00000000000E+00 0. -1.
         22    1    1    2    0    0  0.30083350864E+03 -0.13148812998E+04  0.75598300718E+03  0.15462612779E+04  0.00000000000E+00 0.  1.
<mgrwt>
<rscale>  0 0.38284454E+04</rscale>
<asrwt>0</asrwt>
<pdfrwt beam="1">  1        2 0.41827985E+00 0.38284454E+04</pdfrwt>
<pdfrwt beam="2">  1       -2 0.20734390E+00 0.38284454E+04</pdfrwt>
<totfact> 0.24652098E-01</totfact>
</mgrwt>
</event>
<event>
 6    1  0.2238133E-007  0.3257360E+04  0.7818608E-02  0.8173831E-01
          1   -1    0    0  501    0  0.00000000000E+00  0.00000000000E+00  0.15458706356E+04  0.15458706356E+04  0.00000000000E+00 0. -1.
         -1   -1    0    0    0  501 -0.00000000000E+00 -0.00000000000E+00 -0.17159253044E+04  0.17159253044E+04  0.00000000000E+00 0.  1.
         23    2    1    2    0    0  0.13215928609E+04  0.60910573244E+03  0.64452816815E+03  0.15941141114E+04  0.90364581304E+02 0.  0.
         11    1    3    3    0    0  0.20342838232E+03  0.12924845395E+03  0.11669684918E+03  0.26778055230E+03  0.00000000000E+00 0. -1.
        -11    1    3    3    0    0  0.11181644785E+04  0.47985727849E+03  0.52783131897E+03  0.13263335591E+04  0.00000000000E+00 0.  1.
         22    1    1    2    0    0 -0.13215928609E+04 -0.60910573244E+03 -0.81458283694E+03  0.16676818286E+04  0.00000000000E+00 0.  1.
<mgrwt>
<rscale>  0 0.32573600E+04</rscale>
<asrwt>0</asrwt>
<pdfrwt beam="1">  1        1 0.23782625E+00 0.32573600E+04</pdfrwt>
<pdfrwt beam="2">  1       -1 0.26398851E+00 0.32573600E+04</pdfrwt>
<totfact> 0.28615968E-01</totfact>
</mgrwt>
</event>
<event>
 6    1  0.2238133E-007  0.1606322E+04  0.7818608E-02  0.8816674E-01
          2   -1    0    0  501    0  0.00000000000E+00  0.00000000000E+00  0.88218268266E+03  0.88218268266E+03  0.00000000000E+00 0. -1.
         -2   -1    0    0    0  501 -0.00000000000E+00 -0.00000000000E+00 -0.73121752080E+03  0.73121752080E+03  0.00000000000E+00 0.  1.
         23    2    1    2    0    0 -0.58073885722E+02  0.35130407623E+03  0.79590927121E+03  0.87669128241E+03  0.91262842808E+02 0.  0.
         11    1    3    3    0    0 -0.19048292384E+02  0.92203430738E+02  0.31824804805E+03  0.33188270544E+03  0.00000000000E+00 0.  1.
        -11    1    3    3    0    0 -0.39025593338E+02  0.25910064549E+03  0.47766122316E+03  0.54480857697E+03  0.00000000000E+00 0. -1.
         22    1    1    2    0    0  0.58073885722E+02 -0.35130407623E+03 -0.64494410935E+03  0.73670892105E+03  0.00000000000E+00 0.  1.
<mgrwt>
<rscale>  0 0.16063218E+04</rscale>
<asrwt>0</asrwt>
<pdfrwt beam="1">  1        2 0.13572041E+00 0.16063218E+04</pdfrwt>
<pdfrwt beam="2">  1       -2 0.11249500E+00 0.16063218E+04</pdfrwt>
<totfact> 0.17982830E+01</totfact>
</mgrwt>
</event>
<event>
 6    1  0.2238133E-007  0.1703727E+04  0.7818608E-02  0.8759241E-01
         -2   -1    0    0    0  501 -0.00000000000E+00  0.00000000000E+00  0.64789464251E+03  0.64789464251E+03  0.00000000000E+00 0.  1.
          2   -1    0    0  501    0  0.00000000000E+00 -0.00000000000E+00 -0.11200459963E+04  0.11200459963E+04  0.00000000000E+00 0. -1.
         23    2    1    2    0    0  0.61568682958E+03 -0.11138007595E+02 -0.84380681864E+03  0.10486895617E+04  0.92441993863E+02 0.  0.
         13    1    3    3    0    0  0.20543219810E+03  0.33762698783E+02 -0.24615449594E+03  0.32238849811E+03  0.00000000000E+00 0. -1.
        -13    1    3    3    0    0  0.41025463148E+03 -0.44900706378E+02 -0.59765232271E+03  0.72630106355E+03  0.00000000000E+00 0.  1.
         22    1    1    2    0    0 -0.61568682958E+03  0.11138007595E+02  0.37165546490E+03  0.71925107711E+03  0.00000000000E+00 0.  1.
<mgrwt>
<rscale>  0 0.17037274E+04</rscale>
<asrwt>0</asrwt>
<pdfrwt beam="1">  1        2 0.17231477E+00 0.17037274E+04</pdfrwt>
<pdfrwt beam="2">  1       -2 0.99676100E-01 0.17037274E+04</pdfrwt>
<totfact> 0.16770472E+01</totfact>
</mgrwt>
</event>
<event>
 6    1  0.2238133E-007  0.3189298E+04  0.7818608E-02  0.8191649E-01
         -2   -1    0    0    0  501 -0.00000000000E+00  0.00000000000E+00  0.83040270320E+03  0.83040270320E+03  0.00000000000E+00 0.  1.
          2   -1    0    0  501    0  0.00000000000E+00 -0.00000000000E+00 -0.30622559690E+04  0.30622559690E+04  0.00000000000E+00 0. -1.
         23    2    1    2    0    0  0.61541288548E+03 -0.14646206914E+04 -0.12665983221E+04  0.20337439631E+04  0.89422642292E+02 0.  0.
         11    1    3    3    0    0  0.45140065333E+03 -0.11602987916E+04 -0.97096833065E+03  0.15788715384E+04  0.00000000000E+00 0. -1.
        -11    1    3    3    0    0  0.16401223215E+03 -0.30432189976E+03 -0.29562999142E+03  0.45487242474E+03  0.00000000000E+00 0.  1.
         22    1    1    2    0    0 -0.61541288548E+03  0.14646206914E+04 -0.96525494371E+03  0.18589147091E+04  0.00000000000E+00 0.  1.
<mgrwt>
<rscale>  0 0.31892981E+04</rscale>
<asrwt>0</asrwt>
<pdfrwt beam="1">  1        2 0.47111630E+00 0.31892981E+04</pdfrwt>
<pdfrwt beam="2">  1       -2 0.12775426E+00 0.31892981E+04</pdfrwt>
<totfact> 0.60795181E-01</totfact>
</mgrwt>
</event>
<event>
 6    1  0.2238133E-007  0.1298519E+04  0.7818608E-02  0.9030740E-01
          2   -1    0    0  501    0  0.00000000000E+00  0.00000000000E+00  0.71067490256E+03  0.71067490256E+03  0.00000000000E+00 0. -1.
         -2   -1    0    0    0  501 -0.00000000000E+00 -0.00000000000E+00 -0.59315150178E+03  0.59315150178E+03  0.00000000000E+00 0.  1.
         23    2    1    2    0    0 -0.43197976694E+03  0.16016563822E+03 -0.39614817655E+03  0.61381333194E+03  0.87028029794E+02 0.  0.
         11    1    3    3    0    0 -0.82821376767E+01  0.95422251272E+01  0.24934439778E+01  0.12878863605E+02  0.00000000000E+00 0. -1.
        -11    1    3    3    0    0 -0.42369762927E+03  0.15062341309E+03 -0.39864162053E+03  0.60093446834E+03  0.00000000000E+00 0.  1.
         22    1    1    2    0    0  0.43197976694E+03 -0.16016563822E+03  0.51367157734E+03  0.69001307240E+03  0.00000000000E+00 0. -1.
<mgrwt>
<rscale>  0 0.12985190E+04</rscale>
<asrwt>0</asrwt>
<pdfrwt beam="1">  1        2 0.10933460E+00 0.12985190E+04</pdfrwt>
<pdfrwt beam="2">  1       -2 0.91254077E-01 0.12985190E+04</pdfrwt>
<totfact> 0.40340524E+01</totfact>
</mgrwt>
</event>
<event>
 6    1  0.2238133E-007  0.1460325E+04  0.7818608E-02  0.8911274E-01
          2   -1    0    0  501    0  0.00000000000E+00  0.00000000000E+00  0.61843437971E+03  0.61843437971E+03  0.00000000000E+00 0. -1.
         -2   -1    0    0    0  501 -0.00000000000E+00 -0.00000000000E+00 -0.86207579965E+03  0.86207579965E+03  0.00000000000E+00 0.  1.
         23    2    1    2    0    0  0.64873563721E+03 -0.32535300985E+03 -0.17153348501E+03  0.75118716294E+03  0.90254691147E+02 0.  0.
         13    1    3    3    0    0  0.14033526320E+03 -0.35424121256E+02 -0.16041651525E+02  0.14562344951E+03  0.00000000000E+00 0. -1.
        -13    1    3    3    0    0  0.50840037402E+03 -0.28992888859E+03 -0.15549183348E+03  0.60556371343E+03  0.00000000000E+00 0.  1.
         22    1    1    2    0    0 -0.64873563721E+03  0.32535300985E+03 -0.72107934931E+02  0.72932301643E+03  0.00000000000E+00 0.  1.
<mgrwt>
<rscale>  0 0.14603250E+04</rscale>
<asrwt>0</asrwt>
<pdfrwt beam="1">  1        2 0.95143751E-01 0.14603250E+04</pdfrwt>
<pdfrwt beam="2">  1       -2 0.13262705E+00 0.14603250E+04</pdfrwt>
<totfact> 0.19112822E+01</totfact>
</mgrwt>
</event>
<event>
 6    1  0.2238133E-007  0.2699982E+04  0.7818608E-02  0.8335011E-01
         -2   -1    0    0    0  501 -0.00000000000E+00  0.00000000000E+00  0.10040116368E+04  0.10040116368E+04  0.00000000000E+00 0.  1.
          2   -1    0    0  501    0  0.00000000000E+00 -0.00000000000E+00 -0.18151941648E+04  0.18151941648E+04  0.00000000000E+00 0. -1.
         23    2    1    2    0    0 -0.18766437332E+02  0.63840271878E+03  0.83387987177E+03  0.10545130494E+04  0.93444745041E+02 0.  0.
         13    1    3    3    0    0  0.47675813200E+01  0.35467247141E+03  0.53343836215E+03  0.64060266783E+03  0.00000000000E+00 0. -1.
        -13    1    3    3    0    0 -0.23534018652E+02  0.28373024736E+03  0.30044150961E+03  0.41391038161E+03  0.00000000000E+00 0.  1.
         22    1    1    2    0    0  0.18766437332E+02 -0.63840271878E+03 -0.16450623998E+04  0.17646927522E+04  0.00000000000E+00 0. -1.
<mgrwt>
<rscale>  0 0.26999823E+04</rscale>
<asrwt>0</asrwt>
<pdfrwt beam="1">  1        2 0.27926063E+00 0.26999823E+04</pdfrwt>
<pdfrwt beam="2">  1       -2 0.15446333E+00 0.26999823E+04</pdfrwt>
<totfact> 0.20575075E+00</totfact>
</mgrwt>
</event>
<event>
 6    1  0.2238133E-007  0.2205192E+04  0.7818608E-02  0.8516270E-01
          2   -1    0    0  501    0  0.00000000000E+00  0.00000000000E+00  0.83053679026E+03  0.83053679026E+03  0.00000000000E+00 0. -1.
         -2   -1    0    0    0  501 -0.00000000000E+00 -0.00000000000E+00 -0.14637737817E+04  0.14637737817E+04  0.00000000000E+00 0.  1.
         23    2    1    2    0    0 -0.87393919804E+03  0.47239871700E+03  0.17599256800E+03  0.10129898668E+04  0.90800971686E+02 0.  0.
         11    1    3    3    0    0 -0.39689307709E+03  0.17848747663E+03  0.10945855520E+03  0.44873496550E+03  0.00000000000E+00 0. -1.
        -11    1    3    3    0    0 -0.47704612096E+03  0.29391124037E+03  0.66534012802E+02  0.56425490126E+03  0.00000000000E+00 0.  1.
         22    1    1    2    0    0  0.87393919804E+03 -0.47239871700E+03 -0.80922955942E+03  0.12813207052E+04  0.00000000000E+00 0.  1.
<mgrwt>
<rscale>  0 0.22051920E+04</rscale>
<asrwt>0</asrwt>
<pdfrwt beam="1">  1        2 0.12777489E+00 0.22051920E+04</pdfrwt>
<pdfrwt beam="2">  1       -2 0.22519597E+00 0.22051920E+04</pdfrwt>
<totfact> 0.27416506E+00</totfact>
</mgrwt>
</event>
<event>
 6    1  0.2238133E-007  0.4781094E+04  0.7818608E-02  0.7863192E-01
         -2   -1    0    0    0  501 -0.00000000000E+00  0.00000000000E+00  0.29764032644E+04  0.29764032644E+04  0.00000000000E+00 0.  1.
          2   -1    0    0  501    0  0.00000000000E+00 -0.00000000000E+00 -0.19200070383E+04  0.19200070383E+04  0.00000000000E+00 0. -1.
         23    2    1    2    0    0  0.16477658918E+04  0.91307686331E+03 -0.97731802429E+03  0.21242567275E+04  0.92056131552E+02 0.  0.
         11    1    3    3    0    0  0.61935764138E+03  0.35223589784E+03 -0.32041683785E+03  0.78124321799E+03  0.00000000000E+00 0.  1.
        -11    1    3    3    0    0  0.10284082504E+04  0.56084096547E+03 -0.65690118644E+03  0.13430135095E+04  0.00000000000E+00 0. -1.
         22    1    1    2    0    0 -0.16477658918E+04 -0.91307686331E+03  0.20337142504E+04  0.27721535752E+04  0.00000000000E+00 0.  1.
<mgrwt>
<rscale>  0 0.47810941E+04</rscale>
<asrwt>0</asrwt>
<pdfrwt beam="1">  1        2 0.29538570E+00 0.47810941E+04</pdfrwt>
<pdfrwt beam="2">  1       -2 0.45790820E+00 0.47810941E+04</pdfrwt>
<totfact> 0.16918357E-02</totfact>
</mgrwt>
</event>
<event>
 6    1  0.2238133E-007  0.9858145E+03  0.7818608E-02  0.9324241E-01
         -1   -1    0    0    0  501 -0.00000000000E+00  0.00000000000E+00  0.19277249388E+03  0.19277249388E+03  0.00000000000E+00 0.  1.
          1   -1    0    0  501    0  0.00000000000E+00 -0.00000000000E+00 -0.12603331680E+04  0.12603331680E+04  0.00000000000E+00 0. -1.
         23    2    1    2    0    0  0.15646511288E+03 -0.27437150361E+03  0.11718279039E+02  0.32855948129E+03  0.89738292499E+02 0.  0.
         11    1    3    3    0    0  0.15016803595E+02 -0.27521882958E+02  0.30100407651E+02  0.43462546779E+02  0.00000000000E+00 0. -1.
        -11    1    3    3    0    0  0.14144830928E+03 -0.24684962065E+03 -0.18382128612E+02  0.28509693451E+03  0.00000000000E+00 0.  1.
         22    1    1    2    0    0 -0.15646511288E+03  0.27437150361E+03 -0.10792789531E+04  0.11245461806E+04  0.00000000000E+00 0. -1.
<mgrwt>
<rscale>  0 0.98581452E+03</rscale>
<asrwt>0</asrwt>
<pdfrwt beam="1">  1        1 0.19389741E+00 0.98581452E+03</pdfrwt>
<pdfrwt beam="2">  1       -1 0.29657306E-01 0.98581452E+03</pdfrwt>
<totfact> 0.10081559E+02</totfact>
</mgrwt>
</event>
<event>
 6    1  0.2238133E-007  0.2787647E+04  0.7818608E-02  0.8307114E-01
          2   -1    0    0  501    0  0.00000000000E+00  0.00000000000E+00  0.26038101324E+04  0.26038101324E+04  0.00000000000E+00 0. -1.
         -2   -1    0    0    0  501 -0.00000000000E+00 -0.00000000000E+00 -0.74611590062E+03  0.74611590062E+03  0.00000000000E+00 0.  1.
         23    2    1    2    0    0  0.11505053988E+04 -0.78236996557E+03  0.92745941478E+03  0.16762766521E+04  0.11813980088E+03 0.  0.
         11    1    3    3    0    0  0.12826115315E+03 -0.62674314119E+02  0.13239936201E+03  0.19470126892E+03  0.00000000000E+00 0. -1.
        -11    1    3    3    0    0  0.10222442456E+04 -0.71969565145E+03  0.79506005277E+03  0.14815753832E+04  0.00000000000E+00 0.  1.
         22    1    1    2    0    0 -0.11505053988E+04  0.78236996557E+03  0.93023481701E+03  0.16736493810E+04  0.00000000000E+00 0. -1.
<mgrwt>
<rscale>  0 0.27876471E+04</rscale>
<asrwt>0</asrwt>
<pdfrwt beam="1">  1        2 0.40058617E+00 0.27876471E+04</pdfrwt>
<pdfrwt beam="2">  1       -2 0.11478706E+00 0.27876471E+04</pdfrwt>
<totfact> 0.15615886E+00</totfact>
</mgrwt>
</event>
<event>
 6    1  0.2238133E-007  0.3855761E+04  0.7818608E-02  0.8034293E-01
          1   -1    0    0  501    0  0.00000000000E+00  0.00000000000E+00  0.41257436799E+04  0.41257436799E+04  0.00000000000E+00 0. -1.
         -1   -1    0    0    0  501 -0.00000000000E+00 -0.00000000000E+00 -0.90086162235E+03  0.90086162235E+03  0.00000000000E+00 0.  1.
         23    2    1    2    0    0  0.13320886773E+04 -0.24173885599E+03  0.34006614104E+04  0.36613960511E+04  0.91788320572E+02 0.  0.
         11    1    3    3    0    0  0.11123968506E+04 -0.23357308439E+03  0.28137804156E+04  0.30346899950E+04  0.00000000000E+00 0. -1.
        -11    1    3    3    0    0  0.21969182674E+03 -0.81657715905E+01  0.58688099486E+03  0.62670605605E+03  0.00000000000E+00 0.  1.
         22    1    1    2    0    0 -0.13320886773E+04  0.24173885599E+03 -0.17577935284E+03  0.13652092512E+04  0.00000000000E+00 0.  1.
<mgrwt>
<rscale>  0 0.38557615E+04</rscale>
<asrwt>0</asrwt>
<pdfrwt beam="1">  1        1 0.63472979E+00 0.38557615E+04</pdfrwt>
<pdfrwt beam="2">  1       -1 0.13859410E+00 0.38557615E+04</pdfrwt>
<totfact> 0.25142002E-02</totfact>
</mgrwt>
</event>
<event>
 6    1  0.2238133E-007  0.4776954E+04  0.7818608E-02  0.7863866E-01
          2   -1    0    0  501    0  0.00000000000E+00  0.00000000000E+00  0.32909889217E+04  0.32909889217E+04  0.00000000000E+00 0. -1.
         -2   -1    0    0    0  501 -0.00000000000E+00 -0.00000000000E+00 -0.17334677872E+04  0.17334677872E+04  0.00000000000E+00 0.  1.
         23    2    1    2    0    0  0.22986244831E+04  0.68904294548E+02  0.10392595678E+03  0.23039124146E+04  0.93752297383E+02 0.  0.
         11    1    3    3    0    0  0.41811388199E+03  0.24202430331E+02 -0.15327814759E+02  0.41909416346E+03  0.00000000000E+00 0. -1.
        -11    1    3    3    0    0  0.18805106012E+04  0.44701864217E+02  0.11925377154E+03  0.18848182511E+04  0.00000000000E+00 0.  1.
         22    1    1    2    0    0 -0.22986244831E+04 -0.68904294548E+02  0.14535951778E+04  0.27205442943E+04  0.00000000000E+00 0. -1.
<mgrwt>
<rscale>  0 0.47769544E+04</rscale>
<asrwt>0</asrwt>
<pdfrwt beam="1">  1        2 0.50630599E+00 0.47769544E+04</pdfrwt>
<pdfrwt beam="2">  1       -2 0.26668735E+00 0.47769544E+04</pdfrwt>
<totfact> 0.42444657E-02</totfact>
</mgrwt>
</event>
<event>
 6    1  0.2238133E-007  0.1673145E+04  0.7818608E-02  0.8776831E-01
          2   -1    0    0  501    0  0.00000000000E+00  0.00000000000E+00  0.36794524940E+04  0.36794524940E+04  0.00000000000E+00 0. -1.
         -2   -1    0    0    0  501 -0.00000000000E+00 -0.00000000000E+00 -0.19020595426E+03  0.19020595426E+03  0.00000000000E+00 0.  1.
         23    2    1    2    0    0 -0.40866003164E+03 -0.62382939572E+03  0.88669973126E+03  0.11623690240E+04  0.93269491713E+02 0.  0.
         11    1    3    3    0    0 -0.10965762895E+02 -0.28010068249E+02  0.68962476909E+02  0.75237192269E+02  0.00000000000E+00 0. -1.
        -11    1    3    3    0    0 -0.39769426875E+03 -0.59581932748E+03  0.81773725435E+03  0.10871318317E+04  0.00000000000E+00 0.  1.
         22    1    1    2    0    0  0.40866003164E+03  0.62382939572E+03  0.26025468085E+04  0.27072894243E+04  0.00000000000E+00 0.  1.
<mgrwt>
<rscale>  0 0.16731453E+04</rscale>
<asrwt>0</asrwt>
<pdfrwt beam="1">  1        2 0.56606956E+00 0.16731453E+04</pdfrwt>
<pdfrwt beam="2">  1       -2 0.29262457E-01 0.16731453E+04</pdfrwt>
<totfact> 0.62711094E+00</totfact>
</mgrwt>
</event>
<event>
 6    1  0.2245405E-007  0.2316096E+04  0.7818608E-02  0.8471602E-01
         -2   -1    0    0    0  501 -0.00000000000E+00  0.00000000000E+00  0.15980070080E+04  0.15980070080E+04  0.00000000000E+00 0.  1.
          2   -1    0    0  501    0  0.00000000000E+00 -0.00000000000E+00 -0.83921704975E+03  0.83921704975E+03  0.00000000000E+00 0. -1.
         23    2    1    2    0    0 -0.13238652155E+03 -0.11353250904E+04  0.56296567134E+03  0.12775532409E+04  0.93395312169E+02 0.  0.
         13    1    3    3    0    0 -0.21789283826E+02 -0.58293884759E+03  0.29607227345E+03  0.65417984074E+03  0.00000000000E+00 0. -1.
        -13    1    3    3    0    0 -0.11059723773E+03 -0.55238624282E+03  0.26689339790E+03  0.62337340021E+03  0.00000000000E+00 0.  1.
         22    1    1    2    0    0  0.13238652155E+03  0.11353250904E+04  0.19582428691E+03  0.11596708168E+04  0.00000000000E+00 0.  1.
<mgrwt>
<rscale>  0 0.23160956E+04</rscale>
<asrwt>0</asrwt>
<pdfrwt beam="1">  1        2 0.12911032E+00 0.23160956E+04</pdfrwt>
<pdfrwt beam="2">  1       -2 0.24584723E+00 0.23160956E+04</pdfrwt>
<totfact> 0.19927773E+00</totfact>
</mgrwt>
</event>
<event>
 6    1  0.2238133E-007  0.9000821E+03  0.7818608E-02  0.9425479E-01
          2   -1    0    0  501    0  0.00000000000E+00  0.00000000000E+00  0.69212267906E+03  0.69212267906E+03  0.00000000000E+00 0. -1.
         -2   -1    0    0    0  501 -0.00000000000E+00 -0.00000000000E+00 -0.29263156428E+03  0.29263156428E+03  0.00000000000E+00 0.  1.
         23    2    1    2    0    0 -0.77299876391E+02  0.43078496186E+03  0.29470458433E+03  0.53471960999E+03  0.86737045275E+02 0.  0.
         11    1    3    3    0    0 -0.67115701354E+02  0.24742041552E+03  0.21474592079E+03  0.33442067801E+03  0.00000000000E+00 0.  1.
        -11    1    3    3    0    0 -0.10184175037E+02  0.18336454634E+03  0.79958663542E+02  0.20029893198E+03  0.00000000000E+00 0. -1.
         22    1    1    2    0    0  0.77299876391E+02 -0.43078496186E+03  0.10478653045E+03  0.45003463335E+03  0.00000000000E+00 0.  1.
<mgrwt>
<rscale>  0 0.90008209E+03</rscale>
<asrwt>0</asrwt>
<pdfrwt beam="1">  1        2 0.10648041E+00 0.90008209E+03</pdfrwt>
<pdfrwt beam="2">  1       -2 0.45020241E-01 0.90008209E+03</pdfrwt>
<totfact> 0.19503339E+02</totfact>
</mgrwt>
</event>
<event>
 6    1  0.2238133E-007  0.5396363E+03  0.7818608E-02  0.1003922E+00
          2   -1    0    0  501    0  0.00000000000E+00  0.00000000000E+00  0.15935725176E+04  0.15935725176E+04  0.00000000000E+00 0. -1.
         -2   -1    0    0    0  501 -0.00000000000E+00 -0.00000000000E+00 -0.45684665441E+02  0.45684665441E+02  0.00000000000E+00 0.  1.
         23    2    1    2    0    0 -0.82807998845E+02 -0.24269782446E+03  0.63208514833E+03  0.68822932277E+03  0.91479873791E+02 0.  0.
         11    1    3    3    0    0  0.55069789126E+01 -0.12395289678E+03  0.27506589707E+03  0.30175469370E+03  0.00000000000E+00 0. -1.
        -11    1    3    3    0    0 -0.88314977757E+02 -0.11874492768E+03  0.35701925126E+03  0.38647462907E+03  0.00000000000E+00 0.  1.
         22    1    1    2    0    0  0.82807998845E+02  0.24269782446E+03  0.91580270382E+03  0.95102786026E+03  0.00000000000E+00 0. -1.
<mgrwt>
<rscale>  0 0.53963627E+03</rscale>
<asrwt>0</asrwt>
<pdfrwt beam="1">  1        2 0.24516496E+00 0.53963627E+03</pdfrwt>
<pdfrwt beam="2">  1       -2 0.70284113E-02 0.53963627E+03</pdfrwt>
<totfact> 0.13903881E+03</totfact>
</mgrwt>
</event>
<event>
 6    1  0.2238133E-007  0.7939285E+03  0.7818608E-02  0.9568847E-01
         -2   -1    0    0    0  501 -0.00000000000E+00  0.00000000000E+00  0.10880364651E+03  0.10880364651E+03  0.00000000000E+00 0.  1.
          2   -1    0    0  501    0  0.00000000000E+00 -0.00000000000E+00 -0.14483027633E+04  0.14483027633E+04  0.00000000000E+00 0. -1.
         23    2    1    2    0    0 -0.11693505779E+03  0.33841290761E+03 -0.37683138020E+03  0.53001037007E+03  0.10349878982E+03 0.  0.
         13    1    3    3    0    0 -0.19116017804E+02  0.97204512958E+02 -0.46456022944E+02  0.10941801289E+03  0.00000000000E+00 0.  1.
        -13    1    3    3    0    0 -0.97819039986E+02  0.24120839465E+03 -0.33037535726E+03  0.42059235718E+03  0.00000000000E+00 0. -1.
         22    1    1    2    0    0  0.11693505779E+03 -0.33841290761E+03 -0.96266773663E+03  0.10270960398E+04  0.00000000000E+00 0. -1.
<mgrwt>
<rscale>  0 0.79392852E+03</rscale>
<asrwt>0</asrwt>
<pdfrwt beam="1">  1        2 0.22281580E+00 0.79392852E+03</pdfrwt>
<pdfrwt beam="2">  1       -2 0.16739023E-01 0.79392852E+03</pdfrwt>
<totfact> 0.39831972E+02</totfact>
</mgrwt>
</event>
<event>
 6    1  0.2238133E-007  0.5486067E+04  0.7818608E-02  0.7757609E-01
          2   -1    0    0  501    0  0.00000000000E+00  0.00000000000E+00  0.42047108830E+04  0.42047108830E+04  0.00000000000E+00 0. -1.
         -2   -1    0    0    0  501 -0.00000000000E+00 -0.00000000000E+00 -0.17894765427E+04  0.17894765427E+04  0.00000000000E+00 0.  1.
         23    2    1    2    0    0 -0.70447860692E+03 -0.10422745334E+04  0.38703245913E+04  0.40706713876E+04  0.91251265838E+02 0.  0.
         11    1    3    3    0    0 -0.32749810565E+03 -0.56587907349E+03  0.20125012032E+04  0.21160423502E+04  0.00000000000E+00 0. -1.
        -11    1    3    3    0    0 -0.37698050127E+03 -0.47639545987E+03  0.18578233881E+04  0.19546290374E+04  0.00000000000E+00 0.  1.
         22    1    1    2    0    0  0.70447860692E+03  0.10422745334E+04 -0.14550902510E+04  0.19235160382E+04  0.00000000000E+00 0.  1.
<mgrwt>
<rscale>  0 0.54860665E+04</rscale>
<asrwt>0</asrwt>
<pdfrwt beam="1">  1        2 0.64687859E+00 0.54860665E+04</pdfrwt>
<pdfrwt beam="2">  1       -2 0.27530408E+00 0.54860665E+04</pdfrwt>
<totfact> 0.72086634E-03</totfact>
</mgrwt>
</event>
<event>
 6    1  0.2238133E-007  0.3310049E+04  0.7818608E-02  0.8160343E-01
          2   -1    0    0  501    0  0.00000000000E+00  0.00000000000E+00  0.27408765601E+04  0.27408765601E+04  0.00000000000E+00 0. -1.
         -2   -1    0    0    0  501 -0.00000000000E+00 -0.00000000000E+00 -0.99935412945E+03  0.99935412945E+03  0.00000000000E+00 0.  1.
         23    2    1    2    0    0 -0.52727046490E+03 -0.53941703317E+03 -0.79148964567E+03  0.10972900815E+04  0.92761980011E+02 0.  0.
         11    1    3    3    0    0 -0.27726821128E+03 -0.21806368802E+03 -0.35853783455E+03  0.50296999098E+03  0.00000000000E+00 0.  1.
        -11    1    3    3    0    0 -0.25000225362E+03 -0.32135334514E+03 -0.43295181112E+03  0.59432009053E+03  0.00000000000E+00 0. -1.
         22    1    1    2    0    0  0.52727046490E+03  0.53941703317E+03  0.25330120763E+04  0.26429406080E+04  0.00000000000E+00 0. -1.
<mgrwt>
<rscale>  0 0.33100491E+04</rscale>
<asrwt>0</asrwt>
<pdfrwt beam="1">  1        2 0.42167331E+00 0.33100491E+04</pdfrwt>
<pdfrwt beam="2">  1       -2 0.15374679E+00 0.33100491E+04</pdfrwt>
<totfact> 0.58747556E-01</totfact>
</mgrwt>
</event>
<event>
 6    1  0.2238133E-007  0.4899774E+04  0.7818608E-02  0.7844157E-01
         -2   -1    0    0    0  501 -0.00000000000E+00  0.00000000000E+00  0.14674059767E+04  0.14674059767E+04  0.00000000000E+00 0.  1.
          2   -1    0    0  501    0  0.00000000000E+00 -0.00000000000E+00 -0.40901738458E+04  0.40901738458E+04  0.00000000000E+00 0. -1.
         23    2    1    2    0    0  0.87534161348E+03  0.67312371694E+03  0.11675986908E+04  0.16096440154E+04  0.91371084085E+02 0.  0.
         13    1    3    3    0    0  0.51956222969E+03  0.34350204806E+03  0.64329019076E+03  0.89541098780E+03  0.00000000000E+00 0. -1.
        -13    1    3    3    0    0  0.35577938379E+03  0.32962166888E+03  0.52430850005E+03  0.71423302762E+03  0.00000000000E+00 0.  1.
         22    1    1    2    0    0 -0.87534161348E+03 -0.67312371694E+03 -0.37903665599E+04  0.39479358071E+04  0.00000000000E+00 0. -1.
<mgrwt>
<rscale>  0 0.48997737E+04</rscale>
<asrwt>0</asrwt>
<pdfrwt beam="1">  1        2 0.62925752E+00 0.48997737E+04</pdfrwt>
<pdfrwt beam="2">  1       -2 0.22575477E+00 0.48997737E+04</pdfrwt>
<totfact> 0.19138357E-02</totfact>
</mgrwt>
</event>
<event>
 6    1  0.2238133E-007  0.2868946E+04  0.7818608E-02  0.8282177E-01
         -1   -1    0    0    0  501 -0.00000000000E+00  0.00000000000E+00  0.56754187748E+03  0.56754187748E+03  0.00000000000E+00 0.  1.
          1   -1    0    0  501    0  0.00000000000E+00 -0.00000000000E+00 -0.36256593160E+04  0.36256593160E+04  0.00000000000E+00 0. -1.
         23    2    1    2    0    0  0.89744062994E+03 -0.61022485158E+03 -0.28984377710E+04  0.30962637978E+04  0.90188356083E+02 0.  0.
         11    1    3    3    0    0  0.58097791056E+03 -0.35106223845E+03 -0.18766358224E+04  0.19956307369E+04  0.00000000000E+00 0.  1.
        -11    1    3    3    0    0  0.31646271938E+03 -0.25916261313E+03 -0.10218019486E+04  0.11006330610E+04  0.00000000000E+00 0. -1.
         22    1    1    2    0    0 -0.89744062994E+03  0.61022485158E+03 -0.15967966750E+03  0.10969373956E+04  0.00000000000E+00 0.  1.
<mgrwt>
<rscale>  0 0.28689465E+04</rscale>
<asrwt>0</asrwt>
<pdfrwt beam="1">  1        1 0.55779373E+00 0.28689465E+04</pdfrwt>
<pdfrwt beam="2">  1       -1 0.87314136E-01 0.28689465E+04</pdfrwt>
<totfact> 0.22031448E-01</totfact>
</mgrwt>
</event>
<event>
 6    1  0.2238133E-007  0.5091521E+04  0.7818608E-02  0.7814542E-01
         -2   -1    0    0    0  501 -0.00000000000E+00  0.00000000000E+00  0.48929843513E+04  0.48929843513E+04  0.00000000000E+00 0.  1.
          2   -1    0    0  501    0  0.00000000000E+00 -0.00000000000E+00 -0.13245283153E+04  0.13245283153E+04  0.00000000000E+00 0. -1.
         23    2    1    2    0    0 -0.22421128618E+04  0.89440095185E+03  0.27691113789E+04  0.36746845111E+04  0.91133308755E+02 0.  0.
         11    1    3    3    0    0 -0.13769406232E+04  0.57155948751E+03  0.17691592259E+04  0.23135622088E+04  0.00000000000E+00 0.  1.
        -11    1    3    3    0    0 -0.86517223858E+03  0.32284146434E+03  0.99995215301E+03  0.13611223023E+04  0.00000000000E+00 0. -1.
         22    1    1    2    0    0  0.22421128618E+04 -0.89440095185E+03  0.79934465708E+03  0.25428281555E+04  0.00000000000E+00 0.  1.
<mgrwt>
<rscale>  0 0.50915209E+04</rscale>
<asrwt>0</asrwt>
<pdfrwt beam="1">  1        2 0.20377359E+00 0.50915209E+04</pdfrwt>
<pdfrwt beam="2">  1       -2 0.75276682E+00 0.50915209E+04</pdfrwt>
<totfact> 0.16202385E-03</totfact>
</mgrwt>
</event>
<event>
 6    1  0.2238133E-007  0.6247326E+03  0.7818608E-02  0.9855382E-01
          2   -1    0    0  501    0  0.00000000000E+00  0.00000000000E+00  0.23706400900E+04  0.23706400900E+04  0.00000000000E+00 0. -1.
         -2   -1    0    0    0  501 -0.00000000000E+00 -0.00000000000E+00 -0.41158797865E+02  0.41158797865E+02  0.00000000000E+00 0.  1.
         23    2    1    2    0    0 -0.10221863945E+02  0.21104750133E+03  0.20413801488E+04  0.20545205606E+04  0.95792942454E+02 0.  0.
         13    1    3    3    0    0  0.10172754864E+02  0.91313832054E+02  0.50068529507E+03  0.50904564193E+03  0.00000000000E+00 0.  1.
        -13    1    3    3    0    0 -0.20394618809E+02  0.11973366928E+03  0.15406948537E+04  0.15454749187E+04  0.00000000000E+00 0. -1.
         22    1    1    2    0    0  0.10221863945E+02 -0.21104750133E+03  0.28810114334E+03  0.35727832723E+03  0.00000000000E+00 0.  1.
<mgrwt>
<rscale>  0 0.62473257E+03</rscale>
<asrwt>0</asrwt>
<pdfrwt beam="1">  1        2 0.36471375E+00 0.62473257E+03</pdfrwt>
<pdfrwt beam="2">  1       -2 0.63321246E-02 0.62473257E+03</pdfrwt>
<totfact> 0.61560819E+02</totfact>
</mgrwt>
</event>
<event>
 6    1  0.2238133E-007  0.3068947E+04  0.7818608E-02  0.8224312E-01
         -2   -1    0    0    0  501 -0.00000000000E+00  0.00000000000E+00  0.22583195317E+04  0.22583195317E+04  0.00000000000E+00 0.  1.
          2   -1    0    0  501    0  0.00000000000E+00 -0.00000000000E+00 -0.10426379637E+04  0.10426379637E+04  0.00000000000E+00 0. -1.
         23    2    1    2    0    0 -0.19426065448E+01  0.11245545815E+04  0.17291654658E+04  0.20647162189E+04  0.91722820507E+02 0.  0.
         11    1    3    3    0    0  0.19561746043E+02  0.16105446070E+03  0.29816599978E+03  0.33944685098E+03  0.00000000000E+00 0. -1.
        -11    1    3    3    0    0 -0.21504352588E+02  0.96350012082E+03  0.14309994660E+04  0.17252693679E+04  0.00000000000E+00 0.  1.
         22    1    1    2    0    0  0.19426065448E+01 -0.11245545815E+04 -0.51348389778E+03  0.12362412765E+04  0.00000000000E+00 0. -1.
<mgrwt>
<rscale>  0 0.30689475E+04</rscale>
<asrwt>0</asrwt>
<pdfrwt beam="1">  1        2 0.16040584E+00 0.30689475E+04</pdfrwt>
<pdfrwt beam="2">  1       -2 0.34743377E+00 0.30689475E+04</pdfrwt>
<totfact> 0.32511740E-01</totfact>
</mgrwt>
</event>
<event>
 6    1  0.2238133E-007  0.5909880E+04  0.7818608E-02  0.7701677E-01
         -2   -1    0    0    0  501 -0.00000000000E+00  0.00000000000E+00  0.22023334977E+04  0.22023334977E+04  0.00000000000E+00 0.  1.
          2   -1    0    0  501    0  0.00000000000E+00 -0.00000000000E+00 -0.39647358404E+04  0.39647358404E+04  0.00000000000E+00 0. -1.
         23    2    1    2    0    0  0.20023008527E+03  0.94551949187E+03 -0.37945247033E+04  0.39168203553E+04  0.94682494558E+02 0.  0.
         13    1    3    3    0    0  0.13388083912E+03  0.65974060992E+03 -0.28100347198E+04  0.28895461370E+04  0.00000000000E+00 0. -1.
        -13    1    3    3    0    0  0.66349246147E+02  0.28577888195E+03 -0.98448998354E+03  0.10272742183E+04  0.00000000000E+00 0.  1.
         22    1    1    2    0    0 -0.20023008527E+03 -0.94551949187E+03  0.20321223606E+04  0.22502489829E+04  0.00000000000E+00 0.  1.
<mgrwt>
<rscale>  0 0.59098800E+04</rscale>
<asrwt>0</asrwt>
<pdfrwt beam="1">  1        2 0.60995935E+00 0.59098800E+04</pdfrwt>
<pdfrwt beam="2">  1       -2 0.33882054E+00 0.59098800E+04</pdfrwt>
<totfact> 0.45051038E-03</totfact>
</mgrwt>
</event>
<event>
 6    1  0.2238133E-007  0.3192498E+04  0.7818608E-02  0.8190801E-01
          2   -1    0    0  501    0  0.00000000000E+00  0.00000000000E+00  0.10002783337E+04  0.10002783337E+04  0.00000000000E+00 0. -1.
         -2   -1    0    0    0  501 -0.00000000000E+00 -0.00000000000E+00 -0.25473019074E+04  0.25473019074E+04  0.00000000000E+00 0.  1.
         23    2    1    2    0    0  0.50710377412E+03  0.17838902893E+03 -0.24427541792E+04  0.25029223062E+04  0.92710340683E+02 0.  0.
         13    1    3    3    0    0  0.35038212554E+03  0.13459782964E+03 -0.15013630907E+04  0.15475707867E+04  0.00000000000E+00 0.  1.
        -13    1    3    3    0    0  0.15672164858E+03  0.43791199290E+02 -0.94139108852E+03  0.95535151950E+03  0.00000000000E+00 0. -1.
         22    1    1    2    0    0 -0.50710377412E+03 -0.17838902893E+03  0.89573060548E+03  0.10446579349E+04  0.00000000000E+00 0. -1.
<mgrwt>
<rscale>  0 0.31924980E+04</rscale>
<asrwt>0</asrwt>
<pdfrwt beam="1">  1        2 0.15388897E+00 0.31924980E+04</pdfrwt>
<pdfrwt beam="2">  1       -2 0.39189260E+00 0.31924980E+04</pdfrwt>
<totfact> 0.17772174E-01</totfact>
</mgrwt>
</event>
<event>
 6    1  0.2238133E-007  0.5318297E+04  0.7818608E-02  0.7781199E-01
          2   -1    0    0  501    0  0.00000000000E+00  0.00000000000E+00  0.29558134679E+04  0.29558134679E+04  0.00000000000E+00 0. -1.
         -2   -1    0    0    0  501 -0.00000000000E+00 -0.00000000000E+00 -0.23922591809E+04  0.23922591809E+04  0.00000000000E+00 0.  1.
         23    2    1    2    0    0 -0.14363105903E+04 -0.19751899324E+04  0.13378620105E+04  0.27860586302E+04  0.88794991749E+02 0.  0.
         13    1    3    3    0    0 -0.72201494611E+03 -0.93875036490E+03  0.61332970278E+03  0.13336908016E+04  0.00000000000E+00 0. -1.
        -13    1    3    3    0    0 -0.71429564420E+03 -0.10364395676E+04  0.72453230774E+03  0.14523678286E+04  0.00000000000E+00 0.  1.
         22    1    1    2    0    0  0.14363105903E+04  0.19751899324E+04 -0.77430772354E+03  0.25620140187E+04  0.00000000000E+00 0.  1.
<mgrwt>
<rscale>  0 0.53182974E+04</rscale>
<asrwt>0</asrwt>
<pdfrwt beam="1">  1        2 0.45474053E+00 0.53182974E+04</pdfrwt>
<pdfrwt beam="2">  1       -2 0.36803988E+00 0.53182974E+04</pdfrwt>
<totfact> 0.15739040E-02</totfact>
</mgrwt>
</event>
<event>
 6    1  0.2238133E-007  0.5100205E+04  0.7818608E-02  0.7813233E-01
         -2   -1    0    0    0  501 -0.00000000000E+00  0.00000000000E+00  0.20994552151E+04  0.20994552151E+04  0.00000000000E+00 0.  1.
          2   -1    0    0  501    0  0.00000000000E+00 -0.00000000000E+00 -0.30974806683E+04  0.30974806683E+04  0.00000000000E+00 0. -1.
         23    2    1    2    0    0 -0.18002700854E+04 -0.14761286843E+04  0.55893928826E+03  0.23962096421E+04  0.97361430763E+02 0.  0.
         13    1    3    3    0    0 -0.20379087757E+03 -0.13117141134E+03  0.47418645357E+02  0.24695179461E+03  0.00000000000E+00 0.  1.
        -13    1    3    3    0    0 -0.15964792078E+04 -0.13449572729E+04  0.51152064290E+03  0.21492578475E+04  0.00000000000E+00 0. -1.
         22    1    1    2    0    0  0.18002700854E+04  0.14761286843E+04 -0.15569647415E+04  0.28007262413E+04  0.00000000000E+00 0. -1.
<mgrwt>
<rscale>  0 0.51002047E+04</rscale>
<asrwt>0</asrwt>
<pdfrwt beam="1">  1        2 0.47653549E+00 0.51002047E+04</pdfrwt>
<pdfrwt beam="2">  1       -2 0.32299311E+00 0.51002047E+04</pdfrwt>
<totfact> 0.25014323E-02</totfact>
</mgrwt>
</event>
<event>
 6    1  0.2238133E-007  0.3639144E+04  0.7818608E-02  0.8081584E-01
         -2   -1    0    0    0  501 -0.00000000000E+00  0.00000000000E+00  0.24537613725E+04  0.24537613725E+04  0.00000000000E+00 0.  1.
          2   -1    0    0  501    0  0.00000000000E+00 -0.00000000000E+00 -0.13492928934E+04  0.13492928934E+04  0.00000000000E+00 0. -1.
         23    2    1    2    0    0  0.51365187341E+03 -0.13564450707E+04 -0.59366644851E+03  0.15697957252E+04  0.89650932992E+02 0.  0.
         13    1    3    3    0    0  0.40067375462E+03 -0.94689205690E+03 -0.40867550095E+03  0.11064175026E+04  0.00000000000E+00 0. -1.
        -13    1    3    3    0    0  0.11297811879E+03 -0.40955301384E+03 -0.18499094756E+03  0.46337822257E+03  0.00000000000E+00 0.  1.
         22    1    1    2    0    0 -0.51365187341E+03  0.13564450707E+04  0.16981349276E+04  0.22332585406E+04  0.00000000000E+00 0.  1.
<mgrwt>
<rscale>  0 0.36391443E+04</rscale>
<asrwt>0</asrwt>
<pdfrwt beam="1">  1        2 0.20758352E+00 0.36391443E+04</pdfrwt>
<pdfrwt beam="2">  1       -2 0.37750175E+00 0.36391443E+04</pdfrwt>
<totfact> 0.13056531E-01</totfact>
</mgrwt>
</event>
<event>
 6    1  0.2238133E-007  0.2300804E+04  0.7818608E-02  0.8477604E-01
          2   -1    0    0  501    0  0.00000000000E+00  0.00000000000E+00  0.13016770831E+04  0.13016770831E+04  0.00000000000E+00 0. -1.
         -2   -1    0    0    0  501 -0.00000000000E+00 -0.00000000000E+00 -0.10167076243E+04  0.10167076243E+04  0.00000000000E+00 0.  1.
         23    2    1    2    0    0  0.31405428490E+03 -0.95317110246E+03  0.70548433406E+03  0.12302679835E+04  0.93198289991E+02 0.  0.
         13    1    3    3    0    0  0.19584984444E+02 -0.16544765243E+03  0.10515074534E+03  0.19701060011E+03  0.00000000000E+00 0.  1.
        -13    1    3    3    0    0  0.29446930046E+03 -0.78772345003E+03  0.60033358872E+03  0.10332573834E+04  0.00000000000E+00 0. -1.
         22    1    1    2    0    0 -0.31405428490E+03  0.95317110246E+03 -0.42051487530E+03  0.10881167239E+04  0.00000000000E+00 0.  1.
<mgrwt>
<rscale>  0 0.23008042E+04</rscale>
<asrwt>0</asrwt>
<pdfrwt beam="1">  1        2 0.20025801E+00 0.23008042E+04</pdfrwt>
<pdfrwt beam="2">  1       -2 0.15641656E+00 0.23008042E+04</pdfrwt>
<totfact> 0.40058596E+00</totfact>
</mgrwt>
</event>
<event>
 6    1  0.2238133E-007  0.1804211E+04  0.7818608E-02  0.8704063E-01
          2   -1    0    0  501    0  0.00000000000E+00  0.00000000000E+00  0.17291640315E+04  0.17291640315E+04  0.00000000000E+00 0. -1.
         -2   -1    0    0    0  501 -0.00000000000E+00 -0.00000000000E+00 -0.47062897776E+03  0.47062897776E+03  0.00000000000E+00 0.  1.
         23    2    1    2    0    0  0.13285110415E+03  0.63641390769E+03 -0.12760526333E+03  0.66876163912E+03  0.91032680703E+02 0.  0.
         11    1    3    3    0    0  0.36868993057E+02  0.37668542976E+03 -0.54603140193E+02  0.38240389454E+03  0.00000000000E+00 0.  1.
        -11    1    3    3    0    0  0.95982111096E+02  0.25972847793E+03 -0.73002123134E+02  0.28635774458E+03  0.00000000000E+00 0. -1.
         22    1    1    2    0    0 -0.13285110415E+03 -0.63641390769E+03  0.13861403171E+04  0.15310313701E+04  0.00000000000E+00 0. -1.
<mgrwt>
<rscale>  0 0.18042114E+04</rscale>
<asrwt>0</asrwt>
<pdfrwt beam="1">  1        2 0.26602523E+00 0.18042114E+04</pdfrwt>
<pdfrwt beam="2">  1       -2 0.72404459E-01 0.18042114E+04</pdfrwt>
<totfact> 0.15388309E+01</totfact>
</mgrwt>
</event>
<event>
 6    1  0.2238133E-007  0.1901781E+04  0.7818608E-02  0.8653970E-01
          2   -1    0    0  501    0  0.00000000000E+00  0.00000000000E+00  0.10132033589E+04  0.10132033589E+04  0.00000000000E+00 0. -1.
         -2   -1    0    0    0  501 -0.00000000000E+00 -0.00000000000E+00 -0.89241031917E+03  0.89241031917E+03  0.00000000000E+00 0.  1.
         23    2    1    2    0    0  0.79441618699E+03  0.51059214230E+03  0.15230223615E+03  0.96073577936E+03  0.89531294391E+02 0.  0.
         13    1    3    3    0    0  0.67411129882E+03  0.42524554731E+03  0.16039369933E+03  0.81301042889E+03  0.00000000000E+00 0.  1.
        -13    1    3    3    0    0  0.12030488818E+03  0.85346594990E+02 -0.80914631824E+01  0.14772535047E+03  0.00000000000E+00 0. -1.
         22    1    1    2    0    0 -0.79441618699E+03 -0.51059214230E+03 -0.31509196462E+02  0.94487789867E+03  0.00000000000E+00 0. -1.
<mgrwt>
<rscale>  0 0.19017814E+04</rscale>
<asrwt>0</asrwt>
<pdfrwt beam="1">  1        2 0.15587744E+00 0.19017814E+04</pdfrwt>
<pdfrwt beam="2">  1       -2 0.13729390E+00 0.19017814E+04</pdfrwt>
<totfact> 0.87391147E+00</totfact>
</mgrwt>
</event>
<event>
 6    1  0.2238133E-007  0.1503543E+04  0.7818608E-02  0.8882100E-01
         -2   -1    0    0    0  501 -0.00000000000E+00  0.00000000000E+00  0.11611070565E+04  0.11611070565E+04  0.00000000000E+00 0.  1.
          2   -1    0    0  501    0  0.00000000000E+00 -0.00000000000E+00 -0.48674286794E+03  0.48674286794E+03  0.00000000000E+00 0. -1.
         23    2    1    2    0    0  0.33529474546E+03  0.41971092706E+03 -0.23357525968E+03  0.59289311476E+03  0.91569727349E+02 0.  0.
         11    1    3    3    0    0  0.93441977406E+02  0.60204163170E+02 -0.58057738049E+02  0.12540592232E+03  0.00000000000E+00 0.  1.
        -11    1    3    3    0    0  0.24185276805E+03  0.35950676389E+03 -0.17551752163E+03  0.46748719244E+03  0.00000000000E+00 0. -1.
         22    1    1    2    0    0 -0.33529474546E+03 -0.41971092706E+03  0.90793944822E+03  0.10549568097E+04  0.00000000000E+00 0.  1.
<mgrwt>
<rscale>  0 0.15035433E+04</rscale>
<asrwt>0</asrwt>
<pdfrwt beam="1">  1        2 0.74883519E-01 0.15035433E+04</pdfrwt>
<pdfrwt beam="2">  1       -2 0.17863185E+00 0.15035433E+04</pdfrwt>
<totfact> 0.11361022E+01</totfact>
</mgrwt>
</event>
<event>
 6    1  0.2238133E-007  0.3640984E+04  0.7818608E-02  0.8081168E-01
         -2   -1    0    0    0  501 -0.00000000000E+00  0.00000000000E+00  0.11187389416E+04  0.11187389416E+04  0.00000000000E+00 0.  1.
          2   -1    0    0  501    0  0.00000000000E+00 -0.00000000000E+00 -0.29624350998E+04  0.29624350998E+04  0.00000000000E+00 0. -1.
         23    2    1    2    0    0 -0.72891230839E+02  0.77492378243E+03  0.92105363408E+03  0.12089516589E+04  0.86048338799E+02 0.  0.
         13    1    3    3    0    0 -0.55413651377E+02  0.20277429171E+03  0.22926634926E+03  0.31104846092E+03  0.00000000000E+00 0. -1.
        -13    1    3    3    0    0 -0.17477579462E+02  0.57214949072E+03  0.69178728482E+03  0.89790319798E+03  0.00000000000E+00 0.  1.
         22    1    1    2    0    0  0.72891230839E+02 -0.77492378243E+03 -0.27647497923E+04  0.28722223824E+04  0.00000000000E+00 0. -1.
<mgrwt>
<rscale>  0 0.36409842E+04</rscale>
<asrwt>0</asrwt>
<pdfrwt beam="1">  1        2 0.45575923E+00 0.36409842E+04</pdfrwt>
<pdfrwt beam="2">  1       -2 0.17211369E+00 0.36409842E+04</pdfrwt>
<totfact> 0.30720439E-01</totfact>
</mgrwt>
</event>
<event>
 6    1  0.2238133E-007  0.1161504E+04  0.7818608E-02  0.9147235E-01
          2   -1    0    0  501    0  0.00000000000E+00  0.00000000000E+00  0.15609059817E+04  0.15609059817E+04  0.00000000000E+00 0. -1.
         -2   -1    0    0    0  501 -0.00000000000E+00 -0.00000000000E+00 -0.21607524863E+03  0.21607524863E+03  0.00000000000E+00 0.  1.
         23    2    1    2    0    0  0.13568931664E+03  0.54959444196E+03  0.85042308044E+03  0.10253798943E+04  0.87857103580E+02 0.  0.
         13    1    3    3    0    0  0.83324480797E+02  0.42871747752E+03  0.59616431383E+03  0.73902201166E+03  0.00000000000E+00 0.  1.
        -13    1    3    3    0    0  0.52364835843E+02  0.12087696444E+03  0.25425876661E+03  0.28635788266E+03  0.00000000000E+00 0. -1.
         22    1    1    2    0    0 -0.13568931664E+03 -0.54959444196E+03  0.49440765259E+03  0.75160133596E+03  0.00000000000E+00 0. -1.
<mgrwt>
<rscale>  0 0.11615045E+04</rscale>
<asrwt>0</asrwt>
<pdfrwt beam="1">  1        2 0.24013937E+00 0.11615045E+04</pdfrwt>
<pdfrwt beam="2">  1       -2 0.33242347E-01 0.11615045E+04</pdfrwt>
<totfact> 0.98009013E+01</totfact>
</mgrwt>
</event>
<event>
 6    1  0.2238133E-007  0.1779517E+04  0.7818608E-02  0.8717269E-01
         -2   -1    0    0    0  501 -0.00000000000E+00  0.00000000000E+00  0.95881715356E+03  0.95881715356E+03  0.00000000000E+00 0.  1.
          2   -1    0    0  501    0  0.00000000000E+00 -0.00000000000E+00 -0.82567334138E+03  0.82567334138E+03  0.00000000000E+00 0. -1.
         23    2    1    2    0    0 -0.39973717174E+03  0.55626682679E+03 -0.49923410778E+03  0.85222206647E+03  0.88459974751E+02 0.  0.
         11    1    3    3    0    0 -0.11758440595E+03  0.23508585603E+03 -0.17752308132E+03  0.31718432595E+03  0.00000000000E+00 0.  1.
        -11    1    3    3    0    0 -0.28215276580E+03  0.32118097076E+03 -0.32171102647E+03  0.53503774052E+03  0.00000000000E+00 0. -1.
         22    1    1    2    0    0  0.39973717174E+03 -0.55626682679E+03  0.63237791996E+03  0.93226842847E+03  0.00000000000E+00 0.  1.
<mgrwt>
<rscale>  0 0.17795165E+04</rscale>
<asrwt>0</asrwt>
<pdfrwt beam="1">  1        2 0.12702667E+00 0.17795165E+04</pdfrwt>
<pdfrwt beam="2">  1       -2 0.14751033E+00 0.17795165E+04</pdfrwt>
<totfact> 0.97748527E+00</totfact>
</mgrwt>
</event>
<event>
 6    1  0.2238133E-007  0.7451130E+03  0.7818608E-02  0.9643049E-01
         -2   -1    0    0    0  501 -0.00000000000E+00  0.00000000000E+00  0.51882899750E+03  0.51882899750E+03  0.00000000000E+00 0.  1.
          2   -1    0    0  501    0  0.00000000000E+00 -0.00000000000E+00 -0.26752233272E+03  0.26752233272E+03  0.00000000000E+00 0. -1.
         23    2    1    2    0    0  0.26760544994E+03 -0.15890840956E+03  0.33349893866E+03  0.46445052352E+03  0.87339494190E+02 0.  0.
         11    1    3    3    0    0  0.14433472497E+03 -0.11866460827E+03  0.14924332146E+03  0.23913881134E+03  0.00000000000E+00 0. -1.
        -11    1    3    3    0    0  0.12327072497E+03 -0.40243801292E+02  0.18425561720E+03  0.22531171218E+03  0.00000000000E+00 0.  1.
         22    1    1    2    0    0 -0.26760544994E+03  0.15890840956E+03 -0.82192273881E+02  0.32190080670E+03  0.00000000000E+00 0. -1.
<mgrwt>
<rscale>  0 0.74511299E+03</rscale>
<asrwt>0</asrwt>
<pdfrwt beam="1">  1        2 0.41157282E-01 0.74511299E+03</pdfrwt>
<pdfrwt beam="2">  1       -2 0.79819846E-01 0.74511299E+03</pdfrwt>
<totfact> 0.17490601E+02</totfact>
</mgrwt>
</event>
<event>
 6    1  0.2238133E-007  0.1973262E+04  0.7818608E-02  0.8619225E-01
         -2   -1    0    0    0  501 -0.00000000000E+00  0.00000000000E+00  0.85797014967E+03  0.85797014967E+03  0.00000000000E+00 0.  1.
          2   -1    0    0  501    0  0.00000000000E+00 -0.00000000000E+00 -0.11345855432E+04  0.11345855432E+04  0.00000000000E+00 0. -1.
         23    2    1    2    0    0  0.23020086534E+03 -0.95723603562E+03 -0.14883301289E+03  0.99977092107E+03  0.89985346587E+02 0.  0.
         13    1    3    3    0    0  0.80851307916E+02 -0.51140117854E+03 -0.96682089837E+02  0.52670250227E+03  0.00000000000E+00 0. -1.
        -13    1    3    3    0    0  0.14934955742E+03 -0.44583485707E+03 -0.52150923054E+02  0.47306841879E+03  0.00000000000E+00 0.  1.
         22    1    1    2    0    0 -0.23020086534E+03  0.95723603562E+03 -0.12778238062E+03  0.99278477178E+03  0.00000000000E+00 0.  1.
<mgrwt>
<rscale>  0 0.19732618E+04</rscale>
<asrwt>0</asrwt>
<pdfrwt beam="1">  1        2 0.17455162E+00 0.19732618E+04</pdfrwt>
<pdfrwt beam="2">  1       -2 0.13199541E+00 0.19732618E+04</pdfrwt>
<totfact> 0.80714994E+00</totfact>
</mgrwt>
</event>
<event>
 6    1  0.2238133E-007  0.1941867E+04  0.7818608E-02  0.8634293E-01
          1   -1    0    0  501    0  0.00000000000E+00  0.00000000000E+00  0.10605662671E+04  0.10605662671E+04  0.00000000000E+00 0. -1.
         -1   -1    0    0    0  501 -0.00000000000E+00 -0.00000000000E+00 -0.88887590359E+03  0.88887590359E+03  0.00000000000E+00 0.  1.
         23    2    1    2    0    0  0.85241543027E+03 -0.86122287231E+02 -0.36799228128E+03  0.93687786598E+03  0.91064277075E+02 0.  0.
         13    1    3    3    0    0  0.56031787779E+03 -0.17143169102E+02 -0.25961176842E+03  0.61777688749E+03  0.00000000000E+00 0.  1.
        -13    1    3    3    0    0  0.29209755249E+03 -0.68979118129E+02 -0.10838051285E+03  0.31910097849E+03  0.00000000000E+00 0. -1.
         22    1    1    2    0    0 -0.85241543027E+03  0.86122287231E+02  0.53968264483E+03  0.10125643048E+04  0.00000000000E+00 0. -1.
<mgrwt>
<rscale>  0 0.19418669E+04</rscale>
<asrwt>0</asrwt>
<pdfrwt beam="1">  1        1 0.16316404E+00 0.19418669E+04</pdfrwt>
<pdfrwt beam="2">  1       -1 0.13675014E+00 0.19418669E+04</pdfrwt>
<totfact> 0.56438379E+00</totfact>
</mgrwt>
</event>
<event>
 6    1  0.2238133E-007  0.4349236E+04  0.7818608E-02  0.7937576E-01
          2   -1    0    0  501    0  0.00000000000E+00  0.00000000000E+00  0.29181543313E+04  0.29181543313E+04  0.00000000000E+00 0. -1.
         -2   -1    0    0    0  501 -0.00000000000E+00 -0.00000000000E+00 -0.16205323132E+04  0.16205323132E+04  0.00000000000E+00 0.  1.
         23    2    1    2    0    0  0.18473951173E+04 -0.93807946831E+03  0.13351069101E+04  0.24664253373E+04  0.88778794837E+02 0.  0.
         11    1    3    3    0    0  0.13295570325E+04 -0.68020347040E+03  0.91473681702E+03  0.17513258144E+04  0.00000000000E+00 0. -1.
        -11    1    3    3    0    0  0.51783808482E+03 -0.25787599791E+03  0.42037009311E+03  0.71509952284E+03  0.00000000000E+00 0.  1.
         22    1    1    2    0    0 -0.18473951173E+04  0.93807946831E+03 -0.37484891962E+02  0.20722613073E+04  0.00000000000E+00 0.  1.
<mgrwt>
<rscale>  0 0.43492360E+04</rscale>
<asrwt>0</asrwt>
<pdfrwt beam="1">  1        2 0.44894682E+00 0.43492360E+04</pdfrwt>
<pdfrwt beam="2">  1       -2 0.24931266E+00 0.43492360E+04</pdfrwt>
<totfact> 0.97405847E-02</totfact>
</mgrwt>
</event>
<event>
 6    1  0.2238133E-007  0.1711196E+04  0.7818608E-02  0.8755004E-01
          2   -1    0    0  501    0  0.00000000000E+00  0.00000000000E+00  0.12735108059E+04  0.12735108059E+04  0.00000000000E+00 0. -1.
         -2   -1    0    0    0  501 -0.00000000000E+00 -0.00000000000E+00 -0.57482678580E+03  0.57482678580E+03  0.00000000000E+00 0.  1.
         23    2    1    2    0    0  0.58197955892E+03 -0.37067056179E+02 -0.32218921202E+03  0.67264361378E+03  0.92570887202E+02 0.  0.
         11    1    3    3    0    0  0.50181288882E+03 -0.49559308582E+02 -0.30622349178E+03  0.58995349594E+03  0.00000000000E+00 0.  1.
        -11    1    3    3    0    0  0.80166670098E+02  0.12492252404E+02 -0.15965720238E+02  0.82690117835E+02  0.00000000000E+00 0. -1.
         22    1    1    2    0    0 -0.58197955892E+03  0.37067056179E+02  0.10208732321E+04  0.11756939779E+04  0.00000000000E+00 0. -1.
<mgrwt>
<rscale>  0 0.17111962E+04</rscale>
<asrwt>0</asrwt>
<pdfrwt beam="1">  1        2 0.19592474E+00 0.17111962E+04</pdfrwt>
<pdfrwt beam="2">  1       -2 0.88434890E-01 0.17111962E+04</pdfrwt>
<totfact> 0.17926154E+01</totfact>
</mgrwt>
</event>
<event>
 6    1  0.2238133E-007  0.2423703E+04  0.7818608E-02  0.8430683E-01
         -2   -1    0    0    0  501 -0.00000000000E+00  0.00000000000E+00  0.68095488035E+03  0.68095488035E+03  0.00000000000E+00 0.  1.
          2   -1    0    0  501    0  0.00000000000E+00 -0.00000000000E+00 -0.21566532357E+04  0.21566532357E+04  0.00000000000E+00 0. -1.
         23    2    1    2    0    0  0.10900845835E+04  0.38184850332E+03 -0.11616514748E+04  0.16406460774E+04  0.90513666144E+02 0.  0.
         11    1    3    3    0    0  0.41738755415E+03  0.16568588225E+03 -0.50885945172E+03  0.67867674451E+03  0.00000000000E+00 0.  1.
        -11    1    3    3    0    0  0.67269702939E+03  0.21616262107E+03 -0.65279202305E+03  0.96196933291E+03  0.00000000000E+00 0. -1.
         22    1    1    2    0    0 -0.10900845835E+04 -0.38184850332E+03 -0.31404688061E+03  0.11969620387E+04  0.00000000000E+00 0. -1.
<mgrwt>
<rscale>  0 0.24237026E+04</rscale>
<asrwt>0</asrwt>
<pdfrwt beam="1">  1        2 0.33179280E+00 0.24237026E+04</pdfrwt>
<pdfrwt beam="2">  1       -2 0.10476229E+00 0.24237026E+04</pdfrwt>
<totfact> 0.36225653E+00</totfact>
</mgrwt>
</event>
<event>
 6    1  0.2238133E-007  0.2642916E+04  0.7818608E-02  0.8353768E-01
          2   -1    0    0  501    0  0.00000000000E+00  0.00000000000E+00  0.25713870566E+04  0.25713870566E+04  0.00000000000E+00 0. -1.
         -2   -1    0    0    0  501 -0.00000000000E+00 -0.00000000000E+00 -0.67910861155E+03  0.67910861155E+03  0.00000000000E+00 0.  1.
         23    2    1    2    0    0  0.96923365032E+03 -0.56485888743E+03  0.18024523727E+04  0.21250854519E+04  0.93135333452E+02 0.  0.
         13    1    3    3    0    0  0.61688796577E+03 -0.36597238705E+03  0.10669179478E+04  0.12856128724E+04  0.00000000000E+00 0.  1.
        -13    1    3    3    0    0  0.35234568455E+03 -0.19888650038E+03  0.73553442497E+03  0.83947257953E+03  0.00000000000E+00 0. -1.
         22    1    1    2    0    0 -0.96923365032E+03  0.56485888743E+03  0.89826072367E+02  0.11254102163E+04  0.00000000000E+00 0.  1.
<mgrwt>
<rscale>  0 0.26429159E+04</rscale>
<asrwt>0</asrwt>
<pdfrwt beam="1">  1        2 0.39559800E+00 0.26429159E+04</pdfrwt>
<pdfrwt beam="2">  1       -2 0.10447825E+00 0.26429159E+04</pdfrwt>
<totfact> 0.20736237E+00</totfact>
</mgrwt>
</event>
<event>
 6    1  0.2238133E-007  0.1723132E+04  0.7818608E-02  0.8748280E-01
          2   -1    0    0  501    0  0.00000000000E+00  0.00000000000E+00  0.18695926132E+04  0.18695926132E+04  0.00000000000E+00 0. -1.
         -2   -1    0    0    0  501 -0.00000000000E+00 -0.00000000000E+00 -0.39703598735E+03  0.39703598735E+03  0.00000000000E+00 0.  1.
         23    2    1    2    0    0 -0.68997952569E+03  0.14907443643E+03  0.13826780925E+04  0.15550296375E+04  0.89574172259E+02 0.  0.
         13    1    3    3    0    0 -0.29281338330E+03  0.10862104741E+03  0.59999698980E+03  0.67641303739E+03  0.00000000000E+00 0.  1.
        -13    1    3    3    0    0 -0.39716614238E+03  0.40453389024E+02  0.78268110273E+03  0.87861660006E+03  0.00000000000E+00 0. -1.
         22    1    1    2    0    0  0.68997952569E+03 -0.14907443643E+03  0.89878533281E+02  0.71159896305E+03  0.00000000000E+00 0.  1.
<mgrwt>
<rscale>  0 0.17231315E+04</rscale>
<asrwt>0</asrwt>
<pdfrwt beam="1">  1        2 0.28762963E+00 0.17231315E+04</pdfrwt>
<pdfrwt beam="2">  1       -2 0.61082461E-01 0.17231315E+04</pdfrwt>
<totfact> 0.18696483E+01</totfact>
</mgrwt>
</event>
<event>
 6    1  0.2238133E-007  0.1925607E+04  0.7818608E-02  0.8642214E-01
          2   -1    0    0  501    0  0.00000000000E+00  0.00000000000E+00  0.21776467749E+04  0.21776467749E+04  0.00000000000E+00 0. -1.
         -2   -1    0    0    0  501 -0.00000000000E+00 -0.00000000000E+00 -0.42568461847E+03  0.42568461847E+03  0.00000000000E+00 0.  1.
         23    2    1    2    0    0 -0.64287370422E+02  0.71256839069E+03  0.11222831422E+02  0.72129526857E+03  0.90853371476E+02 0.  0.
         11    1    3    3    0    0 -0.77002267720E-01  0.10376726037E+03 -0.29160724083E+02  0.10778681776E+03  0.00000000000E+00 0. -1.
        -11    1    3    3    0    0 -0.64210368154E+02  0.60880113032E+03  0.40383555505E+02  0.61350845081E+03  0.00000000000E+00 0.  1.
         22    1    1    2    0    0  0.64287370422E+02 -0.71256839069E+03  0.17407393250E+04  0.18820361248E+04  0.00000000000E+00 0. -1.
<mgrwt>
<rscale>  0 0.19256072E+04</rscale>
<asrwt>0</asrwt>
<pdfrwt beam="1">  1        2 0.33502257E+00 0.19256072E+04</pdfrwt>
<pdfrwt beam="2">  1       -2 0.65489943E-01 0.19256072E+04</pdfrwt>
<totfact> 0.10672903E+01</totfact>
</mgrwt>
</event>
<event>
 6    1  0.2238133E-007  0.2085240E+04  0.7818608E-02  0.8567773E-01
         -2   -1    0    0    0  501 -0.00000000000E+00  0.00000000000E+00  0.71153378729E+03  0.71153378729E+03  0.00000000000E+00 0.  1.
          2   -1    0    0  501    0  0.00000000000E+00 -0.00000000000E+00 -0.15277654189E+04  0.15277654189E+04  0.00000000000E+00 0. -1.
         23    2    1    2    0    0  0.53533764671E+03  0.59994496673E+02  0.54719193593E+03  0.77331504524E+03  0.91713733133E+02 0.  0.
         11    1    3    3    0    0  0.25244080902E+03  0.17236686088E+02  0.32013753513E+03  0.40805821497E+03  0.00000000000E+00 0. -1.
        -11    1    3    3    0    0  0.28289683769E+03  0.42757810585E+02  0.22705440079E+03  0.36525683027E+03  0.00000000000E+00 0.  1.
         22    1    1    2    0    0 -0.53533764671E+03 -0.59994496673E+02 -0.13634235675E+04  0.14659841609E+04  0.00000000000E+00 0. -1.
<mgrwt>
<rscale>  0 0.20852402E+04</rscale>
<asrwt>0</asrwt>
<pdfrwt beam="1">  1        2 0.23504083E+00 0.20852402E+04</pdfrwt>
<pdfrwt beam="2">  1       -2 0.10946674E+00 0.20852402E+04</pdfrwt>
<totfact> 0.75112384E+00</totfact>
</mgrwt>
</event>
<event>
 6    1  0.2238133E-007  0.1813884E+04  0.7818608E-02  0.8698951E-01
          2   -1    0    0  501    0  0.00000000000E+00  0.00000000000E+00  0.14437631942E+04  0.14437631942E+04  0.00000000000E+00 0. -1.
         -2   -1    0    0    0  501 -0.00000000000E+00 -0.00000000000E+00 -0.56972230146E+03  0.56972230146E+03  0.00000000000E+00 0.  1.
         23    2    1    2    0    0 -0.44621660376E+03 -0.23765205016E+03 -0.39391766500E+03  0.64845558441E+03  0.98669973846E+02 0.  0.
         11    1    3    3    0    0 -0.21135915246E+03 -0.13257159774E+03 -0.13603798367E+03  0.28417292773E+03  0.00000000000E+00 0.  1.
        -11    1    3    3    0    0 -0.23485745130E+03 -0.10508045242E+03 -0.25787968134E+03  0.36428265668E+03  0.00000000000E+00 0. -1.
         22    1    1    2    0    0  0.44621660376E+03  0.23765205016E+03  0.12679585577E+04  0.13650299112E+04  0.00000000000E+00 0. -1.
<mgrwt>
<rscale>  0 0.18138843E+04</rscale>
<asrwt>0</asrwt>
<pdfrwt beam="1">  1        2 0.22211741E+00 0.18138843E+04</pdfrwt>
<pdfrwt beam="2">  1       -2 0.87649586E-01 0.18138843E+04</pdfrwt>
<totfact> 0.14470998E+01</totfact>
</mgrwt>
</event>
<event>
 6    1  0.2238133E-007  0.7745153E+04  0.7818608E-02  0.7505116E-01
         -2   -1    0    0    0  501 -0.00000000000E+00  0.00000000000E+00  0.36632474137E+04  0.36632474137E+04  0.00000000000E+00 0.  1.
          2   -1    0    0  501    0  0.00000000000E+00 -0.00000000000E+00 -0.40938670259E+04  0.40938670259E+04  0.00000000000E+00 0. -1.
         23    2    1    2    0    0  0.35474802460E+04  0.13944938383E+04 -0.89726679029E+03  0.39169336171E+04  0.89733534402E+02 0.  0.
         11    1    3    3    0    0  0.19238716694E+04  0.71750670125E+03 -0.51043048404E+03  0.21158065473E+04  0.00000000000E+00 0.  1.
        -11    1    3    3    0    0  0.16236085766E+04  0.67698713709E+03 -0.38683630626E+03  0.18011270698E+04  0.00000000000E+00 0. -1.
         22    1    1    2    0    0 -0.35474802460E+04 -0.13944938383E+04  0.46664717803E+03  0.38401808225E+04  0.00000000000E+00 0.  1.
<mgrwt>
<rscale>  0 0.77451528E+04</rscale>
<asrwt>0</asrwt>
<pdfrwt beam="1">  1        2 0.62982570E+00 0.77451528E+04</pdfrwt>
<pdfrwt beam="2">  1       -2 0.56357652E+00 0.77451528E+04</pdfrwt>
<totfact> 0.12638864E-04</totfact>
</mgrwt>
</event>
<event>
 6    1  0.2238133E-007  0.2584550E+04  0.7818608E-02  0.8373468E-01
          2   -1    0    0  501    0  0.00000000000E+00  0.00000000000E+00  0.23058652489E+04  0.23058652489E+04  0.00000000000E+00 0. -1.
         -2   -1    0    0    0  501 -0.00000000000E+00 -0.00000000000E+00 -0.72422893379E+03  0.72422893379E+03  0.00000000000E+00 0.  1.
         23    2    1    2    0    0  0.11229573527E+04  0.63429573466E+03  0.84991188551E+03  0.15472641399E+04  0.91169131431E+02 0.  0.
         11    1    3    3    0    0  0.47946410220E+03  0.30263833532E+03  0.33063946753E+03  0.65635222616E+03  0.00000000000E+00 0. -1.
        -11    1    3    3    0    0  0.64349325050E+03  0.33165739934E+03  0.51927241798E+03  0.89091191374E+03  0.00000000000E+00 0.  1.
         22    1    1    2    0    0 -0.11229573527E+04 -0.63429573466E+03  0.73172442964E+03  0.14828300428E+04  0.00000000000E+00 0. -1.
<mgrwt>
<rscale>  0 0.25845497E+04</rscale>
<asrwt>0</asrwt>
<pdfrwt beam="1">  1        2 0.35474849E+00 0.25845497E+04</pdfrwt>
<pdfrwt beam="2">  1       -2 0.11141984E+00 0.25845497E+04</pdfrwt>
<totfact> 0.25373891E+00</totfact>
</mgrwt>
</event>
<event>
 6    1  0.2238133E-007  0.2977760E+04  0.7818608E-02  0.8250110E-01
          2   -1    0    0  501    0  0.00000000000E+00  0.00000000000E+00  0.18926686006E+04  0.18926686006E+04  0.00000000000E+00 0. -1.
         -2   -1    0    0    0  501 -0.00000000000E+00 -0.00000000000E+00 -0.11712373175E+04  0.11712373175E+04  0.00000000000E+00 0.  1.
         23    2    1    2    0    0  0.11731974255E+04  0.46626998187E+02  0.13007407445E+04  0.17546443979E+04  0.91017596019E+02 0.  0.
         11    1    3    3    0    0  0.75848841659E+03 -0.11948496666E+02  0.85486625791E+03  0.11429102168E+04  0.00000000000E+00 0.  1.
        -11    1    3    3    0    0  0.41470900890E+03  0.58575494854E+02  0.44587448655E+03  0.61173418118E+03  0.00000000000E+00 0. -1.
         22    1    1    2    0    0 -0.11731974255E+04 -0.46626998187E+02 -0.57930946131E+03  0.13092615201E+04  0.00000000000E+00 0.  1.
<mgrwt>
<rscale>  0 0.29777603E+04</rscale>
<asrwt>0</asrwt>
<pdfrwt beam="1">  1        2 0.29117978E+00 0.29777603E+04</pdfrwt>
<pdfrwt beam="2">  1       -2 0.18019036E+00 0.29777603E+04</pdfrwt>
<totfact> 0.11884521E+00</totfact>
</mgrwt>
</event>
<event>
 6    1  0.2238133E-007  0.3115950E+04  0.7818608E-02  0.8211374E-01
         -2   -1    0    0    0  501 -0.00000000000E+00  0.00000000000E+00  0.25397268894E+04  0.25397268894E+04  0.00000000000E+00 0.  1.
          2   -1    0    0  501    0  0.00000000000E+00 -0.00000000000E+00 -0.95572743005E+03  0.95572743005E+03  0.00000000000E+00 0. -1.
         23    2    1    2    0    0 -0.10845934896E+04 -0.35262510254E+03 -0.39581835863E+03  0.12106422718E+04  0.91077091930E+02 0.  0.
         13    1    3    3    0    0 -0.40941182271E+03 -0.87056828680E+02 -0.14729013235E+03  0.44372436837E+03  0.00000000000E+00 0.  1.
        -13    1    3    3    0    0 -0.67518166688E+03 -0.26556827386E+03 -0.24852822628E+03  0.76691790345E+03  0.00000000000E+00 0. -1.
         22    1    1    2    0    0  0.10845934896E+04  0.35262510254E+03  0.19798178180E+04  0.22848120477E+04  0.00000000000E+00 0.  1.
<mgrwt>
<rscale>  0 0.31159504E+04</rscale>
<asrwt>0</asrwt>
<pdfrwt beam="1">  1        2 0.14703499E+00 0.31159504E+04</pdfrwt>
<pdfrwt beam="2">  1       -2 0.39072721E+00 0.31159504E+04</pdfrwt>
<totfact> 0.19456360E-01</totfact>
</mgrwt>
</event>
<event>
 6    1  0.2238133E-007  0.2554810E+04  0.7818608E-02  0.8383715E-01
         -2   -1    0    0    0  501 -0.00000000000E+00  0.00000000000E+00  0.18265912851E+04  0.18265912851E+04  0.00000000000E+00 0.  1.
          2   -1    0    0  501    0  0.00000000000E+00 -0.00000000000E+00 -0.89333825985E+03  0.89333825985E+03  0.00000000000E+00 0. -1.
         23    2    1    2    0    0 -0.46558083085E+03  0.11870550574E+04  0.42353746413E+03  0.13467306618E+04  0.91838296255E+02 0.  0.
         11    1    3    3    0    0 -0.27792395379E+03  0.65870759783E+03  0.19324778307E+03  0.74059579339E+03  0.00000000000E+00 0.  1.
        -11    1    3    3    0    0 -0.18765687706E+03  0.52834745955E+03  0.23028968106E+03  0.60613486843E+03  0.00000000000E+00 0. -1.
         22    1    1    2    0    0  0.46558083085E+03 -0.11870550574E+04  0.50971556110E+03  0.13731988831E+04  0.00000000000E+00 0.  1.
<mgrwt>
<rscale>  0 0.25548103E+04</rscale>
<asrwt>0</asrwt>
<pdfrwt beam="1">  1        2 0.13743666E+00 0.25548103E+04</pdfrwt>
<pdfrwt beam="2">  1       -2 0.28101404E+00 0.25548103E+04</pdfrwt>
<totfact> 0.10921647E+00</totfact>
</mgrwt>
</event>
<event>
 6    1  0.2238133E-007  0.2611310E+04  0.7818608E-02  0.8364370E-01
          2   -1    0    0  501    0  0.00000000000E+00  0.00000000000E+00  0.14887474238E+04  0.14887474238E+04  0.00000000000E+00 0. -1.
         -2   -1    0    0    0  501 -0.00000000000E+00 -0.00000000000E+00 -0.11450797137E+04  0.11450797137E+04  0.00000000000E+00 0.  1.
         23    2    1    2    0    0 -0.10460298940E+04 -0.51607318228E+03  0.76015017189E+03  0.13952926367E+04  0.92212740255E+02 0.  0.
         11    1    3    3    0    0 -0.41738918509E+03 -0.19495495941E+03  0.24818513663E+03  0.52327529090E+03  0.00000000000E+00 0. -1.
        -11    1    3    3    0    0 -0.62864070894E+03 -0.32111822287E+03  0.51196503526E+03  0.87201734577E+03  0.00000000000E+00 0.  1.
         22    1    1    2    0    0  0.10460298940E+04  0.51607318228E+03 -0.41648246186E+03  0.12385345008E+04  0.00000000000E+00 0.  1.
<mgrwt>
<rscale>  0 0.26113096E+04</rscale>
<asrwt>0</asrwt>
<pdfrwt beam="1">  1        2 0.22903807E+00 0.26113096E+04</pdfrwt>
<pdfrwt beam="2">  1       -2 0.17616611E+00 0.26113096E+04</pdfrwt>
<totfact> 0.21952269E+00</totfact>
</mgrwt>
</event>
<event>
 6    1  0.2238133E-007  0.4411155E+04  0.7818608E-02  0.7926378E-01
         -2   -1    0    0    0  501 -0.00000000000E+00  0.00000000000E+00  0.13207861476E+04  0.13207861476E+04  0.00000000000E+00 0.  1.
          2   -1    0    0  501    0  0.00000000000E+00 -0.00000000000E+00 -0.36830879995E+04  0.36830879995E+04  0.00000000000E+00 0. -1.
         23    2    1    2    0    0 -0.11339834024E+04  0.15824607376E+04 -0.79742851573E+01  0.19488850089E+04  0.89380344307E+02 0.  0.
         11    1    3    3    0    0 -0.24602325235E+03  0.33424186667E+03  0.34535600656E+02  0.41645861000E+03  0.00000000000E+00 0. -1.
        -11    1    3    3    0    0 -0.88796015006E+03  0.12482188709E+04 -0.42509885814E+02  0.15324263989E+04  0.00000000000E+00 0.  1.
         22    1    1    2    0    0  0.11339834024E+04 -0.15824607376E+04 -0.23543275667E+04  0.30549891382E+04  0.00000000000E+00 0. -1.
<mgrwt>
<rscale>  0 0.44111548E+04</rscale>
<asrwt>0</asrwt>
<pdfrwt beam="1">  1        2 0.56662891E+00 0.44111548E+04</pdfrwt>
<pdfrwt beam="2">  1       -2 0.20319787E+00 0.44111548E+04</pdfrwt>
<totfact> 0.57951076E-02</totfact>
</mgrwt>
</event>
<event>
 6    1  0.2238133E-007  0.2206640E+04  0.7818608E-02  0.8515669E-01
          2   -1    0    0  501    0  0.00000000000E+00  0.00000000000E+00  0.26925362339E+04  0.26925362339E+04  0.00000000000E+00 0. -1.
         -2   -1    0    0    0  501 -0.00000000000E+00 -0.00000000000E+00 -0.45210730717E+03  0.45210730717E+03  0.00000000000E+00 0.  1.
         23    2    1    2    0    0 -0.96972882189E+03 -0.50772967579E+03  0.94726174060E+03  0.14504048380E+04  0.90586848825E+02 0.  0.
         11    1    3    3    0    0 -0.58915968953E+03 -0.33850173558E+03  0.54055516692E+03  0.86826980441E+03  0.00000000000E+00 0.  1.
        -11    1    3    3    0    0 -0.38056913236E+03 -0.16922794020E+03  0.40670657367E+03  0.58213503358E+03  0.00000000000E+00 0. -1.
         22    1    1    2    0    0  0.96972882189E+03  0.50772967579E+03  0.12931671861E+04  0.16942387030E+04  0.00000000000E+00 0.  1.
<mgrwt>
<rscale>  0 0.22066403E+04</rscale>
<asrwt>0</asrwt>
<pdfrwt beam="1">  1        2 0.41423633E+00 0.22066403E+04</pdfrwt>
<pdfrwt beam="2">  1       -2 0.69554972E-01 0.22066403E+04</pdfrwt>
<totfact> 0.46217729E+00</totfact>
</mgrwt>
</event>
<event>
 6    1  0.2238133E-007  0.2595470E+04  0.7818608E-02  0.8369742E-01
         -2   -1    0    0    0  501 -0.00000000000E+00  0.00000000000E+00  0.11198573573E+04  0.11198573573E+04  0.00000000000E+00 0.  1.
          2   -1    0    0  501    0  0.00000000000E+00 -0.00000000000E+00 -0.15038667989E+04  0.15038667989E+04  0.00000000000E+00 0. -1.
         23    2    1    2    0    0 -0.10773265370E+04  0.48701009795E+03  0.34488588576E+03  0.12348038197E+04  0.89347054833E+02 0.  0.
         13    1    3    3    0    0 -0.71656678352E+03  0.36932087087E+03  0.23968929433E+03  0.84102129505E+03  0.00000000000E+00 0. -1.
        -13    1    3    3    0    0 -0.36075975349E+03  0.11768922708E+03  0.10519659142E+03  0.39378252470E+03  0.00000000000E+00 0.  1.
         22    1    1    2    0    0  0.10773265370E+04 -0.48701009795E+03 -0.72889532729E+03  0.13889203364E+04  0.00000000000E+00 0.  1.
<mgrwt>
<rscale>  0 0.25954701E+04</rscale>
<asrwt>0</asrwt>
<pdfrwt beam="1">  1        2 0.23136412E+00 0.25954701E+04</pdfrwt>
<pdfrwt beam="2">  1       -2 0.17228575E+00 0.25954701E+04</pdfrwt>
<totfact> 0.22951085E+00</totfact>
</mgrwt>
</event>
<event>
 6    1  0.2238133E-007  0.3285341E+04  0.7818608E-02  0.8166635E-01
         -1   -1    0    0    0  501 -0.00000000000E+00  0.00000000000E+00  0.65795840634E+03  0.65795840634E+03  0.00000000000E+00 0.  1.
          1   -1    0    0  501    0  0.00000000000E+00 -0.00000000000E+00 -0.41011209644E+04  0.41011209644E+04  0.00000000000E+00 0. -1.
         23    2    1    2    0    0  0.16066800507E+04 -0.32892115140E+03 -0.16239854066E+04  0.23097906133E+04  0.90521638924E+02 0.  0.
         13    1    3    3    0    0  0.72561581842E+03 -0.17176389885E+03 -0.79299068918E+03  0.10885106274E+04  0.00000000000E+00 0.  1.
        -13    1    3    3    0    0  0.88106423228E+03 -0.15715725255E+03 -0.83099471745E+03  0.12212799859E+04  0.00000000000E+00 0. -1.
         22    1    1    2    0    0 -0.16066800507E+04  0.32892115140E+03 -0.18191771514E+04  0.24492887575E+04  0.00000000000E+00 0.  1.
<mgrwt>
<rscale>  0 0.32853414E+04</rscale>
<asrwt>0</asrwt>
<pdfrwt beam="1">  1        1 0.63094169E+00 0.32853414E+04</pdfrwt>
<pdfrwt beam="2">  1       -1 0.10122437E+00 0.32853414E+04</pdfrwt>
<totfact> 0.59882212E-02</totfact>
</mgrwt>
</event>
<event>
 6    1  0.2238133E-007  0.2178147E+04  0.7818608E-02  0.8527579E-01
          2   -1    0    0  501    0  0.00000000000E+00  0.00000000000E+00  0.15191439350E+04  0.15191439350E+04  0.00000000000E+00 0. -1.
         -2   -1    0    0    0  501 -0.00000000000E+00 -0.00000000000E+00 -0.78075654343E+03  0.78075654343E+03  0.00000000000E+00 0.  1.
         23    2    1    2    0    0  0.18430905136E+03 -0.75674896703E+03 -0.43058611373E+03  0.89521621441E+03  0.96792787358E+02 0.  0.
         13    1    3    3    0    0  0.16041506226E+03 -0.54312083213E+03 -0.27301548833E+03  0.62868965902E+03  0.00000000000E+00 0. -1.
        -13    1    3    3    0    0  0.23893989100E+02 -0.21362813491E+03 -0.15757062540E+03  0.26652655539E+03  0.00000000000E+00 0.  1.
         22    1    1    2    0    0 -0.18430905136E+03  0.75674896703E+03  0.11689735053E+04  0.14046842640E+04  0.00000000000E+00 0. -1.
<mgrwt>
<rscale>  0 0.21781474E+04</rscale>
<asrwt>0</asrwt>
<pdfrwt beam="1">  1        2 0.23371445E+00 0.21781474E+04</pdfrwt>
<pdfrwt beam="2">  1       -2 0.12011639E+00 0.21781474E+04</pdfrwt>
<totfact> 0.60068405E+00</totfact>
</mgrwt>
</event>
<event>
 6    1  0.2238133E-007  0.1432320E+04  0.7818608E-02  0.8930750E-01
         -2   -1    0    0    0  501 -0.00000000000E+00  0.00000000000E+00  0.82417539183E+03  0.82417539183E+03  0.00000000000E+00 0.  1.
          2   -1    0    0  501    0  0.00000000000E+00 -0.00000000000E+00 -0.62230081412E+03  0.62230081412E+03  0.00000000000E+00 0. -1.
         23    2    1    2    0    0 -0.16947663228E+03  0.26985130548E+02  0.80133481746E+03  0.82293542525E+03  0.75064627481E+02 0.  0.
         13    1    3    3    0    0 -0.12922446156E+02  0.33447701644E+01  0.22062640971E+03  0.22102983908E+03  0.00000000000E+00 0. -1.
        -13    1    3    3    0    0 -0.15655418612E+03  0.23640360384E+02  0.58070840775E+03  0.60190558617E+03  0.00000000000E+00 0.  1.
         22    1    1    2    0    0  0.16947663228E+03 -0.26985130548E+02 -0.59946023974E+03  0.62354078070E+03  0.00000000000E+00 0. -1.
<mgrwt>
<rscale>  0 0.14323198E+04</rscale>
<asrwt>0</asrwt>
<pdfrwt beam="1">  1        2 0.95738586E-01 0.14323198E+04</pdfrwt>
<pdfrwt beam="2">  1       -2 0.12679621E+00 0.14323198E+04</pdfrwt>
<totfact> 0.21301911E+01</totfact>
</mgrwt>
</event>
<event>
 6    1  0.2238133E-007  0.3600042E+04  0.7818608E-02  0.8090482E-01
          2   -1    0    0  501    0  0.00000000000E+00  0.00000000000E+00  0.27885291216E+04  0.27885291216E+04  0.00000000000E+00 0. -1.
         -2   -1    0    0    0  501 -0.00000000000E+00 -0.00000000000E+00 -0.11619300607E+04  0.11619300607E+04  0.00000000000E+00 0.  1.
         23    2    1    2    0    0  0.51607777386E+03 -0.48278997992E+03  0.26290831050E+04  0.27239206823E+04  0.90793596331E+02 0.  0.
         11    1    3    3    0    0  0.24552117514E+02 -0.84485100821E+01  0.56245648607E+02  0.61949631026E+02  0.00000000000E+00 0. -1.
        -11    1    3    3    0    0  0.49152565635E+03 -0.47434146984E+03  0.25728374564E+04  0.26619710513E+04  0.00000000000E+00 0.  1.
         22    1    1    2    0    0 -0.51607777386E+03  0.48278997992E+03 -0.10024840440E+04  0.12265385000E+04  0.00000000000E+00 0.  1.
<mgrwt>
<rscale>  0 0.36000421E+04</rscale>
<asrwt>0</asrwt>
<pdfrwt beam="1">  1        2 0.42900448E+00 0.36000421E+04</pdfrwt>
<pdfrwt beam="2">  1       -2 0.17875847E+00 0.36000421E+04</pdfrwt>
<totfact> 0.35406290E-01</totfact>
</mgrwt>
</event>
<event>
 6    1  0.2238133E-007  0.1155874E+04  0.7818608E-02  0.9152381E-01
         -2   -1    0    0    0  501 -0.00000000000E+00  0.00000000000E+00  0.37181222185E+03  0.37181222185E+03  0.00000000000E+00 0.  1.
          2   -1    0    0  501    0  0.00000000000E+00 -0.00000000000E+00 -0.89833350576E+03  0.89833350576E+03  0.00000000000E+00 0. -1.
         23    2    1    2    0    0 -0.33506402650E+02  0.14991110156E+03 -0.87311434476E+03  0.89103787063E+03  0.89575724896E+02 0.  0.
         11    1    3    3    0    0 -0.64511569247E+02  0.10206691979E+03 -0.60398033345E+03  0.61593152369E+03  0.00000000000E+00 0. -1.
        -11    1    3    3    0    0  0.31005166597E+02  0.47844181774E+02 -0.26913401130E+03  0.27510634694E+03  0.00000000000E+00 0.  1.
         22    1    1    2    0    0  0.33506402650E+02 -0.14991110156E+03  0.34659306085E+03  0.37910785697E+03  0.00000000000E+00 0.  1.
<mgrwt>
<rscale>  0 0.11558743E+04</rscale>
<asrwt>0</asrwt>
<pdfrwt beam="1">  1        2 0.13820515E+00 0.11558743E+04</pdfrwt>
<pdfrwt beam="2">  1       -2 0.57201881E-01 0.11558743E+04</pdfrwt>
<totfact> 0.83328533E+01</totfact>
</mgrwt>
</event>
<event>
 6    1  0.2238133E-007  0.9374764E+03  0.7818608E-02  0.9379910E-01
          2   -1    0    0  501    0  0.00000000000E+00  0.00000000000E+00  0.22887226759E+03  0.22887226759E+03  0.00000000000E+00 0. -1.
         -2   -1    0    0    0  501 -0.00000000000E+00 -0.00000000000E+00 -0.95999177356E+03  0.95999177356E+03  0.00000000000E+00 0.  1.
         23    2    1    2    0    0 -0.14426748595E+03 -0.41005878547E+03 -0.57684164324E+03  0.72760167116E+03  0.87730242540E+02 0.  0.
         11    1    3    3    0    0 -0.55627074465E+02 -0.28278523035E+03 -0.38421700559E+03  0.48029633072E+03  0.00000000000E+00 0. -1.
        -11    1    3    3    0    0 -0.88640411484E+02 -0.12727355512E+03 -0.19262463765E+03  0.24730534044E+03  0.00000000000E+00 0.  1.
         22    1    1    2    0    0  0.14426748595E+03  0.41005878547E+03 -0.15427786273E+03  0.46126236999E+03  0.00000000000E+00 0. -1.
<mgrwt>
<rscale>  0 0.93747639E+03</rscale>
<asrwt>0</asrwt>
<pdfrwt beam="1">  1        2 0.35211117E-01 0.93747639E+03</pdfrwt>
<pdfrwt beam="2">  1       -2 0.14769105E+00 0.93747639E+03</pdfrwt>
<totfact> 0.46428221E+01</totfact>
</mgrwt>
</event>
<event>
 6    1  0.2238133E-007  0.2892926E+04  0.7818608E-02  0.8274985E-01
          1   -1    0    0  501    0  0.00000000000E+00  0.00000000000E+00  0.22332236343E+04  0.22332236343E+04  0.00000000000E+00 0. -1.
         -1   -1    0    0    0  501 -0.00000000000E+00 -0.00000000000E+00 -0.93687682686E+03  0.93687682686E+03  0.00000000000E+00 0.  1.
         23    2    1    2    0    0  0.89887994835E+03  0.36522881922E+03 -0.52467489401E+03  0.11067300899E+04  0.90501356367E+02 0.  0.
         13    1    3    3    0    0  0.47449552687E+03  0.17099339027E+03 -0.22649020344E+03  0.55288566340E+03  0.00000000000E+00 0.  1.
        -13    1    3    3    0    0  0.42438442148E+03  0.19423542895E+03 -0.29818469057E+03  0.55384442648E+03  0.00000000000E+00 0. -1.
         22    1    1    2    0    0 -0.89887994835E+03 -0.36522881922E+03  0.18210217014E+04  0.20633703713E+04  0.00000000000E+00 0.  1.
<mgrwt>
<rscale>  0 0.28929262E+04</rscale>
<asrwt>0</asrwt>
<pdfrwt beam="1">  1        1 0.34357286E+00 0.28929262E+04</pdfrwt>
<pdfrwt beam="2">  1       -1 0.14413490E+00 0.28929262E+04</pdfrwt>
<totfact> 0.68924683E-01</totfact>
</mgrwt>
</event>
<event>
 6    1  0.2238133E-007  0.2524103E+04  0.7818608E-02  0.8394449E-01
         -2   -1    0    0    0  501 -0.00000000000E+00  0.00000000000E+00  0.77418898241E+03  0.77418898241E+03  0.00000000000E+00 0.  1.
          2   -1    0    0  501    0  0.00000000000E+00 -0.00000000000E+00 -0.20573456840E+04  0.20573456840E+04  0.00000000000E+00 0. -1.
         23    2    1    2    0    0  0.90558827605E+03  0.39090358758E+03  0.23765007864E+03  0.10188711556E+04  0.93408411901E+02 0.  0.
         13    1    3    3    0    0  0.15383043051E+03  0.33300958116E+02  0.53790469511E+02  0.16633150566E+03  0.00000000000E+00 0.  1.
        -13    1    3    3    0    0  0.75175784553E+03  0.35760262946E+03  0.18385960913E+03  0.85253964998E+03  0.00000000000E+00 0. -1.
         22    1    1    2    0    0 -0.90558827605E+03 -0.39090358758E+03 -0.15208067803E+04  0.18126635108E+04  0.00000000000E+00 0. -1.
<mgrwt>
<rscale>  0 0.25241033E+04</rscale>
<asrwt>0</asrwt>
<pdfrwt beam="1">  1        2 0.31651471E+00 0.25241033E+04</pdfrwt>
<pdfrwt beam="2">  1       -2 0.11910600E+00 0.25241033E+04</pdfrwt>
<totfact> 0.29888290E+00</totfact>
</mgrwt>
</event>
<event>
 6    1  0.2238133E-007  0.1865353E+04  0.7818608E-02  0.8672297E-01
          2   -1    0    0  501    0  0.00000000000E+00  0.00000000000E+00  0.24313243836E+04  0.24313243836E+04  0.00000000000E+00 0. -1.
         -2   -1    0    0    0  501 -0.00000000000E+00 -0.00000000000E+00 -0.35778252567E+03  0.35778252567E+03  0.00000000000E+00 0.  1.
         23    2    1    2    0    0  0.66980061462E+03 -0.53646555153E+03  0.50041723545E+03  0.99713893268E+03  0.86258276195E+02 0.  0.
         13    1    3    3    0    0  0.16468304925E+03 -0.11033084078E+03  0.15381497658E+03  0.25090326454E+03  0.00000000000E+00 0.  1.
        -13    1    3    3    0    0  0.50511756537E+03 -0.42613471075E+03  0.34660225887E+03  0.74623566814E+03  0.00000000000E+00 0. -1.
         22    1    1    2    0    0 -0.66980061462E+03  0.53646555153E+03  0.15731246225E+04  0.17919679766E+04  0.00000000000E+00 0. -1.
<mgrwt>
<rscale>  0 0.18653529E+04</rscale>
<asrwt>0</asrwt>
<pdfrwt beam="1">  1        2 0.37404990E+00 0.18653529E+04</pdfrwt>
<pdfrwt beam="2">  1       -2 0.55043467E-01 0.18653529E+04</pdfrwt>
<totfact> 0.11126276E+01</totfact>
</mgrwt>
</event>
<event>
 6    1  0.2238133E-007  0.1758498E+04  0.7818608E-02  0.8728686E-01
         -2   -1    0    0    0  501 -0.00000000000E+00  0.00000000000E+00  0.20595831199E+03  0.20595831199E+03  0.00000000000E+00 0.  1.
          2   -1    0    0  501    0  0.00000000000E+00 -0.00000000000E+00 -0.37535694108E+04  0.37535694108E+04  0.00000000000E+00 0. -1.
         23    2    1    2    0    0 -0.65811659017E+03 -0.57580823749E+03 -0.19263064571E+04  0.21174361632E+04  0.90591202444E+02 0.  0.
         13    1    3    3    0    0 -0.43161308938E+03 -0.42467522600E+03 -0.13815785488E+04  0.15084423068E+04  0.00000000000E+00 0. -1.
        -13    1    3    3    0    0 -0.22650350079E+03 -0.15113301149E+03 -0.54472790833E+03  0.60899385641E+03  0.00000000000E+00 0.  1.
         22    1    1    2    0    0  0.65811659017E+03  0.57580823749E+03 -0.16213046417E+04  0.18420915595E+04  0.00000000000E+00 0.  1.
<mgrwt>
<rscale>  0 0.17584980E+04</rscale>
<asrwt>0</asrwt>
<pdfrwt beam="1">  1        2 0.57747215E+00 0.17584980E+04</pdfrwt>
<pdfrwt beam="2">  1       -2 0.31685898E-01 0.17584980E+04</pdfrwt>
<totfact> 0.47242031E+00</totfact>
</mgrwt>
</event>
<event>
 6    1  0.2238133E-007  0.1733761E+04  0.7818608E-02  0.8742340E-01
          2   -1    0    0  501    0  0.00000000000E+00  0.00000000000E+00  0.31235451738E+04  0.31235451738E+04  0.00000000000E+00 0. -1.
         -2   -1    0    0    0  501 -0.00000000000E+00 -0.00000000000E+00 -0.24058630889E+03  0.24058630889E+03  0.00000000000E+00 0.  1.
         23    2    1    2    0    0 -0.43032377968E+03 -0.31532346987E+03  0.27654285308E+04  0.28178524098E+04  0.89943306869E+02 0.  0.
         13    1    3    3    0    0 -0.23200343958E+03 -0.12024042322E+03  0.14450704791E+04  0.14685067398E+04  0.00000000000E+00 0. -1.
        -13    1    3    3    0    0 -0.19832034010E+03 -0.19508304665E+03  0.13203580517E+04  0.13493456700E+04  0.00000000000E+00 0.  1.
         22    1    1    2    0    0  0.43032377968E+03  0.31532346987E+03  0.11753033408E+03  0.54627907286E+03  0.00000000000E+00 0.  1.
<mgrwt>
<rscale>  0 0.17337615E+04</rscale>
<asrwt>0</asrwt>
<pdfrwt beam="1">  1        2 0.48054538E+00 0.17337615E+04</pdfrwt>
<pdfrwt beam="2">  1       -2 0.37013280E-01 0.17337615E+04</pdfrwt>
<totfact> 0.95410850E+00</totfact>
</mgrwt>
</event>
<event>
 6    1  0.2238133E-007  0.5753877E+03  0.7818608E-02  0.9957827E-01
         -2   -1    0    0    0  501 -0.00000000000E+00  0.00000000000E+00  0.42832146874E+02  0.42832146874E+02  0.00000000000E+00 0.  1.
          2   -1    0    0  501    0  0.00000000000E+00 -0.00000000000E+00 -0.19323745002E+04  0.19323745002E+04  0.00000000000E+00 0. -1.
         23    2    1    2    0    0 -0.22244237780E+03 -0.13404125783E+03 -0.13256264782E+04  0.13543614293E+04  0.97783695756E+02 0.  0.
         13    1    3    3    0    0 -0.11094161475E+03 -0.61063502152E+02 -0.41068008456E+03  0.42976147458E+03  0.00000000000E+00 0.  1.
        -13    1    3    3    0    0 -0.11150076305E+03 -0.72977755681E+02 -0.91494639369E+03  0.92459995475E+03  0.00000000000E+00 0. -1.
         22    1    1    2    0    0  0.22244237780E+03  0.13404125783E+03 -0.56391587507E+03  0.62084521775E+03  0.00000000000E+00 0.  1.
<mgrwt>
<rscale>  0 0.57538769E+03</rscale>
<asrwt>0</asrwt>
<pdfrwt beam="1">  1        2 0.29728839E+00 0.57538769E+03</pdfrwt>
<pdfrwt beam="2">  1       -2 0.65895610E-02 0.57538769E+03</pdfrwt>
<totfact> 0.10071868E+03</totfact>
</mgrwt>
</event>
<event>
 6    1  0.2238133E-007  0.4089127E+04  0.7818608E-02  0.7986804E-01
         -2   -1    0    0    0  501 -0.00000000000E+00  0.00000000000E+00  0.13168280764E+04  0.13168280764E+04  0.00000000000E+00 0.  1.
          2   -1    0    0  501    0  0.00000000000E+00 -0.00000000000E+00 -0.31744763042E+04  0.31744763042E+04  0.00000000000E+00 0. -1.
         23    2    1    2    0    0  0.19825884613E+04 -0.28494996699E+00 -0.14735865437E+04  0.24718587970E+04  0.89283383644E+02 0.  0.
         11    1    3    3    0    0  0.13165526913E+04 -0.37559981973E+02 -0.10024101372E+04  0.16551579454E+04  0.00000000000E+00 0.  1.
        -11    1    3    3    0    0  0.66603576998E+03  0.37275032006E+02 -0.47117640648E+03  0.81670085155E+03  0.00000000000E+00 0. -1.
         22    1    1    2    0    0 -0.19825884613E+04  0.28494996699E+00 -0.38406168415E+03  0.20194455836E+04  0.00000000000E+00 0.  1.
<mgrwt>
<rscale>  0 0.40891268E+04</rscale>
<asrwt>0</asrwt>
<pdfrwt beam="1">  1        2 0.48838097E+00 0.40891268E+04</pdfrwt>
<pdfrwt beam="2">  1       -2 0.20258894E+00 0.40891268E+04</pdfrwt>
<totfact> 0.13485097E-01</totfact>
</mgrwt>
</event>
<event>
 6    1  0.2238133E-007  0.1912796E+04  0.7818608E-02  0.8648513E-01
         -2   -1    0    0    0  501 -0.00000000000E+00  0.00000000000E+00  0.66641057886E+03  0.66641057886E+03  0.00000000000E+00 0.  1.
          2   -1    0    0  501    0  0.00000000000E+00 -0.00000000000E+00 -0.13725730532E+04  0.13725730532E+04  0.00000000000E+00 0. -1.
         23    2    1    2    0    0  0.48008951755E+03  0.49863081095E+03 -0.10540199737E+04  0.12643072671E+04  0.91630399212E+02 0.  0.
         11    1    3    3    0    0  0.11061650930E+03  0.13572799473E+03 -0.20287486601E+03  0.26798565622E+03  0.00000000000E+00 0. -1.
        -11    1    3    3    0    0  0.36947300825E+03  0.36290281622E+03 -0.85114510774E+03  0.99632161086E+03  0.00000000000E+00 0.  1.
         22    1    1    2    0    0 -0.48008951755E+03 -0.49863081095E+03  0.34785749943E+03  0.77467636494E+03  0.00000000000E+00 0.  1.
<mgrwt>
<rscale>  0 0.19127961E+04</rscale>
<asrwt>0</asrwt>
<pdfrwt beam="1">  1        2 0.21116508E+00 0.19127961E+04</pdfrwt>
<pdfrwt beam="2">  1       -2 0.10252471E+00 0.19127961E+04</pdfrwt>
<totfact> 0.10928704E+01</totfact>
</mgrwt>
</event>
<event>
 6    1  0.2238133E-007  0.2290217E+04  0.7818608E-02  0.8481788E-01
          2   -1    0    0  501    0  0.00000000000E+00  0.00000000000E+00  0.71642515489E+03  0.71642515489E+03  0.00000000000E+00 0. -1.
         -2   -1    0    0    0  501 -0.00000000000E+00 -0.00000000000E+00 -0.18303013798E+04  0.18303013798E+04  0.00000000000E+00 0.  1.
         23    2    1    2    0    0 -0.10743488113E+04 -0.37685317827E+03 -0.67259902841E+03  0.13256740172E+04  0.93693438899E+02 0.  0.
         13    1    3    3    0    0 -0.15720423677E+03 -0.90779128459E+02 -0.99966331633E+02  0.20723727870E+03  0.00000000000E+00 0. -1.
        -13    1    3    3    0    0 -0.91714457455E+03 -0.28607404981E+03 -0.57263269677E+03  0.11184367385E+04  0.00000000000E+00 0.  1.
         22    1    1    2    0    0  0.10743488113E+04  0.37685317827E+03 -0.44127719651E+03  0.12210525175E+04  0.00000000000E+00 0.  1.
<mgrwt>
<rscale>  0 0.22902174E+04</rscale>
<asrwt>0</asrwt>
<pdfrwt beam="1">  1        2 0.11021926E+00 0.22902174E+04</pdfrwt>
<pdfrwt beam="2">  1       -2 0.28158482E+00 0.22902174E+04</pdfrwt>
<totfact> 0.14867787E+00</totfact>
</mgrwt>
</event>
<event>
 6    1  0.2238133E-007  0.3603475E+04  0.7818608E-02  0.8089696E-01
         -2   -1    0    0    0  501 -0.00000000000E+00  0.00000000000E+00  0.26504517028E+04  0.26504517028E+04  0.00000000000E+00 0.  1.
          2   -1    0    0  501    0  0.00000000000E+00 -0.00000000000E+00 -0.12247939389E+04  0.12247939389E+04  0.00000000000E+00 0. -1.
         23    2    1    2    0    0 -0.15551335452E+04 -0.77063384628E+03  0.19801940844E+03  0.17493545814E+04  0.93342901057E+02 0.  0.
         13    1    3    3    0    0 -0.10250391256E+04 -0.49949679177E+03  0.86053837024E+02  0.11435066755E+04  0.00000000000E+00 0.  1.
        -13    1    3    3    0    0 -0.53009441957E+03 -0.27113705451E+03  0.11196557141E+03  0.60584790597E+03  0.00000000000E+00 0. -1.
         22    1    1    2    0    0  0.15551335452E+04  0.77063384628E+03  0.12276383554E+04  0.21258910602E+04  0.00000000000E+00 0.  1.
<mgrwt>
<rscale>  0 0.36034745E+04</rscale>
<asrwt>0</asrwt>
<pdfrwt beam="1">  1        2 0.18842984E+00 0.36034745E+04</pdfrwt>
<pdfrwt beam="2">  1       -2 0.40776180E+00 0.36034745E+04</pdfrwt>
<totfact> 0.98388520E-02</totfact>
</mgrwt>
</event>
<event>
 6    1  0.2238133E-007  0.4149372E+04  0.7818608E-02  0.7975073E-01
          2   -1    0    0  501    0  0.00000000000E+00  0.00000000000E+00  0.39466097103E+04  0.39466097103E+04  0.00000000000E+00 0. -1.
         -2   -1    0    0    0  501 -0.00000000000E+00 -0.00000000000E+00 -0.10906379764E+04  0.10906379764E+04  0.00000000000E+00 0.  1.
         23    2    1    2    0    0  0.18046719694E+04  0.10202044044E+04  0.14731149568E+04  0.25452703975E+04  0.10332364795E+03 0.  0.
         11    1    3    3    0    0  0.10543334076E+04  0.53893542575E+03  0.85520184675E+03  0.14606301812E+04  0.00000000000E+00 0.  1.
        -11    1    3    3    0    0  0.75033856178E+03  0.48126897864E+03  0.61791311007E+03  0.10846402162E+04  0.00000000000E+00 0. -1.
         22    1    1    2    0    0 -0.18046719694E+04 -0.10202044044E+04  0.13828567772E+04  0.24919772892E+04  0.00000000000E+00 0. -1.
<mgrwt>
<rscale>  0 0.41493722E+04</rscale>
<asrwt>0</asrwt>
<pdfrwt beam="1">  1        2 0.60717072E+00 0.41493722E+04</pdfrwt>
<pdfrwt beam="2">  1       -2 0.16779046E+00 0.41493722E+04</pdfrwt>
<totfact> 0.64825045E-02</totfact>
</mgrwt>
</event>
<event>
 6    1  0.2238133E-007  0.1816892E+04  0.7818608E-02  0.8697368E-01
          2   -1    0    0  501    0  0.00000000000E+00  0.00000000000E+00  0.22380605281E+04  0.22380605281E+04  0.00000000000E+00 0. -1.
         -2   -1    0    0    0  501 -0.00000000000E+00 -0.00000000000E+00 -0.36874506700E+03  0.36874506700E+03  0.00000000000E+00 0.  1.
         23    2    1    2    0    0 -0.23600771772E+03 -0.76729565914E+03  0.15400941611E+04  0.17391484418E+04  0.91131806791E+02 0.  0.
         11    1    3    3    0    0 -0.95268235967E+02 -0.42444993313E+03  0.76576699434E+03  0.88070021695E+03  0.00000000000E+00 0. -1.
        -11    1    3    3    0    0 -0.14073948175E+03 -0.34284572602E+03  0.77432716672E+03  0.85844822482E+03  0.00000000000E+00 0.  1.
         22    1    1    2    0    0  0.23600771772E+03  0.76729565914E+03  0.32922130007E+03  0.86765715336E+03  0.00000000000E+00 0.  1.
<mgrwt>
<rscale>  0 0.18168916E+04</rscale>
<asrwt>0</asrwt>
<pdfrwt beam="1">  1        2 0.34431700E+00 0.18168916E+04</pdfrwt>
<pdfrwt beam="2">  1       -2 0.56730012E-01 0.18168916E+04</pdfrwt>
<totfact> 0.13508577E+01</totfact>
</mgrwt>
</event>
<event>
 6    1  0.2238133E-007  0.4521002E+04  0.7818608E-02  0.7906970E-01
          2   -1    0    0  501    0  0.00000000000E+00  0.00000000000E+00  0.30696759446E+04  0.30696759446E+04  0.00000000000E+00 0. -1.
         -2   -1    0    0    0  501 -0.00000000000E+00 -0.00000000000E+00 -0.16646268326E+04  0.16646268326E+04  0.00000000000E+00 0.  1.
         23    2    1    2    0    0 -0.52505274785E+03 -0.16947057640E+04 -0.76255584421E+03  0.19331924151E+04  0.89629703518E+02 0.  0.
         11    1    3    3    0    0 -0.43595206538E+03 -0.13348898594E+04 -0.57081562929E+03  0.15158547499E+04  0.00000000000E+00 0. -1.
        -11    1    3    3    0    0 -0.89100682473E+02 -0.35981590460E+03 -0.19174021492E+03  0.41733766525E+03  0.00000000000E+00 0.  1.
         22    1    1    2    0    0  0.52505274785E+03  0.16947057640E+04  0.21676049562E+04  0.28011103621E+04  0.00000000000E+00 0. -1.
<mgrwt>
<rscale>  0 0.45210021E+04</rscale>
<asrwt>0</asrwt>
<pdfrwt beam="1">  1        2 0.47225784E+00 0.45210021E+04</pdfrwt>
<pdfrwt beam="2">  1       -2 0.25609644E+00 0.45210021E+04</pdfrwt>
<totfact> 0.70113505E-02</totfact>
</mgrwt>
</event>
<event>
 6    1  0.2238133E-007  0.2627612E+04  0.7818608E-02  0.8358882E-01
          2   -1    0    0  501    0  0.00000000000E+00  0.00000000000E+00  0.23754827550E+04  0.23754827550E+04  0.00000000000E+00 0. -1.
         -2   -1    0    0    0  501 -0.00000000000E+00 -0.00000000000E+00 -0.72662560680E+03  0.72662560680E+03  0.00000000000E+00 0.  1.
         23    2    1    2    0    0  0.60357026115E+03  0.11211305975E+04  0.12005651763E+04  0.17522207484E+04  0.87692255314E+02 0.  0.
         11    1    3    3    0    0  0.37887772964E+03  0.77109376041E+03  0.77296579471E+03  0.11556859613E+04  0.00000000000E+00 0.  1.
        -11    1    3    3    0    0  0.22469253151E+03  0.35003683712E+03  0.42759938155E+03  0.59653478706E+03  0.00000000000E+00 0. -1.
         22    1    1    2    0    0 -0.60357026115E+03 -0.11211305975E+04  0.44829197196E+03  0.13498876135E+04  0.00000000000E+00 0.  1.
<mgrwt>
<rscale>  0 0.26276123E+04</rscale>
<asrwt>0</asrwt>
<pdfrwt beam="1">  1        2 0.36545888E+00 0.26276123E+04</pdfrwt>
<pdfrwt beam="2">  1       -2 0.11178856E+00 0.26276123E+04</pdfrwt>
<totfact> 0.22890971E+00</totfact>
</mgrwt>
</event>
<event>
 6    1  0.2238133E-007  0.2636096E+04  0.7818608E-02  0.8356042E-01
         -2   -1    0    0    0  501 -0.00000000000E+00  0.00000000000E+00  0.53984903541E+03  0.53984903541E+03  0.00000000000E+00 0.  1.
          2   -1    0    0  501    0  0.00000000000E+00 -0.00000000000E+00 -0.32180311872E+04  0.32180311872E+04  0.00000000000E+00 0. -1.
         23    2    1    2    0    0 -0.71156471043E+03  0.83551121903E+03 -0.30358892174E+03  0.11419489654E+04  0.86474689745E+02 0.  0.
         11    1    3    3    0    0 -0.22376646602E+03  0.28634690799E+03 -0.61632025816E+02  0.36859800547E+03  0.00000000000E+00 0. -1.
        -11    1    3    3    0    0 -0.48779824441E+03  0.54916431104E+03 -0.24195689593E+03  0.77335095995E+03  0.00000000000E+00 0.  1.
         22    1    1    2    0    0  0.71156471043E+03 -0.83551121903E+03 -0.23745932301E+04  0.26159312572E+04  0.00000000000E+00 0. -1.
<mgrwt>
<rscale>  0 0.26360964E+04</rscale>
<asrwt>0</asrwt>
<pdfrwt beam="1">  1        2 0.49508174E+00 0.26360964E+04</pdfrwt>
<pdfrwt beam="2">  1       -2 0.83053695E-01 0.26360964E+04</pdfrwt>
<totfact> 0.14136483E+00</totfact>
</mgrwt>
</event>
<event>
 6    1  0.2238133E-007  0.1156594E+04  0.7818608E-02  0.9151722E-01
          1   -1    0    0  501    0  0.00000000000E+00  0.00000000000E+00  0.28699001752E+03  0.28699001752E+03  0.00000000000E+00 0. -1.
         -1   -1    0    0    0  501 -0.00000000000E+00 -0.00000000000E+00 -0.11652933529E+04  0.11652933529E+04  0.00000000000E+00 0.  1.
         23    2    1    2    0    0  0.21864127774E+03 -0.52686291729E+03 -0.35444723915E+03  0.67780693339E+03  0.91656160043E+02 0.  0.
         13    1    3    3    0    0  0.34219060504E+02 -0.17548198534E+03 -0.13744453300E+03  0.22551246292E+03  0.00000000000E+00 0. -1.
        -13    1    3    3    0    0  0.18442221723E+03 -0.35138093194E+03 -0.21700270614E+03  0.45229447047E+03  0.00000000000E+00 0.  1.
         22    1    1    2    0    0 -0.21864127774E+03  0.52686291729E+03 -0.52385609620E+03  0.77447643700E+03  0.00000000000E+00 0. -1.
<mgrwt>
<rscale>  0 0.11565942E+04</rscale>
<asrwt>0</asrwt>
<pdfrwt beam="1">  1        1 0.44152311E-01 0.11565942E+04</pdfrwt>
<pdfrwt beam="2">  1       -1 0.17927590E+00 0.11565942E+04</pdfrwt>
<totfact> 0.19427060E+01</totfact>
</mgrwt>
</event>
<event>
 6    1  0.2238133E-007  0.1462334E+04  0.7818608E-02  0.8909894E-01
          4   -1    0    0  501    0  0.00000000000E+00  0.00000000000E+00  0.76326345982E+03  0.76326345982E+03  0.00000000000E+00 0. -1.
         -4   -1    0    0    0  501 -0.00000000000E+00 -0.00000000000E+00 -0.70042046626E+03  0.70042046626E+03  0.00000000000E+00 0.  1.
         23    2    1    2    0    0  0.14058817226E+03 -0.53340599724E+03 -0.44446367361E+03  0.71425277739E+03  0.91225439348E+02 0.  0.
         13    1    3    3    0    0  0.77557829717E+02 -0.43767107225E+03 -0.35438277659E+03  0.56847017228E+03  0.00000000000E+00 0.  1.
        -13    1    3    3    0    0  0.63030342547E+02 -0.95734924995E+02 -0.90080897023E+02  0.14578260511E+03  0.00000000000E+00 0. -1.
         22    1    1    2    0    0 -0.14058817226E+03  0.53340599724E+03  0.50730666716E+03  0.74943114868E+03  0.00000000000E+00 0. -1.
<mgrwt>
<rscale>  0 0.14623342E+04</rscale>
<asrwt>0</asrwt>
<pdfrwt beam="1">  1        4 0.11742515E+00 0.14623342E+04</pdfrwt>
<pdfrwt beam="2">  1       -4 0.10775699E+00 0.14623342E+04</pdfrwt>
<totfact> 0.74623926E-01</totfact>
</mgrwt>
</event>
<event>
 6    1  0.2238133E-007  0.9061126E+03  0.7818608E-02  0.9417973E-01
          1   -1    0    0  501    0  0.00000000000E+00  0.00000000000E+00  0.24409277754E+03  0.24409277754E+03  0.00000000000E+00 0. -1.
         -1   -1    0    0    0  501 -0.00000000000E+00 -0.00000000000E+00 -0.84090973078E+03  0.84090973078E+03  0.00000000000E+00 0.  1.
         23    2    1    2    0    0  0.39421856859E+03  0.14854647739E+03 -0.48588781550E+03  0.64936549271E+03  0.90079065811E+02 0.  0.
         13    1    3    3    0    0  0.11179403662E+03  0.69315765711E+02 -0.20273098208E+03  0.24166595353E+03  0.00000000000E+00 0.  1.
        -13    1    3    3    0    0  0.28242453197E+03  0.79230711679E+02 -0.28315683342E+03  0.40769953917E+03  0.00000000000E+00 0. -1.
         22    1    1    2    0    0 -0.39421856859E+03 -0.14854647739E+03 -0.11092913774E+03  0.43563701561E+03  0.00000000000E+00 0. -1.
<mgrwt>
<rscale>  0 0.90611256E+03</rscale>
<asrwt>0</asrwt>
<pdfrwt beam="1">  1        1 0.37552736E-01 0.90611256E+03</pdfrwt>
<pdfrwt beam="2">  1       -1 0.12937073E+00 0.90611256E+03</pdfrwt>
<totfact> 0.59383803E+01</totfact>
</mgrwt>
</event>
<event>
 6    1  0.2238133E-007  0.9847937E+03  0.7818608E-02  0.9325382E-01
          2   -1    0    0  501    0  0.00000000000E+00  0.00000000000E+00  0.10330201650E+04  0.10330201650E+04  0.00000000000E+00 0. -1.
         -2   -1    0    0    0  501 -0.00000000000E+00 -0.00000000000E+00 -0.23470469433E+03  0.23470469433E+03  0.00000000000E+00 0.  1.
         23    2    1    2    0    0 -0.10029675365E+03  0.23018380426E+03 -0.13718862431E+03  0.29911145128E+03  0.87194719483E+02 0.  0.
         13    1    3    3    0    0 -0.74357023795E+02  0.67583879855E+02 -0.62274167540E+02  0.11821429586E+03  0.00000000000E+00 0.  1.
        -13    1    3    3    0    0 -0.25939729856E+02  0.16259992441E+03 -0.74914456774E+02  0.18089715541E+03  0.00000000000E+00 0. -1.
         22    1    1    2    0    0  0.10029675365E+03 -0.23018380426E+03  0.93550409499E+03  0.96861340807E+03  0.00000000000E+00 0. -1.
<mgrwt>
<rscale>  0 0.98479375E+03</rscale>
<asrwt>0</asrwt>
<pdfrwt beam="1">  1        2 0.15892618E+00 0.98479375E+03</pdfrwt>
<pdfrwt beam="2">  1       -2 0.36108415E-01 0.98479375E+03</pdfrwt>
<totfact> 0.17277254E+02</totfact>
</mgrwt>
</event>
<event>
 6    1  0.2238133E-007  0.2648696E+04  0.7818608E-02  0.8351846E-01
          3   -1    0    0  501    0  0.00000000000E+00  0.00000000000E+00  0.87227623358E+03  0.87227623358E+03  0.00000000000E+00 0. -1.
         -3   -1    0    0    0  501 -0.00000000000E+00 -0.00000000000E+00 -0.20107140840E+04  0.20107140840E+04  0.00000000000E+00 0.  1.
         23    2    1    2    0    0 -0.51319701831E+03 -0.87973087795E+03 -0.14886632965E+04  0.18059780335E+04  0.90225550144E+02 0.  0.
         13    1    3    3    0    0 -0.14522886582E+02 -0.62820530718E+02 -0.11358763336E+03  0.13061195874E+03  0.00000000000E+00 0.  1.
        -13    1    3    3    0    0 -0.49867413172E+03 -0.81691034723E+03 -0.13750756631E+04  0.16753660747E+04  0.00000000000E+00 0. -1.
         22    1    1    2    0    0  0.51319701831E+03  0.87973087795E+03  0.35022544599E+03  0.10770122842E+04  0.00000000000E+00 0.  1.
<mgrwt>
<rscale>  0 0.26486964E+04</rscale>
<asrwt>0</asrwt>
<pdfrwt beam="1">  1        3 0.13419635E+00 0.26486964E+04</pdfrwt>
<pdfrwt beam="2">  1       -3 0.30934062E+00 0.26486964E+04</pdfrwt>
<totfact> 0.33184746E-02</totfact>
</mgrwt>
</event>
<event>
 6    1  0.2238133E-007  0.3183190E+04  0.7818608E-02  0.8193271E-01
          1   -1    0    0  501    0  0.00000000000E+00  0.00000000000E+00  0.24286892760E+04  0.24286892760E+04  0.00000000000E+00 0. -1.
         -1   -1    0    0    0  501 -0.00000000000E+00 -0.00000000000E+00 -0.10430210832E+04  0.10430210832E+04  0.00000000000E+00 0.  1.
         23    2    1    2    0    0  0.11617078833E+04  0.67863564247E+03 -0.23147204348E+03  0.13680815694E+04  0.89198274777E+02 0.  0.
         13    1    3    3    0    0  0.24964006938E+03  0.15163640976E+03 -0.13531033828E+02  0.29239845055E+03  0.00000000000E+00 0.  1.
        -13    1    3    3    0    0  0.91206781394E+03  0.52699923271E+03 -0.21794100965E+03  0.10756831189E+04  0.00000000000E+00 0. -1.
         22    1    1    2    0    0 -0.11617078833E+04 -0.67863564247E+03  0.16171402363E+04  0.21036287898E+04  0.00000000000E+00 0. -1.
<mgrwt>
<rscale>  0 0.31831897E+04</rscale>
<asrwt>0</asrwt>
<pdfrwt beam="1">  1        1 0.37364450E+00 0.31831897E+04</pdfrwt>
<pdfrwt beam="2">  1       -1 0.16046478E+00 0.31831897E+04</pdfrwt>
<totfact> 0.36856336E-01</totfact>
</mgrwt>
</event>
<event>
 6    1  0.2238133E-007  0.1951506E+04  0.7818608E-02  0.8629635E-01
         -2   -1    0    0    0  501 -0.00000000000E+00  0.00000000000E+00  0.51630272265E+03  0.51630272265E+03  0.00000000000E+00 0.  1.
          2   -1    0    0  501    0  0.00000000000E+00 -0.00000000000E+00 -0.18440622741E+04  0.18440622741E+04  0.00000000000E+00 0. -1.
         23    2    1    2    0    0  0.16987559653E+03  0.69903121373E+03 -0.14586711909E+04  0.16291740413E+04  0.94784267893E+02 0.  0.
         13    1    3    3    0    0  0.11909333189E+03  0.34820541995E+03 -0.66762936453E+03  0.76233798578E+03  0.00000000000E+00 0.  1.
        -13    1    3    3    0    0  0.50782264642E+02  0.35082579378E+03 -0.79104182642E+03  0.86683605550E+03  0.00000000000E+00 0. -1.
         22    1    1    2    0    0 -0.16987559653E+03 -0.69903121373E+03  0.13091163945E+03  0.73119095550E+03  0.00000000000E+00 0.  1.
<mgrwt>
<rscale>  0 0.19515065E+04</rscale>
<asrwt>0</asrwt>
<pdfrwt beam="1">  1        2 0.28370188E+00 0.19515065E+04</pdfrwt>
<pdfrwt beam="2">  1       -2 0.79431189E-01 0.19515065E+04</pdfrwt>
<totfact> 0.10684851E+01</totfact>
</mgrwt>
</event>
<event>
 6    1  0.2238133E-007  0.2538227E+04  0.7818608E-02  0.8389492E-01
          2   -1    0    0  501    0  0.00000000000E+00  0.00000000000E+00  0.35575248936E+04  0.35575248936E+04  0.00000000000E+00 0. -1.
         -2   -1    0    0    0  501 -0.00000000000E+00 -0.00000000000E+00 -0.45274438698E+03  0.45274438698E+03  0.00000000000E+00 0.  1.
         23    2    1    2    0    0  0.25064319875E+03  0.11406656082E+04  0.77648463457E+03  0.14054848921E+04  0.92300332694E+02 0.  0.
         13    1    3    3    0    0  0.19426375191E+03  0.79904224110E+03  0.50001668317E+03  0.96240510796E+03  0.00000000000E+00 0. -1.
        -13    1    3    3    0    0  0.56379446845E+02  0.34162336708E+03  0.27646795141E+03  0.44307978414E+03  0.00000000000E+00 0.  1.
         22    1    1    2    0    0 -0.25064319875E+03 -0.11406656082E+04  0.23282958721E+04  0.26047843885E+04  0.00000000000E+00 0.  1.
<mgrwt>
<rscale>  0 0.25382273E+04</rscale>
<asrwt>0</asrwt>
<pdfrwt beam="1">  1        2 0.54731150E+00 0.25382273E+04</pdfrwt>
<pdfrwt beam="2">  1       -2 0.69652985E-01 0.25382273E+04</pdfrwt>
<totfact> 0.12386052E+00</totfact>
</mgrwt>
</event>
<event>
 6    1  0.2238133E-007  0.2817271E+04  0.7818608E-02  0.8297926E-01
         -2   -1    0    0    0  501 -0.00000000000E+00  0.00000000000E+00  0.18540415208E+04  0.18540415208E+04  0.00000000000E+00 0.  1.
          2   -1    0    0  501    0  0.00000000000E+00 -0.00000000000E+00 -0.10702315271E+04  0.10702315271E+04  0.00000000000E+00 0. -1.
         23    2    1    2    0    0  0.30751688782E+03  0.96219232521E+03 -0.62458427249E+03  0.11910808728E+04  0.90484390909E+02 0.  0.
         11    1    3    3    0    0  0.82014097917E+02  0.14804285612E+03 -0.11164724869E+03  0.20275134437E+03  0.00000000000E+00 0. -1.
        -11    1    3    3    0    0  0.22550278991E+03  0.81414946909E+03 -0.51293702381E+03  0.98832952838E+03  0.00000000000E+00 0.  1.
         22    1    1    2    0    0 -0.30751688782E+03 -0.96219232521E+03  0.14083942662E+04  0.17331921752E+04  0.00000000000E+00 0.  1.
<mgrwt>
<rscale>  0 0.28172708E+04</rscale>
<asrwt>0</asrwt>
<pdfrwt beam="1">  1        2 0.16465101E+00 0.28172708E+04</pdfrwt>
<pdfrwt beam="2">  1       -2 0.28523716E+00 0.28172708E+04</pdfrwt>
<totfact> 0.77286655E-01</totfact>
</mgrwt>
</event>
<event>
 6    1  0.2238133E-007  0.3259439E+04  0.7818608E-02  0.8173293E-01
          2   -1    0    0  501    0  0.00000000000E+00  0.00000000000E+00  0.13930290582E+04  0.13930290582E+04  0.00000000000E+00 0. -1.
         -2   -1    0    0    0  501 -0.00000000000E+00 -0.00000000000E+00 -0.19066266624E+04  0.19066266624E+04  0.00000000000E+00 0.  1.
         23    2    1    2    0    0 -0.15648344044E+04  0.43030973930E+03 -0.39276291304E+03  0.16722423719E+04  0.90877169110E+02 0.  0.
         13    1    3    3    0    0 -0.11963985368E+04  0.36776218239E+03 -0.31062623877E+03  0.12896151139E+04  0.00000000000E+00 0. -1.
        -13    1    3    3    0    0 -0.36843586752E+03  0.62547556910E+02 -0.82136674265E+02  0.38262725806E+03  0.00000000000E+00 0.  1.
         22    1    1    2    0    0  0.15648344044E+04 -0.43030973930E+03 -0.12083469126E+03  0.16274133487E+04  0.00000000000E+00 0. -1.
<mgrwt>
<rscale>  0 0.32594394E+04</rscale>
<asrwt>0</asrwt>
<pdfrwt beam="1">  1        2 0.21431216E+00 0.32594394E+04</pdfrwt>
<pdfrwt beam="2">  1       -2 0.29332718E+00 0.32594394E+04</pdfrwt>
<totfact> 0.42726672E-01</totfact>
</mgrwt>
</event>
<event>
 6    1  0.3765328E-007  0.3949916E+04  0.7818608E-02  0.8014727E-01
          2   -1    0    0  501    0  0.00000000000E+00  0.00000000000E+00  0.28767378856E+04  0.28767378856E+04  0.00000000000E+00 0. -1.
         -2   -1    0    0    0  501 -0.00000000000E+00 -0.00000000000E+00 -0.13558616692E+04  0.13558616692E+04  0.00000000000E+00 0.  1.
         23    2    1    2    0    0 -0.22427733361E+03 -0.51905142277E+03 -0.12656362676E+04  0.13892975086E+04  0.92723802439E+02 0.  0.
         11    1    3    3    0    0 -0.75207825744E+02 -0.28948262019E+03 -0.67779362897E+03  0.74085127247E+03  0.00000000000E+00 0. -1.
        -11    1    3    3    0    0 -0.14906950786E+03 -0.22956880258E+03 -0.58784263866E+03  0.64844623611E+03  0.00000000000E+00 0.  1.
         22    1    1    2    0    0  0.22427733361E+03  0.51905142277E+03  0.27865124841E+04  0.28433020462E+04  0.00000000000E+00 0. -1.
<mgrwt>
<rscale>  0 0.39499158E+04</rscale>
<asrwt>0</asrwt>
<pdfrwt beam="1">  1        2 0.44257506E+00 0.39499158E+04</pdfrwt>
<pdfrwt beam="2">  1       -2 0.20859410E+00 0.39499158E+04</pdfrwt>
<totfact> 0.19221405E-01</totfact>
</mgrwt>
</event>
<event>
 6    1  0.2238133E-007  0.2188449E+04  0.7818608E-02  0.8523251E-01
         -2   -1    0    0    0  501 -0.00000000000E+00  0.00000000000E+00  0.41589845973E+03  0.41589845973E+03  0.00000000000E+00 0.  1.
          2   -1    0    0  501    0  0.00000000000E+00 -0.00000000000E+00 -0.28788922429E+04  0.28788922429E+04  0.00000000000E+00 0. -1.
         23    2    1    2    0    0  0.49044903936E+03 -0.29748381399E+03  0.16486876099E+03  0.60505122996E+03  0.99339834528E+02 0.  0.
         11    1    3    3    0    0  0.10943026684E+03 -0.21636685027E+02  0.38140463065E+02  0.11788903410E+03  0.00000000000E+00 0.  1.
        -11    1    3    3    0    0  0.38101877253E+03 -0.27584712896E+03  0.12672829793E+03  0.48716219585E+03  0.00000000000E+00 0. -1.
         22    1    1    2    0    0 -0.49044903936E+03  0.29748381399E+03 -0.26278625442E+04  0.26897394727E+04  0.00000000000E+00 0. -1.
<mgrwt>
<rscale>  0 0.21884486E+04</rscale>
<asrwt>0</asrwt>
<pdfrwt beam="1">  1        2 0.44290649E+00 0.21884486E+04</pdfrwt>
<pdfrwt beam="2">  1       -2 0.63984379E-01 0.21884486E+04</pdfrwt>
<totfact> 0.42808146E+00</totfact>
</mgrwt>
</event>
<event>
 6    1  0.2238133E-007  0.3185337E+04  0.7818608E-02  0.8192700E-01
          2   -1    0    0  501    0  0.00000000000E+00  0.00000000000E+00  0.29852669695E+04  0.29852669695E+04  0.00000000000E+00 0. -1.
         -2   -1    0    0    0  501 -0.00000000000E+00 -0.00000000000E+00 -0.84970410820E+03  0.84970410820E+03  0.00000000000E+00 0.  1.
         23    2    1    2    0    0  0.13730634170E+04 -0.67196858309E+03  0.53622665843E+03  0.16225693932E+04  0.91364559634E+02 0.  0.
         11    1    3    3    0    0  0.86385691711E+03 -0.37803512744E+03  0.31013787471E+03  0.99264537078E+03  0.00000000000E+00 0. -1.
        -11    1    3    3    0    0  0.50920649988E+03 -0.29393345565E+03  0.22608878372E+03  0.62992402240E+03  0.00000000000E+00 0.  1.
         22    1    1    2    0    0 -0.13730634170E+04  0.67196858309E+03  0.15993362028E+04  0.22124016845E+04  0.00000000000E+00 0.  1.
<mgrwt>
<rscale>  0 0.31853374E+04</rscale>
<asrwt>0</asrwt>
<pdfrwt beam="1">  1        2 0.45927184E+00 0.31853374E+04</pdfrwt>
<pdfrwt beam="2">  1       -2 0.13072371E+00 0.31853374E+04</pdfrwt>
<totfact> 0.64166810E-01</totfact>
</mgrwt>
</event>
<event>
 6    1  0.2238133E-007  0.1888389E+04  0.7818608E-02  0.8660658E-01
         -1   -1    0    0    0  501 -0.00000000000E+00  0.00000000000E+00  0.10734086619E+04  0.10734086619E+04  0.00000000000E+00 0.  1.
          1   -1    0    0  501    0  0.00000000000E+00 -0.00000000000E+00 -0.83053441118E+03  0.83053441118E+03  0.00000000000E+00 0. -1.
         23    2    1    2    0    0  0.55160671836E+03  0.68827611766E+03 -0.21049382379E+03  0.91220893692E+03  0.99113615852E+02 0.  0.
         13    1    3    3    0    0  0.23335688344E+03  0.30705541681E+03 -0.14166184274E+03  0.41086073277E+03  0.00000000000E+00 0.  1.
        -13    1    3    3    0    0  0.31824983493E+03  0.38122070085E+03 -0.68831981046E+02  0.50134820415E+03  0.00000000000E+00 0. -1.
         22    1    1    2    0    0 -0.55160671836E+03 -0.68827611766E+03  0.45336807455E+03  0.99173413620E+03  0.00000000000E+00 0.  1.
<mgrwt>
<rscale>  0 0.18883886E+04</rscale>
<asrwt>0</asrwt>
<pdfrwt beam="1">  1        1 0.12777452E+00 0.18883886E+04</pdfrwt>
<pdfrwt beam="2">  1       -1 0.16513979E+00 0.18883886E+04</pdfrwt>
<totfact> 0.52093598E+00</totfact>
</mgrwt>
</event>
<event>
 6    1  0.2238133E-007  0.6225453E+04  0.7818608E-02  0.7663060E-01
          2   -1    0    0  501    0  0.00000000000E+00  0.00000000000E+00  0.32069832089E+04  0.32069832089E+04  0.00000000000E+00 0. -1.
         -2   -1    0    0    0  501 -0.00000000000E+00 -0.00000000000E+00 -0.30212404760E+04  0.30212404760E+04  0.00000000000E+00 0.  1.
         23    2    1    2    0    0 -0.29312505159E+04  0.57284793376E+03  0.96773104992E+03  0.31408477651E+04  0.89649075000E+02 0.  0.
         13    1    3    3    0    0 -0.10367726335E+04  0.20498254386E+03  0.38755201716E+03  0.11256606517E+04  0.00000000000E+00 0. -1.
        -13    1    3    3    0    0 -0.18944778824E+04  0.36786538989E+03  0.58017903276E+03  0.20151871134E+04  0.00000000000E+00 0.  1.
         22    1    1    2    0    0  0.29312505159E+04 -0.57284793376E+03 -0.78198831710E+03  0.30873759198E+04  0.00000000000E+00 0. -1.
<mgrwt>
<rscale>  0 0.62254534E+04</rscale>
<asrwt>0</asrwt>
<pdfrwt beam="1">  1        2 0.49338203E+00 0.62254534E+04</pdfrwt>
<pdfrwt beam="2">  1       -2 0.46480623E+00 0.62254534E+04</pdfrwt>
<totfact> 0.23677614E-03</totfact>
</mgrwt>
</event>
<event>
 6    1  0.2238133E-007  0.3037640E+04  0.7818608E-02  0.8233064E-01
          2   -1    0    0  501    0  0.00000000000E+00  0.00000000000E+00  0.23128358308E+04  0.23128358308E+04  0.00000000000E+00 0. -1.
         -2   -1    0    0    0  501 -0.00000000000E+00 -0.00000000000E+00 -0.99739622892E+03  0.99739622892E+03  0.00000000000E+00 0.  1.
         23    2    1    2    0    0  0.14340448896E+04  0.32603171804E+03  0.10669107377E+04  0.18187401814E+04  0.82072521786E+02 0.  0.
         11    1    3    3    0    0  0.70031915188E+03  0.20098545567E+03  0.52158605891E+03  0.89604357301E+03  0.00000000000E+00 0. -1.
        -11    1    3    3    0    0  0.73372573772E+03  0.12504626237E+03  0.54532467879E+03  0.92269660844E+03  0.00000000000E+00 0.  1.
         22    1    1    2    0    0 -0.14340448896E+04 -0.32603171804E+03  0.24852886415E+03  0.14914918782E+04  0.00000000000E+00 0. -1.
<mgrwt>
<rscale>  0 0.30376397E+04</rscale>
<asrwt>0</asrwt>
<pdfrwt beam="1">  1        2 0.35582090E+00 0.30376397E+04</pdfrwt>
<pdfrwt beam="2">  1       -2 0.15344557E+00 0.30376397E+04</pdfrwt>
<totfact> 0.10728966E+00</totfact>
</mgrwt>
</event>
<event>
 6    1  0.2238133E-007  0.2885106E+04  0.7818608E-02  0.8277323E-01
         -2   -1    0    0    0  501 -0.00000000000E+00  0.00000000000E+00  0.11507377261E+04  0.11507377261E+04  0.00000000000E+00 0.  1.
          2   -1    0    0  501    0  0.00000000000E+00 -0.00000000000E+00 -0.18083695330E+04  0.18083695330E+04  0.00000000000E+00 0. -1.
         23    2    1    2    0    0  0.78876879932E+03 -0.11572049407E+04 -0.67773668773E+03  0.15585060668E+04  0.91294296751E+02 0.  0.
         11    1    3    3    0    0  0.77067533400E+03 -0.11395013568E+04 -0.67693077256E+03  0.15331794035E+04  0.00000000000E+00 0.  1.
        -11    1    3    3    0    0  0.18093465323E+02 -0.17703583992E+02 -0.80591517049E+00  0.25326663278E+02  0.00000000000E+00 0. -1.
         22    1    1    2    0    0 -0.78876879932E+03  0.11572049407E+04  0.20104880873E+02  0.14006011923E+04  0.00000000000E+00 0.  1.
<mgrwt>
<rscale>  0 0.28851059E+04</rscale>
<asrwt>0</asrwt>
<pdfrwt beam="1">  1        2 0.27821070E+00 0.28851059E+04</pdfrwt>
<pdfrwt beam="2">  1       -2 0.17703657E+00 0.28851059E+04</pdfrwt>
<totfact> 0.14027741E+00</totfact>
</mgrwt>
</event>
<event>
 6    1  0.2238133E-007  0.1183400E+04  0.7818608E-02  0.9127512E-01
         -2   -1    0    0    0  501 -0.00000000000E+00  0.00000000000E+00  0.16405951911E+03  0.16405951911E+03  0.00000000000E+00 0.  1.
          2   -1    0    0  501    0  0.00000000000E+00 -0.00000000000E+00 -0.21340346447E+04  0.21340346447E+04  0.00000000000E+00 0. -1.
         23    2    1    2    0    0  0.39223528278E+03  0.42337862897E+03 -0.77963556380E+03  0.97521614491E+03  0.10058298273E+03 0.  0.
         13    1    3    3    0    0  0.22146462640E+03  0.20335047107E+03 -0.47764455299E+03  0.56439552960E+03  0.00000000000E+00 0. -1.
        -13    1    3    3    0    0  0.17077065638E+03  0.22002815790E+03 -0.30199101081E+03  0.41082061531E+03  0.00000000000E+00 0.  1.
         22    1    1    2    0    0 -0.39223528278E+03 -0.42337862897E+03 -0.11903395618E+04  0.13228780189E+04  0.00000000000E+00 0.  1.
<mgrwt>
<rscale>  0 0.11833997E+04</rscale>
<asrwt>0</asrwt>
<pdfrwt beam="1">  1        2 0.32831303E+00 0.11833997E+04</pdfrwt>
<pdfrwt beam="2">  1       -2 0.25239926E-01 0.11833997E+04</pdfrwt>
<totfact> 0.78522675E+01</totfact>
</mgrwt>
</event>
<event>
 6    1  0.2238133E-007  0.2258787E+04  0.7818608E-02  0.8494350E-01
         -2   -1    0    0    0  501 -0.00000000000E+00  0.00000000000E+00  0.40493771906E+03  0.40493771906E+03  0.00000000000E+00 0.  1.
          2   -1    0    0  501    0  0.00000000000E+00 -0.00000000000E+00 -0.31499413851E+04  0.31499413851E+04  0.00000000000E+00 0. -1.
         23    2    1    2    0    0 -0.22487990140E+03  0.88445164569E+03 -0.24170167343E+04  0.25851362975E+04  0.90189240850E+02 0.  0.
         13    1    3    3    0    0 -0.34569265488E+02  0.28308269281E+03 -0.69529341799E+03  0.75150767274E+03  0.00000000000E+00 0.  1.
        -13    1    3    3    0    0 -0.19031063591E+03  0.60136895288E+03 -0.17217233164E+04  0.18336286248E+04  0.00000000000E+00 0. -1.
         22    1    1    2    0    0  0.22487990140E+03 -0.88445164569E+03 -0.32798693170E+03  0.96974280662E+03  0.00000000000E+00 0.  1.
<mgrwt>
<rscale>  0 0.22587874E+04</rscale>
<asrwt>0</asrwt>
<pdfrwt beam="1">  1        2 0.48460636E+00 0.22587874E+04</pdfrwt>
<pdfrwt beam="2">  1       -2 0.62298111E-01 0.22587874E+04</pdfrwt>
<totfact> 0.30443468E+00</totfact>
</mgrwt>
</event>
<event>
 6    1  0.2238133E-007  0.3716506E+04  0.7818608E-02  0.8064314E-01
          3   -1    0    0  501    0  0.00000000000E+00  0.00000000000E+00  0.12045868140E+04  0.12045868140E+04  0.00000000000E+00 0. -1.
         -3   -1    0    0    0  501 -0.00000000000E+00 -0.00000000000E+00 -0.28666298842E+04  0.28666298842E+04  0.00000000000E+00 0.  1.
         23    2    1    2    0    0  0.96683004905E+02  0.18406826263E+04 -0.10800877443E+04  0.21383090088E+04  0.91190718912E+02 0.  0.
         13    1    3    3    0    0 -0.11338501374E+02  0.96193919989E+02 -0.43193221675E+02  0.10605416661E+03  0.00000000000E+00 0. -1.
        -13    1    3    3    0    0  0.10802150628E+03  0.17444887063E+04 -0.10368945227E+04  0.20322548422E+04  0.00000000000E+00 0.  1.
         22    1    1    2    0    0 -0.96683004905E+02 -0.18406826263E+04 -0.58195532589E+03  0.19329076894E+04  0.00000000000E+00 0. -1.
<mgrwt>
<rscale>  0 0.37165062E+04</rscale>
<asrwt>0</asrwt>
<pdfrwt beam="1">  1        3 0.18532105E+00 0.37165062E+04</pdfrwt>
<pdfrwt beam="2">  1       -3 0.44101998E+00 0.37165062E+04</pdfrwt>
<totfact> 0.24029899E-03</totfact>
</mgrwt>
</event>
<event>
 6    1  0.2238133E-007  0.1430929E+04  0.7818608E-02  0.8931730E-01
         -2   -1    0    0    0  501 -0.00000000000E+00  0.00000000000E+00  0.19663999311E+03  0.19663999311E+03  0.00000000000E+00 0.  1.
          2   -1    0    0  501    0  0.00000000000E+00 -0.00000000000E+00 -0.26031799056E+04  0.26031799056E+04  0.00000000000E+00 0. -1.
         23    2    1    2    0    0 -0.13497645577E+03  0.69941932692E+03 -0.11750344733E+04  0.13771422524E+04  0.91699135882E+02 0.  0.
         11    1    3    3    0    0 -0.83668692215E+02  0.35293320433E+03 -0.51475006700E+03  0.62970622377E+03  0.00000000000E+00 0. -1.
        -11    1    3    3    0    0 -0.51307763557E+02  0.34648612258E+03 -0.66028440629E+03  0.74743602865E+03  0.00000000000E+00 0.  1.
         22    1    1    2    0    0  0.13497645577E+03 -0.69941932692E+03 -0.12315054392E+04  0.14226776463E+04  0.00000000000E+00 0. -1.
<mgrwt>
<rscale>  0 0.14309288E+04</rscale>
<asrwt>0</asrwt>
<pdfrwt beam="1">  1        2 0.40048920E+00 0.14309288E+04</pdfrwt>
<pdfrwt beam="2">  1       -2 0.30252308E-01 0.14309288E+04</pdfrwt>
<totfact> 0.29833713E+01</totfact>
</mgrwt>
</event>
<event>
 6    1  0.2238133E-007  0.1313040E+04  0.7818608E-02  0.9019288E-01
          2   -1    0    0  501    0  0.00000000000E+00  0.00000000000E+00  0.13803944233E+04  0.13803944233E+04  0.00000000000E+00 0. -1.
         -2   -1    0    0    0  501 -0.00000000000E+00 -0.00000000000E+00 -0.31224299697E+03  0.31224299697E+03  0.00000000000E+00 0.  1.
         23    2    1    2    0    0  0.46478278136E+03 -0.74769967660E+02  0.11196933856E+04  0.12190657198E+04  0.10389595510E+03 0.  0.
         11    1    3    3    0    0  0.21253117781E+03 -0.55434215911E+02  0.40204512765E+03  0.45812960885E+03  0.00000000000E+00 0. -1.
        -11    1    3    3    0    0  0.25225160355E+03 -0.19335751749E+02  0.71764825799E+03  0.76093611097E+03  0.00000000000E+00 0.  1.
         22    1    1    2    0    0 -0.46478278136E+03  0.74769967660E+02 -0.51541959294E+02  0.47357170046E+03  0.00000000000E+00 0.  1.
<mgrwt>
<rscale>  0 0.13130400E+04</rscale>
<asrwt>0</asrwt>
<pdfrwt beam="1">  1        2 0.21236837E+00 0.13130400E+04</pdfrwt>
<pdfrwt beam="2">  1       -2 0.48037385E-01 0.13130400E+04</pdfrwt>
<totfact> 0.59689033E+01</totfact>
</mgrwt>
</event>
<event>
 6    1  0.2238133E-007  0.1058451E+04  0.7818608E-02  0.9246663E-01
         -2   -1    0    0    0  501 -0.00000000000E+00  0.00000000000E+00  0.28628049078E+03  0.28628049078E+03  0.00000000000E+00 0.  1.
          2   -1    0    0  501    0  0.00000000000E+00 -0.00000000000E+00 -0.97833899361E+03  0.97833899361E+03  0.00000000000E+00 0. -1.
         23    2    1    2    0    0  0.16139869516E+03  0.49161586740E+03 -0.24289651346E+03  0.57943177830E+03  0.94904001878E+02 0.  0.
         13    1    3    3    0    0  0.52483429252E+02  0.30903197065E+03 -0.14593056847E+03  0.34576147855E+03  0.00000000000E+00 0.  1.
        -13    1    3    3    0    0  0.10891526591E+03  0.18258389675E+03 -0.96965944984E+02  0.23367029975E+03  0.00000000000E+00 0. -1.
         22    1    1    2    0    0 -0.16139869516E+03 -0.49161586740E+03 -0.44916198937E+03  0.68518770609E+03  0.00000000000E+00 0.  1.
<mgrwt>
<rscale>  0 0.10584505E+04</rscale>
<asrwt>0</asrwt>
<pdfrwt beam="1">  1        2 0.15051369E+00 0.10584505E+04</pdfrwt>
<pdfrwt beam="2">  1       -2 0.44043153E-01 0.10584505E+04</pdfrwt>
<totfact> 0.12650627E+02</totfact>
</mgrwt>
</event>
<event>
 6    1  0.2238133E-007  0.1519922E+04  0.7818608E-02  0.8871312E-01
         -2   -1    0    0    0  501 -0.00000000000E+00  0.00000000000E+00  0.35385159466E+03  0.35385159466E+03  0.00000000000E+00 0.  1.
          2   -1    0    0  501    0  0.00000000000E+00 -0.00000000000E+00 -0.16321543025E+04  0.16321543025E+04  0.00000000000E+00 0. -1.
         23    2    1    2    0    0  0.20510220175E+03 -0.36301708846E+03 -0.14672376684E+04  0.15282453276E+04  0.94334968026E+02 0.  0.
         11    1    3    3    0    0  0.15018035752E+03 -0.17046078805E+03 -0.76572375239E+03  0.79871389434E+03  0.00000000000E+00 0.  1.
        -11    1    3    3    0    0  0.54921844226E+02 -0.19255630042E+03 -0.70151391599E+03  0.72953143327E+03  0.00000000000E+00 0. -1.
         22    1    1    2    0    0 -0.20510220175E+03  0.36301708846E+03  0.18893496056E+03  0.45776056951E+03  0.00000000000E+00 0.  1.
<mgrwt>
<rscale>  0 0.15199216E+04</rscale>
<asrwt>0</asrwt>
<pdfrwt beam="1">  1        2 0.25110066E+00 0.15199216E+04</pdfrwt>
<pdfrwt beam="2">  1       -2 0.54438706E-01 0.15199216E+04</pdfrwt>
<totfact> 0.32778926E+01</totfact>
</mgrwt>
</event>
<event>
 6    1  0.2238133E-007  0.3053188E+04  0.7818608E-02  0.8228704E-01
          1   -1    0    0  501    0  0.00000000000E+00  0.00000000000E+00  0.10815990311E+04  0.10815990311E+04  0.00000000000E+00 0. -1.
         -1   -1    0    0    0  501 -0.00000000000E+00 -0.00000000000E+00 -0.21546705908E+04  0.21546705908E+04  0.00000000000E+00 0.  1.
         23    2    1    2    0    0 -0.13126676149E+04  0.75385519693E+03 -0.73503760386E+03  0.16852503182E+04  0.91621124969E+02 0.  0.
         11    1    3    3    0    0 -0.55526259741E+03  0.29251440803E+03 -0.34802139391E+03  0.71763508944E+03  0.00000000000E+00 0. -1.
        -11    1    3    3    0    0 -0.75740501753E+03  0.46134078891E+03 -0.38701620995E+03  0.96761522872E+03  0.00000000000E+00 0.  1.
         22    1    1    2    0    0  0.13126676149E+04 -0.75385519693E+03 -0.33803395581E+03  0.15510193037E+04  0.00000000000E+00 0.  1.
<mgrwt>
<rscale>  0 0.30531883E+04</rscale>
<asrwt>0</asrwt>
<pdfrwt beam="1">  1        1 0.16639985E+00 0.30531883E+04</pdfrwt>
<pdfrwt beam="2">  1       -1 0.33148778E+00 0.30531883E+04</pdfrwt>
<totfact> 0.22824469E-01</totfact>
</mgrwt>
</event>
<event>
 6    1  0.2238133E-007  0.7099638E+04  0.7818608E-02  0.7567246E-01
          2   -1    0    0  501    0  0.00000000000E+00  0.00000000000E+00  0.30374026767E+04  0.30374026767E+04  0.00000000000E+00 0. -1.
         -2   -1    0    0    0  501 -0.00000000000E+00 -0.00000000000E+00 -0.41486806062E+04  0.41486806062E+04  0.00000000000E+00 0.  1.
         23    2    1    2    0    0  0.20096558768E+04 -0.25198860311E+04  0.94847041439E+03  0.33610204608E+04  0.91214352019E+02 0.  0.
         13    1    3    3    0    0  0.93585798969E+03 -0.12339060590E+04  0.42889822005E+03  0.16069561358E+04  0.00000000000E+00 0. -1.
        -13    1    3    3    0    0  0.10737978871E+04 -0.12859799722E+04  0.51957219434E+03  0.17540643250E+04  0.00000000000E+00 0.  1.
         22    1    1    2    0    0 -0.20096558768E+04  0.25198860311E+04 -0.20597483439E+04  0.38250628221E+04  0.00000000000E+00 0. -1.
<mgrwt>
<rscale>  0 0.70996376E+04</rscale>
<asrwt>0</asrwt>
<pdfrwt beam="1">  1        2 0.46729272E+00 0.70996376E+04</pdfrwt>
<pdfrwt beam="2">  1       -2 0.63825855E+00 0.70996376E+04</pdfrwt>
<totfact> 0.38737645E-04</totfact>
</mgrwt>
</event>
<event>
 6    1  0.2238133E-007  0.3438473E+04  0.7818608E-02  0.8128528E-01
         -2   -1    0    0    0  501 -0.00000000000E+00  0.00000000000E+00  0.11074815297E+04  0.11074815297E+04  0.00000000000E+00 0.  1.
          2   -1    0    0  501    0  0.00000000000E+00 -0.00000000000E+00 -0.26689150881E+04  0.26689150881E+04  0.00000000000E+00 0. -1.
         23    2    1    2    0    0 -0.10439120774E+04  0.79017765666E+02  0.71485891479E+03  0.12709019250E+04  0.90400233250E+02 0.  0.
         11    1    3    3    0    0 -0.83801745794E+03  0.45265269351E+02  0.60915146147E+03  0.10370090199E+04  0.00000000000E+00 0. -1.
        -11    1    3    3    0    0 -0.20589461949E+03  0.33752496315E+02  0.10570745332E+03  0.23389290504E+03  0.00000000000E+00 0.  1.
         22    1    1    2    0    0  0.10439120774E+04 -0.79017765666E+02 -0.22762924732E+04  0.25054946929E+04  0.00000000000E+00 0. -1.
<mgrwt>
<rscale>  0 0.34384730E+04</rscale>
<asrwt>0</asrwt>
<pdfrwt beam="1">  1        2 0.41060232E+00 0.34384730E+04</pdfrwt>
<pdfrwt beam="2">  1       -2 0.17038177E+00 0.34384730E+04</pdfrwt>
<totfact> 0.48455700E-01</totfact>
</mgrwt>
</event>
<event>
 6    1  0.2238133E-007  0.1121988E+04  0.7818608E-02  0.9184022E-01
          2   -1    0    0  501    0  0.00000000000E+00  0.00000000000E+00  0.17874069902E+04  0.17874069902E+04  0.00000000000E+00 0. -1.
         -2   -1    0    0    0  501 -0.00000000000E+00 -0.00000000000E+00 -0.17607314341E+03  0.17607314341E+03  0.00000000000E+00 0.  1.
         23    2    1    2    0    0 -0.35308021535E+03 -0.28795131451E+03  0.24797890283E+03  0.52601072482E+03  0.87247626812E+02 0.  0.
         11    1    3    3    0    0 -0.12845360391E+03 -0.92084612465E+02  0.41384936585E+02  0.16337875378E+03  0.00000000000E+00 0.  1.
        -11    1    3    3    0    0 -0.22462661144E+03 -0.19586670204E+03  0.20659396625E+03  0.36263197105E+03  0.00000000000E+00 0. -1.
         22    1    1    2    0    0  0.35308021535E+03  0.28795131451E+03  0.13633549440E+04  0.14374694088E+04  0.00000000000E+00 0. -1.
<mgrwt>
<rscale>  0 0.11219882E+04</rscale>
<asrwt>0</asrwt>
<pdfrwt beam="1">  1        2 0.27498568E+00 0.11219882E+04</pdfrwt>
<pdfrwt beam="2">  1       -2 0.27088177E-01 0.11219882E+04</pdfrwt>
<totfact> 0.10777667E+02</totfact>
</mgrwt>
</event>
<event>
 6    1  0.2274636E-007  0.2950105E+04  0.7818608E-02  0.8258124E-01
          2   -1    0    0  501    0  0.00000000000E+00  0.00000000000E+00  0.21294309593E+04  0.21294309593E+04  0.00000000000E+00 0. -1.
         -2   -1    0    0    0  501 -0.00000000000E+00 -0.00000000000E+00 -0.10217660333E+04  0.10217660333E+04  0.00000000000E+00 0.  1.
         23    2    1    2    0    0  0.93719738118E+03 -0.10634582336E+04  0.98408610668E+03  0.17283287379E+04  0.97017601484E+02 0.  0.
         13    1    3    3    0    0  0.51366344448E+03 -0.51447304584E+03  0.48236977734E+03  0.87247535850E+03  0.00000000000E+00 0.  1.
        -13    1    3    3    0    0  0.42353393669E+03 -0.54898518775E+03  0.50171632934E+03  0.85585337939E+03  0.00000000000E+00 0. -1.
         22    1    1    2    0    0 -0.93719738118E+03  0.10634582336E+04  0.12357881932E+03  0.14228682548E+04  0.00000000000E+00 0.  1.
<mgrwt>
<rscale>  0 0.29501052E+04</rscale>
<asrwt>0</asrwt>
<pdfrwt beam="1">  1        2 0.32760476E+00 0.29501052E+04</pdfrwt>
<pdfrwt beam="2">  1       -2 0.15719478E+00 0.29501052E+04</pdfrwt>
<totfact> 0.12851498E+00</totfact>
</mgrwt>
</event>
<event>
 6    1  0.2238133E-007  0.5060002E+04  0.7818608E-02  0.7819317E-01
          2   -1    0    0  501    0  0.00000000000E+00  0.00000000000E+00  0.28752570509E+04  0.28752570509E+04  0.00000000000E+00 0. -1.
         -2   -1    0    0    0  501 -0.00000000000E+00 -0.00000000000E+00 -0.22262025001E+04  0.22262025001E+04  0.00000000000E+00 0.  1.
         23    2    1    2    0    0  0.10239760890E+04  0.22433760928E+04 -0.24167967163E+03  0.24795002112E+04  0.90823506504E+02 0.  0.
         13    1    3    3    0    0  0.94625694403E+03  0.20095987239E+04 -0.22423612652E+03  0.22325257167E+04  0.00000000000E+00 0.  1.
        -13    1    3    3    0    0  0.77719145011E+02  0.23377736881E+03 -0.17443545111E+02  0.24697449451E+03  0.00000000000E+00 0. -1.
         22    1    1    2    0    0 -0.10239760890E+04 -0.22433760928E+04  0.89073422242E+03  0.26219593398E+04  0.00000000000E+00 0. -1.
<mgrwt>
<rscale>  0 0.50600018E+04</rscale>
<asrwt>0</asrwt>
<pdfrwt beam="1">  1        2 0.44234724E+00 0.50600018E+04</pdfrwt>
<pdfrwt beam="2">  1       -2 0.34249269E+00 0.50600018E+04</pdfrwt>
<totfact> 0.26144133E-02</totfact>
</mgrwt>
</event>
<event>
 6    1  0.2238133E-007  0.4391647E+04  0.7818608E-02  0.7929886E-01
          2   -1    0    0  501    0  0.00000000000E+00  0.00000000000E+00  0.43546346133E+04  0.43546346133E+04  0.00000000000E+00 0. -1.
         -2   -1    0    0    0  501 -0.00000000000E+00 -0.00000000000E+00 -0.11072433984E+04  0.11072433984E+04  0.00000000000E+00 0.  1.
         23    2    1    2    0    0  0.46259241939E+03 -0.18471166979E+04  0.26661743119E+03  0.19248108380E+04  0.89331209777E+02 0.  0.
         13    1    3    3    0    0  0.39073733928E+02 -0.23173320183E+03  0.98841070513E+01  0.23521209384E+03  0.00000000000E+00 0.  1.
        -13    1    3    3    0    0  0.42351868546E+03 -0.16153834961E+04  0.25673332414E+03  0.16895987441E+04  0.00000000000E+00 0. -1.
         22    1    1    2    0    0 -0.46259241939E+03  0.18471166979E+04  0.29807737836E+04  0.35370671737E+04  0.00000000000E+00 0. -1.
<mgrwt>
<rscale>  0 0.43916468E+04</rscale>
<asrwt>0</asrwt>
<pdfrwt beam="1">  1        2 0.66994378E+00 0.43916468E+04</pdfrwt>
<pdfrwt beam="2">  1       -2 0.17034514E+00 0.43916468E+04</pdfrwt>
<totfact> 0.27210814E-02</totfact>
</mgrwt>
</event>
<event>
 6    1  0.2238133E-007  0.1609554E+04  0.7818608E-02  0.8814700E-01
         -2   -1    0    0    0  501 -0.00000000000E+00  0.00000000000E+00  0.12305202134E+04  0.12305202134E+04  0.00000000000E+00 0.  1.
          2   -1    0    0  501    0  0.00000000000E+00 -0.00000000000E+00 -0.52633538655E+03  0.52633538655E+03  0.00000000000E+00 0. -1.
         23    2    1    2    0    0 -0.35750562680E+03  0.16410258456E+03 -0.41033806693E+03  0.57494984558E+03  0.86313755063E+02 0.  0.
         11    1    3    3    0    0 -0.19275470244E+03  0.95767934961E+02 -0.16290844487E+03  0.26993524055E+03  0.00000000000E+00 0. -1.
        -11    1    3    3    0    0 -0.16475092436E+03  0.68334649599E+02 -0.24742962206E+03  0.30501460504E+03  0.00000000000E+00 0.  1.
         22    1    1    2    0    0  0.35750562680E+03 -0.16410258456E+03  0.11145228938E+04  0.11819057544E+04  0.00000000000E+00 0.  1.
<mgrwt>
<rscale>  0 0.16095544E+04</rscale>
<asrwt>0</asrwt>
<pdfrwt beam="1">  1        2 0.80974675E-01 0.16095544E+04</pdfrwt>
<pdfrwt beam="2">  1       -2 0.18931080E+00 0.16095544E+04</pdfrwt>
<totfact> 0.86963110E+00</totfact>
</mgrwt>
</event>
<event>
 6    1  0.2238133E-007  0.2864689E+04  0.7818608E-02  0.8283462E-01
         -2   -1    0    0    0  501 -0.00000000000E+00  0.00000000000E+00  0.15917456666E+04  0.15917456666E+04  0.00000000000E+00 0.  1.
          2   -1    0    0  501    0  0.00000000000E+00 -0.00000000000E+00 -0.12889060158E+04  0.12889060158E+04  0.00000000000E+00 0. -1.
         23    2    1    2    0    0 -0.30441834582E+03  0.27298299910E+03  0.15304156295E+04  0.15867687547E+04  0.92048002670E+02 0.  0.
         11    1    3    3    0    0 -0.21510361849E+03  0.19751770112E+03  0.12349163714E+04  0.12689764589E+04  0.00000000000E+00 0. -1.
        -11    1    3    3    0    0 -0.89314727331E+02  0.75465297975E+02  0.29549925810E+03  0.31779229577E+03  0.00000000000E+00 0.  1.
         22    1    1    2    0    0  0.30441834582E+03 -0.27298299910E+03 -0.12275759787E+04  0.12938829277E+04  0.00000000000E+00 0. -1.
<mgrwt>
<rscale>  0 0.28646889E+04</rscale>
<asrwt>0</asrwt>
<pdfrwt beam="1">  1        2 0.19829323E+00 0.28646889E+04</pdfrwt>
<pdfrwt beam="2">  1       -2 0.24488395E+00 0.28646889E+04</pdfrwt>
<totfact> 0.10036399E+00</totfact>
</mgrwt>
</event>
<event>
 6    1  0.2238133E-007  0.7342057E+03  0.7818608E-02  0.9660460E-01
         -2   -1    0    0    0  501 -0.00000000000E+00  0.00000000000E+00  0.30539976940E+03  0.30539976940E+03  0.00000000000E+00 0.  1.
          2   -1    0    0  501    0  0.00000000000E+00 -0.00000000000E+00 -0.44127244888E+03  0.44127244888E+03  0.00000000000E+00 0. -1.
         23    2    1    2    0    0 -0.15869593545E+03 -0.23857982845E+03  0.15465482895E+03  0.33861466398E+03  0.92935677050E+02 0.  0.
         13    1    3    3    0    0 -0.95532772962E+02 -0.62733197209E+02  0.62904951593E+02  0.13045688053E+03  0.00000000000E+00 0. -1.
        -13    1    3    3    0    0 -0.63163162489E+02 -0.17584663124E+03  0.91749877357E+02  0.20815778345E+03  0.00000000000E+00 0.  1.
         22    1    1    2    0    0  0.15869593545E+03  0.23857982845E+03 -0.29052750843E+03  0.40805755431E+03  0.00000000000E+00 0. -1.
<mgrwt>
<rscale>  0 0.73420570E+03</rscale>
<asrwt>0</asrwt>
<pdfrwt beam="1">  1        2 0.67888069E-01 0.73420570E+03</pdfrwt>
<pdfrwt beam="2">  1       -2 0.46984580E-01 0.73420570E+03</pdfrwt>
<totfact> 0.30797162E+02</totfact>
</mgrwt>
</event>
<event>
 6    1  0.2238133E-007  0.2078191E+04  0.7818608E-02  0.8570912E-01
          2   -1    0    0  501    0  0.00000000000E+00  0.00000000000E+00  0.10471339365E+04  0.10471339365E+04  0.00000000000E+00 0. -1.
         -2   -1    0    0    0  501 -0.00000000000E+00 -0.00000000000E+00 -0.10311187220E+04  0.10311187220E+04  0.00000000000E+00 0.  1.
         23    2    1    2    0    0 -0.24463389026E+03  0.39120137809E+03 -0.92101149136E+03  0.10337894922E+04  0.87030387894E+02 0.  0.
         11    1    3    3    0    0 -0.15514473383E+03  0.24572567143E+03 -0.48337985651E+03  0.56400982235E+03  0.00000000000E+00 0. -1.
        -11    1    3    3    0    0 -0.89489156427E+02  0.14547570666E+03 -0.43763163485E+03  0.46977966981E+03  0.00000000000E+00 0.  1.
         22    1    1    2    0    0  0.24463389026E+03 -0.39120137809E+03  0.93702670580E+03  0.10444631663E+04  0.00000000000E+00 0. -1.
<mgrwt>
<rscale>  0 0.20781910E+04</rscale>
<asrwt>0</asrwt>
<pdfrwt beam="1">  1        2 0.16109753E+00 0.20781910E+04</pdfrwt>
<pdfrwt beam="2">  1       -2 0.15863365E+00 0.20781910E+04</pdfrwt>
<totfact> 0.55947437E+00</totfact>
</mgrwt>
</event>
<event>
 6    1  0.2238133E-007  0.1633136E+04  0.7818608E-02  0.8800446E-01
         -2   -1    0    0    0  501 -0.00000000000E+00  0.00000000000E+00  0.69603066197E+03  0.69603066197E+03  0.00000000000E+00 0.  1.
          2   -1    0    0  501    0  0.00000000000E+00 -0.00000000000E+00 -0.95797925100E+03  0.95797925100E+03  0.00000000000E+00 0. -1.
         23    2    1    2    0    0 -0.69565968576E+03  0.99089413496E+02 -0.54740152663E+03  0.89556117386E+03  0.92845433498E+02 0.  0.
         11    1    3    3    0    0 -0.18912924851E+03  0.95162290375E+00 -0.10757290882E+03  0.21758379752E+03  0.00000000000E+00 0.  1.
        -11    1    3    3    0    0 -0.50653043725E+03  0.98137790592E+02 -0.43982861780E+03  0.67797737635E+03  0.00000000000E+00 0. -1.
         22    1    1    2    0    0  0.69565968576E+03 -0.99089413496E+02  0.28545293760E+03  0.75844873910E+03  0.00000000000E+00 0.  1.
<mgrwt>
<rscale>  0 0.16331356E+04</rscale>
<asrwt>0</asrwt>
<pdfrwt beam="1">  1        2 0.14738142E+00 0.16331356E+04</pdfrwt>
<pdfrwt beam="2">  1       -2 0.10708164E+00 0.16331356E+04</pdfrwt>
<totfact> 0.17991976E+01</totfact>
</mgrwt>
</event>
<event>
 6    1  0.2238133E-007  0.3049541E+04  0.7818608E-02  0.8229724E-01
         -2   -1    0    0    0  501 -0.00000000000E+00  0.00000000000E+00  0.10283383562E+04  0.10283383562E+04  0.00000000000E+00 0.  1.
          2   -1    0    0  501    0  0.00000000000E+00 -0.00000000000E+00 -0.22608564411E+04  0.22608564411E+04  0.00000000000E+00 0. -1.
         23    2    1    2    0    0 -0.91459833167E+03 -0.68442168187E+03 -0.17038862537E+04  0.20534314310E+04  0.91810291109E+02 0.  0.
         13    1    3    3    0    0 -0.51447249036E+03 -0.43386843933E+03 -0.10416760890E+04  0.12401664567E+04  0.00000000000E+00 0. -1.
        -13    1    3    3    0    0 -0.40012584131E+03 -0.25055324254E+03 -0.66221016470E+03  0.81326497433E+03  0.00000000000E+00 0.  1.
         22    1    1    2    0    0  0.91459833167E+03  0.68442168187E+03  0.47136816881E+03  0.12357633663E+04  0.00000000000E+00 0.  1.
<mgrwt>
<rscale>  0 0.30495412E+04</rscale>
<asrwt>0</asrwt>
<pdfrwt beam="1">  1        2 0.34782406E+00 0.30495412E+04</pdfrwt>
<pdfrwt beam="2">  1       -2 0.15820590E+00 0.30495412E+04</pdfrwt>
<totfact> 0.10564775E+00</totfact>
</mgrwt>
</event>
<event>
 6    1  0.2238133E-007  0.2003040E+04  0.7818608E-02  0.8605201E-01
          2   -1    0    0  501    0  0.00000000000E+00  0.00000000000E+00  0.46778533559E+03  0.46778533559E+03  0.00000000000E+00 0. -1.
         -2   -1    0    0    0  501 -0.00000000000E+00 -0.00000000000E+00 -0.21442361256E+04  0.21442361256E+04  0.00000000000E+00 0.  1.
         23    2    1    2    0    0 -0.16620036488E+03  0.14733190710E+02 -0.21249533111E+04  0.21334881398E+04  0.92224943967E+02 0.  0.
         13    1    3    3    0    0 -0.13553298500E+03  0.49219316294E+02 -0.16594023554E+04  0.16656553990E+04  0.00000000000E+00 0. -1.
        -13    1    3    3    0    0 -0.30667379875E+02 -0.34486125584E+02 -0.46555095569E+03  0.46783274083E+03  0.00000000000E+00 0.  1.
         22    1    1    2    0    0  0.16620036488E+03 -0.14733190710E+02  0.44850252111E+03  0.47853332134E+03  0.00000000000E+00 0. -1.
<mgrwt>
<rscale>  0 0.20030399E+04</rscale>
<asrwt>0</asrwt>
<pdfrwt beam="1">  1        2 0.71966975E-01 0.20030399E+04</pdfrwt>
<pdfrwt beam="2">  1       -2 0.32988248E+00 0.20030399E+04</pdfrwt>
<totfact> 0.12871305E+00</totfact>
</mgrwt>
</event>
<event>
 6    1  0.2238133E-007  0.1434719E+04  0.7818608E-02  0.8929063E-01
          1   -1    0    0  501    0  0.00000000000E+00  0.00000000000E+00  0.16019923196E+04  0.16019923196E+04  0.00000000000E+00 0. -1.
         -1   -1    0    0    0  501 -0.00000000000E+00 -0.00000000000E+00 -0.32122807794E+03  0.32122807794E+03  0.00000000000E+00 0.  1.
         23    2    1    2    0    0  0.19517142042E+03  0.23366032933E+03 -0.22334939502E+03  0.38860420289E+03  0.91865343802E+02 0.  0.
         13    1    3    3    0    0  0.50578225415E+02  0.12879485496E+03 -0.11301037545E+03  0.17865502095E+03  0.00000000000E+00 0.  1.
        -13    1    3    3    0    0  0.14459319501E+03  0.10486547438E+03 -0.11033901956E+03  0.20994918194E+03  0.00000000000E+00 0. -1.
         22    1    1    2    0    0 -0.19517142042E+03 -0.23366032933E+03  0.15041136367E+04  0.15346161947E+04  0.00000000000E+00 0. -1.
<mgrwt>
<rscale>  0 0.14347194E+04</rscale>
<asrwt>0</asrwt>
<pdfrwt beam="1">  1        1 0.24646035E+00 0.14347194E+04</pdfrwt>
<pdfrwt beam="2">  1       -1 0.49419705E-01 0.14347194E+04</pdfrwt>
<totfact> 0.22199482E+01</totfact>
</mgrwt>
</event>
<event>
 6    1  0.2238133E-007  0.3298771E+04  0.7818608E-02  0.8163208E-01
          2   -1    0    0  501    0  0.00000000000E+00  0.00000000000E+00  0.23600693775E+04  0.23600693775E+04  0.00000000000E+00 0. -1.
         -2   -1    0    0    0  501 -0.00000000000E+00 -0.00000000000E+00 -0.11527090361E+04  0.11527090361E+04  0.00000000000E+00 0.  1.
         23    2    1    2    0    0 -0.67281524133E+03  0.20265556698E+02 -0.99792193507E+03  0.12070548915E+04  0.89678764141E+02 0.  0.
         13    1    3    3    0    0 -0.15629632229E+03  0.18285836621E+02 -0.30023597406E+03  0.33897574000E+03  0.00000000000E+00 0.  1.
        -13    1    3    3    0    0 -0.51651891903E+03  0.19797200762E+01 -0.69768596100E+03  0.86807915146E+03  0.00000000000E+00 0. -1.
         22    1    1    2    0    0  0.67281524133E+03 -0.20265556698E+02  0.22052822765E+04  0.23057235222E+04  0.00000000000E+00 0. -1.
<mgrwt>
<rscale>  0 0.32987715E+04</rscale>
<asrwt>0</asrwt>
<pdfrwt beam="1">  1        2 0.36308760E+00 0.32987715E+04</pdfrwt>
<pdfrwt beam="2">  1       -2 0.17733985E+00 0.32987715E+04</pdfrwt>
<totfact> 0.66219662E-01</totfact>
</mgrwt>
</event>
<event>
 6    1  0.2238133E-007  0.2350230E+04  0.7818608E-02  0.8458375E-01
          2   -1    0    0  501    0  0.00000000000E+00  0.00000000000E+00  0.15908740390E+04  0.15908740390E+04  0.00000000000E+00 0. -1.
         -2   -1    0    0    0  501 -0.00000000000E+00 -0.00000000000E+00 -0.86801023426E+03  0.86801023426E+03  0.00000000000E+00 0.  1.
         23    2    1    2    0    0  0.40441480930E+03 -0.99860924315E+03 -0.12358664948E+03  0.10887564946E+04  0.96671019614E+02 0.  0.
         11    1    3    3    0    0  0.64188977201E+02 -0.18957276737E+03  0.12822659230E+02  0.20055542753E+03  0.00000000000E+00 0.  1.
        -11    1    3    3    0    0  0.34022583210E+03 -0.80903647578E+03 -0.13640930871E+03  0.88820106703E+03  0.00000000000E+00 0. -1.
         22    1    1    2    0    0 -0.40441480930E+03  0.99860924315E+03  0.84645045422E+03  0.13701277787E+04  0.00000000000E+00 0. -1.
<mgrwt>
<rscale>  0 0.23502297E+04</rscale>
<asrwt>0</asrwt>
<pdfrwt beam="1">  1        2 0.24474985E+00 0.23502297E+04</pdfrwt>
<pdfrwt beam="2">  1       -2 0.13354004E+00 0.23502297E+04</pdfrwt>
<totfact> 0.41333056E+00</totfact>
</mgrwt>
</event>
<event>
 6    1  0.2238133E-007  0.3118015E+04  0.7818608E-02  0.8210811E-01
          2   -1    0    0  501    0  0.00000000000E+00  0.00000000000E+00  0.30390869826E+04  0.30390869826E+04  0.00000000000E+00 0. -1.
         -2   -1    0    0    0  501 -0.00000000000E+00 -0.00000000000E+00 -0.79974798130E+03  0.79974798130E+03  0.00000000000E+00 0.  1.
         23    2    1    2    0    0  0.25237394598E+03 -0.96987450010E+03  0.25887904890E+04  0.27774841752E+04  0.90735842751E+02 0.  0.
         11    1    3    3    0    0  0.66944681562E+02 -0.41871158744E+03  0.11439343866E+04  0.12199946166E+04  0.00000000000E+00 0. -1.
        -11    1    3    3    0    0  0.18542926442E+03 -0.55116291266E+03  0.14448561024E+04  0.15574895586E+04  0.00000000000E+00 0.  1.
         22    1    1    2    0    0 -0.25237394598E+03  0.96987450010E+03 -0.34945148763E+03  0.10613507887E+04  0.00000000000E+00 0.  1.
<mgrwt>
<rscale>  0 0.31180145E+04</rscale>
<asrwt>0</asrwt>
<pdfrwt beam="1">  1        2 0.46755184E+00 0.31180145E+04</pdfrwt>
<pdfrwt beam="2">  1       -2 0.12303815E+00 0.31180145E+04</pdfrwt>
<totfact> 0.69532406E-01</totfact>
</mgrwt>
</event>
<event>
 6    1  0.3444011E-007  0.4580292E+04  0.7818608E-02  0.7896729E-01
          2   -1    0    0  501    0  0.00000000000E+00  0.00000000000E+00  0.29481773828E+04  0.29481773828E+04  0.00000000000E+00 0. -1.
         -2   -1    0    0    0  501 -0.00000000000E+00 -0.00000000000E+00 -0.17789867465E+04  0.17789867465E+04  0.00000000000E+00 0.  1.
         23    2    1    2    0    0 -0.81283614005E+03  0.17936909101E+04  0.17894915136E+04  0.26625085042E+04  0.92962284948E+02 0.  0.
         13    1    3    3    0    0 -0.47408892747E+03  0.11296063277E+04  0.11515908150E+04  0.16813483196E+04  0.00000000000E+00 0.  1.
        -13    1    3    3    0    0 -0.33874721258E+03  0.66408458242E+03  0.63790069858E+03  0.98116018462E+03  0.00000000000E+00 0. -1.
         22    1    1    2    0    0  0.81283614005E+03 -0.17936909101E+04 -0.62030087740E+03  0.20646556250E+04  0.00000000000E+00 0.  1.
<mgrwt>
<rscale>  0 0.45802919E+04</rscale>
<asrwt>0</asrwt>
<pdfrwt beam="1">  1        2 0.45356575E+00 0.45802919E+04</pdfrwt>
<pdfrwt beam="2">  1       -2 0.27369027E+00 0.45802919E+04</pdfrwt>
<totfact> 0.64953249E-02</totfact>
</mgrwt>
</event>
<event>
 6    1  0.2238133E-007  0.4502230E+04  0.7818608E-02  0.7910246E-01
          2   -1    0    0  501    0  0.00000000000E+00  0.00000000000E+00  0.46343452659E+04  0.46343452659E+04  0.00000000000E+00 0. -1.
         -2   -1    0    0    0  501 -0.00000000000E+00 -0.00000000000E+00 -0.10934704191E+04  0.10934704191E+04  0.00000000000E+00 0.  1.
         23    2    1    2    0    0 -0.31220042069E+03 -0.11401456793E+04 -0.66481591998E+03  0.13591504314E+04  0.88929269964E+02 0.  0.
         13    1    3    3    0    0 -0.18046631277E+03 -0.49979726698E+03 -0.31377205443E+03  0.61710477252E+03  0.00000000000E+00 0. -1.
        -13    1    3    3    0    0 -0.13173410792E+03 -0.64034841227E+03 -0.35104386555E+03  0.74204565886E+03  0.00000000000E+00 0.  1.
         22    1    1    2    0    0  0.31220042069E+03  0.11401456793E+04  0.42056907667E+04  0.43686652536E+04  0.00000000000E+00 0. -1.
<mgrwt>
<rscale>  0 0.45022303E+04</rscale>
<asrwt>0</asrwt>
<pdfrwt beam="1">  1        2 0.71297618E+00 0.45022303E+04</pdfrwt>
<pdfrwt beam="2">  1       -2 0.16822622E+00 0.45022303E+04</pdfrwt>
<totfact> 0.14820013E-02</totfact>
</mgrwt>
</event>
<event>
 6    1  0.2238133E-007  0.1744986E+04  0.7818608E-02  0.8736115E-01
          2   -1    0    0  501    0  0.00000000000E+00  0.00000000000E+00  0.76338948223E+03  0.76338948223E+03  0.00000000000E+00 0. -1.
         -2   -1    0    0    0  501 -0.00000000000E+00 -0.00000000000E+00 -0.99718922393E+03  0.99718922393E+03  0.00000000000E+00 0.  1.
         23    2    1    2    0    0  0.41188990680E+03  0.21695016500E+03  0.62452974786E+03  0.78413096969E+03  0.90018343988E+02 0.  0.
         11    1    3    3    0    0  0.36536502599E+03  0.15557075865E+03  0.52629135978E+03  0.65929997614E+03  0.00000000000E+00 0. -1.
        -11    1    3    3    0    0  0.46524880815E+02  0.61379406355E+02  0.98238388072E+02  0.12483099355E+03  0.00000000000E+00 0.  1.
         22    1    1    2    0    0 -0.41188990680E+03 -0.21695016500E+03 -0.85832948956E+03  0.97644773647E+03  0.00000000000E+00 0.  1.
<mgrwt>
<rscale>  0 0.17449857E+04</rscale>
<asrwt>0</asrwt>
<pdfrwt beam="1">  1        2 0.11744454E+00 0.17449857E+04</pdfrwt>
<pdfrwt beam="2">  1       -2 0.15341373E+00 0.17449857E+04</pdfrwt>
<totfact> 0.98003239E+00</totfact>
</mgrwt>
</event>
<event>
 6    1  0.2238133E-007  0.1353834E+04  0.7818608E-02  0.8987931E-01
         -4   -1    0    0    0  501 -0.00000000000E+00  0.00000000000E+00  0.57004489596E+03  0.57004489596E+03  0.00000000000E+00 0.  1.
          4   -1    0    0  501    0  0.00000000000E+00 -0.00000000000E+00 -0.80382550721E+03  0.80382550721E+03  0.00000000000E+00 0. -1.
         23    2    1    2    0    0 -0.23977071610E+03  0.46272255899E+03  0.31364805033E+03  0.61803953425E+03  0.10952444258E+03 0.  0.
         11    1    3    3    0    0 -0.16479605162E+03  0.26678971509E+03  0.24286224475E+03  0.39663151745E+03  0.00000000000E+00 0.  1.
        -11    1    3    3    0    0 -0.74974664477E+02  0.19593284390E+03  0.70785805574E+02  0.22140801679E+03  0.00000000000E+00 0. -1.
         22    1    1    2    0    0  0.23977071610E+03 -0.46272255899E+03 -0.54742866158E+03  0.75583086892E+03  0.00000000000E+00 0. -1.
<mgrwt>
<rscale>  0 0.13538340E+04</rscale>
<asrwt>0</asrwt>
<pdfrwt beam="1">  1        4 0.12366546E+00 0.13538340E+04</pdfrwt>
<pdfrwt beam="2">  1       -4 0.87699215E-01 0.13538340E+04</pdfrwt>
<totfact> 0.10761317E+00</totfact>
</mgrwt>
</event>
<event>
 6    1  0.2238133E-007  0.5837164E+04  0.7818608E-02  0.7710926E-01
         -2   -1    0    0    0  501 -0.00000000000E+00  0.00000000000E+00  0.40596026383E+04  0.40596026383E+04  0.00000000000E+00 0.  1.
          2   -1    0    0  501    0  0.00000000000E+00 -0.00000000000E+00 -0.20982647865E+04  0.20982647865E+04  0.00000000000E+00 0. -1.
         23    2    1    2    0    0  0.11372852475E+04 -0.17839056767E+04 -0.11389862768E+04  0.24045026810E+04  0.92769642558E+02 0.  0.
         11    1    3    3    0    0  0.74099736974E+03 -0.12246786398E+04 -0.73873708351E+03  0.16107909086E+04  0.00000000000E+00 0.  1.
        -11    1    3    3    0    0  0.39628787777E+03 -0.55922703694E+03 -0.40024919331E+03  0.79371177241E+03  0.00000000000E+00 0. -1.
         22    1    1    2    0    0 -0.11372852475E+04  0.17839056767E+04  0.31003241286E+04  0.37533647438E+04  0.00000000000E+00 0.  1.
<mgrwt>
<rscale>  0 0.58371641E+04</rscale>
<asrwt>0</asrwt>
<pdfrwt beam="1">  1        2 0.32280997E+00 0.58371641E+04</pdfrwt>
<pdfrwt beam="2">  1       -2 0.62455425E+00 0.58371641E+04</pdfrwt>
<totfact> 0.16824733E-03</totfact>
</mgrwt>
</event>
<event>
 6    1  0.2379545E-007  0.3380846E+04  0.7818608E-02  0.8142623E-01
          2   -1    0    0  501    0  0.00000000000E+00  0.00000000000E+00  0.19082053388E+04  0.19082053388E+04  0.00000000000E+00 0. -1.
         -2   -1    0    0    0  501 -0.00000000000E+00 -0.00000000000E+00 -0.14974959843E+04  0.14974959843E+04  0.00000000000E+00 0.  1.
         23    2    1    2    0    0 -0.40772311248E+02 -0.14539247618E+04  0.10708362059E+04  0.18084139181E+04  0.90061785155E+02 0.  0.
         11    1    3    3    0    0 -0.14582835749E+02 -0.75092015718E+03  0.49759211732E+03  0.90093931915E+03  0.00000000000E+00 0. -1.
        -11    1    3    3    0    0 -0.26189475499E+02 -0.70300460457E+03  0.57324408861E+03  0.90747459899E+03  0.00000000000E+00 0.  1.
         22    1    1    2    0    0  0.40772311248E+02  0.14539247618E+04 -0.66012685136E+03  0.15972874050E+04  0.00000000000E+00 0.  1.
<mgrwt>
<rscale>  0 0.33808459E+04</rscale>
<asrwt>0</asrwt>
<pdfrwt beam="1">  1        2 0.29357005E+00 0.33808459E+04</pdfrwt>
<pdfrwt beam="2">  1       -2 0.23038400E+00 0.33808459E+04</pdfrwt>
<totfact> 0.53015937E-01</totfact>
</mgrwt>
</event>
<event>
 6    1  0.2238133E-007  0.1197810E+04  0.7818608E-02  0.9114776E-01
          2   -1    0    0  501    0  0.00000000000E+00  0.00000000000E+00  0.18435230909E+04  0.18435230909E+04  0.00000000000E+00 0. -1.
         -2   -1    0    0    0  501 -0.00000000000E+00 -0.00000000000E+00 -0.19456601837E+03  0.19456601837E+03  0.00000000000E+00 0.  1.
         23    2    1    2    0    0 -0.24153051493E+03  0.31190076356E+03  0.70155578890E+02  0.41074979853E+03  0.90413028871E+02 0.  0.
         11    1    3    3    0    0 -0.73599321322E+02  0.12861105552E+03 -0.12682168966E+02  0.14872290042E+03  0.00000000000E+00 0.  1.
        -11    1    3    3    0    0 -0.16793119361E+03  0.18328970804E+03  0.82837747856E+02  0.26202689811E+03  0.00000000000E+00 0. -1.
         22    1    1    2    0    0  0.24153051493E+03 -0.31190076356E+03  0.15788014936E+04  0.16273393107E+04  0.00000000000E+00 0. -1.
<mgrwt>
<rscale>  0 0.11978096E+04</rscale>
<asrwt>0</asrwt>
<pdfrwt beam="1">  1        2 0.28361892E+00 0.11978096E+04</pdfrwt>
<pdfrwt beam="2">  1       -2 0.29933235E-01 0.11978096E+04</pdfrwt>
<totfact> 0.82978902E+01</totfact>
</mgrwt>
</event>
<event>
 6    1  0.2238133E-007  0.1327711E+04  0.7818608E-02  0.9007874E-01
         -2   -1    0    0    0  501 -0.00000000000E+00  0.00000000000E+00  0.65992376804E+03  0.65992376804E+03  0.00000000000E+00 0.  1.
          2   -1    0    0  501    0  0.00000000000E+00 -0.00000000000E+00 -0.66781101955E+03  0.66781101955E+03  0.00000000000E+00 0. -1.
         23    2    1    2    0    0 -0.50814228033E+02  0.63319824924E+03 -0.18586886298E+03  0.66803821898E+03  0.90585424745E+02 0.  0.
         13    1    3    3    0    0  0.19784971117E+02  0.31477110366E+03 -0.85239060050E+02  0.32670780544E+03  0.00000000000E+00 0. -1.
        -13    1    3    3    0    0 -0.70599199150E+02  0.31842714559E+03 -0.10062980293E+03  0.34133041354E+03  0.00000000000E+00 0.  1.
         22    1    1    2    0    0  0.50814228033E+02 -0.63319824924E+03  0.17798161147E+03  0.65969656861E+03  0.00000000000E+00 0.  1.
<mgrwt>
<rscale>  0 0.13277114E+04</rscale>
<asrwt>0</asrwt>
<pdfrwt beam="1">  1        2 0.10274016E+00 0.13277114E+04</pdfrwt>
<pdfrwt beam="2">  1       -2 0.10152673E+00 0.13277114E+04</pdfrwt>
<totfact> 0.33893705E+01</totfact>
</mgrwt>
</event>
<event>
 6    1  0.2238133E-007  0.1215529E+04  0.7818608E-02  0.9099371E-01
         -2   -1    0    0    0  501 -0.00000000000E+00  0.00000000000E+00  0.36188450916E+03  0.36188450916E+03  0.00000000000E+00 0.  1.
          2   -1    0    0  501    0  0.00000000000E+00 -0.00000000000E+00 -0.10207065201E+04  0.10207065201E+04  0.00000000000E+00 0. -1.
         23    2    1    2    0    0  0.17767986725E+03 -0.19840727310E+03  0.28553536671E+03  0.40139459737E+03  0.93013955466E+02 0.  0.
         13    1    3    3    0    0  0.11306231214E+03 -0.58151151150E+02  0.14141205479E+03  0.19016311957E+03  0.00000000000E+00 0. -1.
        -13    1    3    3    0    0  0.64617555109E+02 -0.14025612195E+03  0.14412331192E+03  0.21123147780E+03  0.00000000000E+00 0.  1.
         22    1    1    2    0    0 -0.17767986725E+03  0.19840727310E+03 -0.94435737766E+03  0.98119643190E+03  0.00000000000E+00 0. -1.
<mgrwt>
<rscale>  0 0.12155293E+04</rscale>
<asrwt>0</asrwt>
<pdfrwt beam="1">  1        2 0.15703177E+00 0.12155293E+04</pdfrwt>
<pdfrwt beam="2">  1       -2 0.55674541E-01 0.12155293E+04</pdfrwt>
<totfact> 0.72993748E+01</totfact>
</mgrwt>
</event>
<event>
 6    1  0.2238133E-007  0.1621129E+04  0.7818608E-02  0.8807671E-01
          2   -1    0    0  501    0  0.00000000000E+00  0.00000000000E+00  0.16959524157E+04  0.16959524157E+04  0.00000000000E+00 0. -1.
         -2   -1    0    0    0  501 -0.00000000000E+00 -0.00000000000E+00 -0.38740191319E+03  0.38740191319E+03  0.00000000000E+00 0.  1.
         23    2    1    2    0    0 -0.33900741285E+03  0.65225650397E+03  0.22582245148E+03  0.77466620508E+03  0.93527411801E+02 0.  0.
         11    1    3    3    0    0 -0.28877240252E+03  0.52336189668E+03  0.21747777386E+03  0.63607684872E+03  0.00000000000E+00 0. -1.
        -11    1    3    3    0    0 -0.50235010329E+02  0.12889460728E+03  0.83446776205E+01  0.13858935635E+03  0.00000000000E+00 0.  1.
         22    1    1    2    0    0  0.33900741285E+03 -0.65225650397E+03  0.10827280511E+04  0.13086881238E+04  0.00000000000E+00 0. -1.
<mgrwt>
<rscale>  0 0.16211295E+04</rscale>
<asrwt>0</asrwt>
<pdfrwt beam="1">  1        2 0.26091575E+00 0.16211295E+04</pdfrwt>
<pdfrwt beam="2">  1       -2 0.59600295E-01 0.16211295E+04</pdfrwt>
<totfact> 0.24788621E+01</totfact>
</mgrwt>
</event>
<event>
 6    1  0.2238133E-007  0.2556885E+04  0.7818608E-02  0.8382996E-01
          2   -1    0    0  501    0  0.00000000000E+00  0.00000000000E+00  0.22267410412E+04  0.22267410412E+04  0.00000000000E+00 0. -1.
         -2   -1    0    0    0  501 -0.00000000000E+00 -0.00000000000E+00 -0.73399447045E+03  0.73399447045E+03  0.00000000000E+00 0.  1.
         23    2    1    2    0    0  0.58113975752E+01  0.45453729980E+03 -0.63457909909E+03  0.78538440555E+03  0.86603130573E+02 0.  0.
         11    1    3    3    0    0  0.41779119907E+02  0.15194576322E+03 -0.20019716480E+03  0.25477816746E+03  0.00000000000E+00 0. -1.
        -11    1    3    3    0    0 -0.35967722331E+02  0.30259153657E+03 -0.43438193429E+03  0.53060623809E+03  0.00000000000E+00 0.  1.
         22    1    1    2    0    0 -0.58113975752E+01 -0.45453729980E+03  0.21273256698E+04  0.21753511061E+04  0.00000000000E+00 0. -1.
<mgrwt>
<rscale>  0 0.25568853E+04</rscale>
<asrwt>0</asrwt>
<pdfrwt beam="1">  1        2 0.34257554E+00 0.25568853E+04</pdfrwt>
<pdfrwt beam="2">  1       -2 0.11292223E+00 0.25568853E+04</pdfrwt>
<totfact> 0.27291755E+00</totfact>
</mgrwt>
</event>
<event>
 6    1  0.2238133E-007  0.1911378E+04  0.7818608E-02  0.8649214E-01
         -2   -1    0    0    0  501 -0.00000000000E+00  0.00000000000E+00  0.66999935517E+03  0.66999935517E+03  0.00000000000E+00 0.  1.
          2   -1    0    0  501    0  0.00000000000E+00 -0.00000000000E+00 -0.13631972178E+04  0.13631972178E+04  0.00000000000E+00 0. -1.
         23    2    1    2    0    0 -0.91771525095E+03 -0.25321309085E+03 -0.29012436393E+03  0.99937531348E+03  0.90888499966E+02 0.  0.
         13    1    3    3    0    0 -0.12064889736E+03 -0.63534901282E+02 -0.54491454027E+02  0.14684058933E+03  0.00000000000E+00 0.  1.
        -13    1    3    3    0    0 -0.79706635360E+03 -0.18967818957E+03 -0.23563290990E+03  0.85253472414E+03  0.00000000000E+00 0. -1.
         22    1    1    2    0    0  0.91771525095E+03  0.25321309085E+03 -0.40307349867E+03  0.10338212595E+04  0.00000000000E+00 0.  1.
<mgrwt>
<rscale>  0 0.19113778E+04</rscale>
<asrwt>0</asrwt>
<pdfrwt beam="1">  1        2 0.20972265E+00 0.19113778E+04</pdfrwt>
<pdfrwt beam="2">  1       -2 0.10307682E+00 0.19113778E+04</pdfrwt>
<totfact> 0.10925515E+01</totfact>
</mgrwt>
</event>
<event>
 6    1  0.2238133E-007  0.5198486E+04  0.7818608E-02  0.7798598E-01
          2   -1    0    0  501    0  0.00000000000E+00  0.00000000000E+00  0.13530986836E+04  0.13530986836E+04  0.00000000000E+00 0. -1.
         -2   -1    0    0    0  501 -0.00000000000E+00 -0.00000000000E+00 -0.49930317075E+04  0.49930317075E+04  0.00000000000E+00 0.  1.
         23    2    1    2    0    0  0.80124466946E+03  0.65119312198E+03  0.10903025894E+04  0.15045217266E+04  0.93703718925E+02 0.  0.
         11    1    3    3    0    0  0.38987612630E+03  0.25679583639E+03  0.49188909654E+03  0.67816102714E+03  0.00000000000E+00 0. -1.
        -11    1    3    3    0    0  0.41136854317E+03  0.39439728559E+03  0.59841349289E+03  0.82636069949E+03  0.00000000000E+00 0.  1.
         22    1    1    2    0    0 -0.80124466946E+03 -0.65119312198E+03 -0.47302356133E+04  0.48416086645E+04  0.00000000000E+00 0.  1.
<mgrwt>
<rscale>  0 0.51984862E+04</rscale>
<asrwt>0</asrwt>
<pdfrwt beam="1">  1        2 0.20816903E+00 0.51984862E+04</pdfrwt>
<pdfrwt beam="2">  1       -2 0.76815873E+00 0.51984862E+04</pdfrwt>
<totfact> 0.13036205E-03</totfact>
</mgrwt>
</event>
<event>
 6    1  0.2238133E-007  0.1187104E+04  0.7818608E-02  0.9124220E-01
         -2   -1    0    0    0  501 -0.00000000000E+00  0.00000000000E+00  0.17463241850E+03  0.17463241850E+03  0.00000000000E+00 0.  1.
          2   -1    0    0  501    0  0.00000000000E+00 -0.00000000000E+00 -0.20174013859E+04  0.20174013859E+04  0.00000000000E+00 0. -1.
         23    2    1    2    0    0  0.13535309283E+03 -0.57618524940E+02 -0.19819829233E+04  0.19894976849E+04  0.90578008935E+02 0.  0.
         13    1    3    3    0    0  0.10358255916E+03 -0.32176175084E+02 -0.86506100947E+03  0.87183438962E+03  0.00000000000E+00 0. -1.
        -13    1    3    3    0    0  0.31770533664E+02 -0.25442349856E+02 -0.11169219139E+04  0.11176632953E+04  0.00000000000E+00 0.  1.
         22    1    1    2    0    0 -0.13535309283E+03  0.57618524940E+02  0.13921395596E+03  0.20253611947E+03  0.00000000000E+00 0.  1.
<mgrwt>
<rscale>  0 0.11871035E+04</rscale>
<asrwt>0</asrwt>
<pdfrwt beam="1">  1        2 0.31036943E+00 0.11871035E+04</pdfrwt>
<pdfrwt beam="2">  1       -2 0.26866527E-01 0.11871035E+04</pdfrwt>
<totfact> 0.81294076E+01</totfact>
</mgrwt>
</event>
<event>
 6    1  0.2238133E-007  0.8339656E+03  0.7818608E-02  0.9512114E-01
         -2   -1    0    0    0  501 -0.00000000000E+00  0.00000000000E+00  0.42140573494E+03  0.42140573494E+03  0.00000000000E+00 0.  1.
          2   -1    0    0  501    0  0.00000000000E+00 -0.00000000000E+00 -0.41260627854E+03  0.41260627854E+03  0.00000000000E+00 0. -1.
         23    2    1    2    0    0 -0.39770762369E+03 -0.10735999773E+03 -0.15468325824E+02  0.42135422752E+03  0.87192848841E+02 0.  0.
         11    1    3    3    0    0 -0.24337744895E+03 -0.55420085809E+02 -0.50811352811E+02  0.25472683829E+03  0.00000000000E+00 0. -1.
        -11    1    3    3    0    0 -0.15433017474E+03 -0.51939911917E+02  0.35343026987E+02  0.16662738923E+03  0.00000000000E+00 0.  1.
         22    1    1    2    0    0  0.39770762369E+03  0.10735999773E+03  0.24267782223E+02  0.41265778596E+03  0.00000000000E+00 0.  1.
<mgrwt>
<rscale>  0 0.83396559E+03</rscale>
<asrwt>0</asrwt>
<pdfrwt beam="1">  1        2 0.63477889E-01 0.83396559E+03</pdfrwt>
<pdfrwt beam="2">  1       -2 0.64831651E-01 0.83396559E+03</pdfrwt>
<totfact> 0.16966461E+02</totfact>
</mgrwt>
</event>
<event>
 6    1  0.2238133E-007  0.2866672E+04  0.7818608E-02  0.8282863E-01
          2   -1    0    0  501    0  0.00000000000E+00  0.00000000000E+00  0.22819270113E+04  0.22819270113E+04  0.00000000000E+00 0. -1.
         -2   -1    0    0    0  501 -0.00000000000E+00 -0.00000000000E+00 -0.90031438590E+03  0.90031438590E+03  0.00000000000E+00 0.  1.
         23    2    1    2    0    0  0.21213471230E+03  0.12010828248E+04 -0.14134724165E+03  0.12310858819E+04  0.89399763881E+02 0.  0.
         11    1    3    3    0    0  0.77341586563E+02  0.26463061798E+03 -0.54190239506E+02  0.28097627487E+03  0.00000000000E+00 0. -1.
        -11    1    3    3    0    0  0.13479312574E+03  0.93645220681E+03 -0.87157002148E+02  0.95010960705E+03  0.00000000000E+00 0.  1.
         22    1    1    2    0    0 -0.21213471230E+03 -0.12010828248E+04  0.15229598670E+04  0.19511555153E+04  0.00000000000E+00 0.  1.
<mgrwt>
<rscale>  0 0.28666717E+04</rscale>
<asrwt>0</asrwt>
<pdfrwt beam="1">  1        2 0.35106569E+00 0.28666717E+04</pdfrwt>
<pdfrwt beam="2">  1       -2 0.13850991E+00 0.28666717E+04</pdfrwt>
<totfact> 0.14833539E+00</totfact>
</mgrwt>
</event>
<event>
 6    1  0.2238133E-007  0.4848085E+04  0.7818608E-02  0.7852378E-01
         -2   -1    0    0    0  501 -0.00000000000E+00  0.00000000000E+00  0.32085781285E+04  0.32085781285E+04  0.00000000000E+00 0.  1.
          2   -1    0    0  501    0  0.00000000000E+00 -0.00000000000E+00 -0.18313353654E+04  0.18313353654E+04  0.00000000000E+00 0. -1.
         23    2    1    2    0    0 -0.15367100422E+04  0.10058746665E+04 -0.95438058475E+03  0.20717947235E+04  0.90716467134E+02 0.  0.
         13    1    3    3    0    0 -0.57564110318E+03  0.37296357917E+03 -0.30739686558E+03  0.75163644405E+03  0.00000000000E+00 0. -1.
        -13    1    3    3    0    0 -0.96106893901E+03  0.63291108733E+03 -0.64698371917E+03  0.13201582795E+04  0.00000000000E+00 0.  1.
         22    1    1    2    0    0  0.15367100422E+04 -0.10058746665E+04  0.23316233479E+04  0.29681187703E+04  0.00000000000E+00 0.  1.
<mgrwt>
<rscale>  0 0.48480852E+04</rscale>
<asrwt>0</asrwt>
<pdfrwt beam="1">  1        2 0.28174390E+00 0.48480852E+04</pdfrwt>
<pdfrwt beam="2">  1       -2 0.49362740E+00 0.48480852E+04</pdfrwt>
<totfact> 0.11103659E-02</totfact>
</mgrwt>
</event>
<event>
 6    1  0.2238133E-007  0.2939058E+04  0.7818608E-02  0.8261351E-01
         -2   -1    0    0    0  501 -0.00000000000E+00  0.00000000000E+00  0.52162464408E+03  0.52162464408E+03  0.00000000000E+00 0.  1.
          2   -1    0    0  501    0  0.00000000000E+00 -0.00000000000E+00 -0.41399792430E+04  0.41399792430E+04  0.00000000000E+00 0. -1.
         23    2    1    2    0    0  0.11182663558E+04  0.37807160943E+03 -0.31953071481E+04  0.34076394019E+04  0.92524259357E+02 0.  0.
         13    1    3    3    0    0  0.79071992038E+03  0.30892703962E+03 -0.23299842185E+04  0.24798186157E+04  0.00000000000E+00 0.  1.
        -13    1    3    3    0    0  0.32754643543E+03  0.69144569815E+02 -0.86532292959E+03  0.92782078624E+03  0.00000000000E+00 0. -1.
         22    1    1    2    0    0 -0.11182663558E+04 -0.37807160943E+03 -0.42304745086E+03  0.12539644852E+04  0.00000000000E+00 0.  1.
<mgrwt>
<rscale>  0 0.29390578E+04</rscale>
<asrwt>0</asrwt>
<pdfrwt beam="1">  1        2 0.63691989E+00 0.29390578E+04</pdfrwt>
<pdfrwt beam="2">  1       -2 0.80249945E-01 0.29390578E+04</pdfrwt>
<totfact> 0.30916290E-01</totfact>
</mgrwt>
</event>
<event>
 6    1  0.2238133E-007  0.1789368E+04  0.7818608E-02  0.8711974E-01
          2   -1    0    0  501    0  0.00000000000E+00  0.00000000000E+00  0.15203304090E+04  0.15203304090E+04  0.00000000000E+00 0. -1.
         -2   -1    0    0    0  501 -0.00000000000E+00 -0.00000000000E+00 -0.52650353728E+03  0.52650353728E+03  0.00000000000E+00 0.  1.
         23    2    1    2    0    0 -0.53807857731E+03 -0.70733556543E+03  0.40640526391E+03  0.98150944039E+03  0.91342134642E+02 0.  0.
         13    1    3    3    0    0 -0.42557513620E+03 -0.49514569338E+03  0.30912038760E+03  0.72238415560E+03  0.00000000000E+00 0. -1.
        -13    1    3    3    0    0 -0.11250344111E+03 -0.21218987205E+03  0.97284876316E+02  0.25912528479E+03  0.00000000000E+00 0.  1.
         22    1    1    2    0    0  0.53807857731E+03  0.70733556543E+03  0.58742160778E+03  0.10653245058E+04  0.00000000000E+00 0.  1.
<mgrwt>
<rscale>  0 0.17893679E+04</rscale>
<asrwt>0</asrwt>
<pdfrwt beam="1">  1        2 0.23389698E+00 0.17893679E+04</pdfrwt>
<pdfrwt beam="2">  1       -2 0.81000545E-01 0.17893679E+04</pdfrwt>
<totfact> 0.15700463E+01</totfact>
</mgrwt>
</event>
<event>
 6    1  0.2238133E-007  0.1806006E+04  0.7818608E-02  0.8703112E-01
         -2   -1    0    0    0  501 -0.00000000000E+00  0.00000000000E+00  0.35525426578E+03  0.35525426578E+03  0.00000000000E+00 0.  1.
          2   -1    0    0  501    0  0.00000000000E+00 -0.00000000000E+00 -0.22952973124E+04  0.22952973124E+04  0.00000000000E+00 0. -1.
         23    2    1    2    0    0 -0.59257310613E+03 -0.34695776738E+03 -0.18279745142E+04  0.19547916092E+04  0.90536359617E+02 0.  0.
         11    1    3    3    0    0 -0.19348396159E+03 -0.69093745600E+02 -0.58873320603E+03  0.62355174361E+03  0.00000000000E+00 0.  1.
        -11    1    3    3    0    0 -0.39908914453E+03 -0.27786402178E+03 -0.12392413082E+04  0.13312398656E+04  0.00000000000E+00 0. -1.
         22    1    1    2    0    0  0.59257310613E+03  0.34695776738E+03 -0.11206853240E+03  0.69575996896E+03  0.00000000000E+00 0.  1.
<mgrwt>
<rscale>  0 0.18060057E+04</rscale>
<asrwt>0</asrwt>
<pdfrwt beam="1">  1        2 0.35312265E+00 0.18060057E+04</pdfrwt>
<pdfrwt beam="2">  1       -2 0.54654504E-01 0.18060057E+04</pdfrwt>
<totfact> 0.13565544E+01</totfact>
</mgrwt>
</event>
<event>
 6    1  0.2238133E-007  0.2466217E+04  0.7818608E-02  0.8415121E-01
         -2   -1    0    0    0  501 -0.00000000000E+00  0.00000000000E+00  0.10078340434E+04  0.10078340434E+04  0.00000000000E+00 0.  1.
          2   -1    0    0  501    0  0.00000000000E+00 -0.00000000000E+00 -0.15087374215E+04  0.15087374215E+04  0.00000000000E+00 0. -1.
         23    2    1    2    0    0 -0.83351058122E+02  0.10912020652E+04  0.32542024068E+03  0.11452654928E+04  0.89807404733E+02 0.  0.
         13    1    3    3    0    0 -0.38484206509E+02  0.80497396516E+03  0.27272102496E+03  0.85078838508E+03  0.00000000000E+00 0. -1.
        -13    1    3    3    0    0 -0.44866851613E+02  0.28622810006E+03  0.52699215719E+02  0.29447710773E+03  0.00000000000E+00 0.  1.
         22    1    1    2    0    0  0.83351058122E+02 -0.10912020652E+04 -0.82632361877E+03  0.13713059721E+04  0.00000000000E+00 0. -1.
<mgrwt>
<rscale>  0 0.24662173E+04</rscale>
<asrwt>0</asrwt>
<pdfrwt beam="1">  1        2 0.23211345E+00 0.24662173E+04</pdfrwt>
<pdfrwt beam="2">  1       -2 0.15505139E+00 0.24662173E+04</pdfrwt>
<totfact> 0.30791760E+00</totfact>
</mgrwt>
</event>
<event>
 6    1  0.2238133E-007  0.2509432E+04  0.7818608E-02  0.8399633E-01
         -2   -1    0    0    0  501 -0.00000000000E+00  0.00000000000E+00  0.20583428967E+04  0.20583428967E+04  0.00000000000E+00 0.  1.
          2   -1    0    0  501    0  0.00000000000E+00 -0.00000000000E+00 -0.76484456048E+03  0.76484456048E+03  0.00000000000E+00 0. -1.
         23    2    1    2    0    0 -0.42794184535E+03 -0.10983976497E+04  0.17051161426E+03  0.11950870925E+04  0.97710429882E+02 0.  0.
         13    1    3    3    0    0 -0.23227446480E+03 -0.47163332359E+03  0.57946865354E+02  0.52891138967E+03  0.00000000000E+00 0. -1.
        -13    1    3    3    0    0 -0.19566738055E+03 -0.62676432613E+03  0.11256474891E+03  0.66617570281E+03  0.00000000000E+00 0.  1.
         22    1    1    2    0    0  0.42794184535E+03  0.10983976497E+04  0.11229867220E+04  0.16281003647E+04  0.00000000000E+00 0. -1.
<mgrwt>
<rscale>  0 0.25094321E+04</rscale>
<asrwt>0</asrwt>
<pdfrwt beam="1">  1        2 0.11766840E+00 0.25094321E+04</pdfrwt>
<pdfrwt beam="2">  1       -2 0.31666813E+00 0.25094321E+04</pdfrwt>
<totfact> 0.81807332E-01</totfact>
</mgrwt>
</event>
<event>
 6    1  0.2238133E-007  0.2971848E+04  0.7818608E-02  0.8251816E-01
          2   -1    0    0  501    0  0.00000000000E+00  0.00000000000E+00  0.12375207968E+04  0.12375207968E+04  0.00000000000E+00 0. -1.
         -2   -1    0    0    0  501 -0.00000000000E+00 -0.00000000000E+00 -0.17841878827E+04  0.17841878827E+04  0.00000000000E+00 0.  1.
         23    2    1    2    0    0  0.38334383043E+03 -0.81554791099E+03 -0.14731033169E+04  0.17292865435E+04  0.91256121649E+02 0.  0.
         13    1    3    3    0    0  0.22965963274E+03 -0.56224363903E+03 -0.10446773489E+04  0.12083924114E+04  0.00000000000E+00 0. -1.
        -13    1    3    3    0    0  0.15368419768E+03 -0.25330427196E+03 -0.42842596803E+03  0.52089413214E+03  0.00000000000E+00 0.  1.
         22    1    1    2    0    0 -0.38334383043E+03  0.81554791099E+03  0.92643623102E+03  0.12924221360E+04  0.00000000000E+00 0. -1.
<mgrwt>
<rscale>  0 0.29718476E+04</rscale>
<asrwt>0</asrwt>
<pdfrwt beam="1">  1        2 0.19038782E+00 0.29718476E+04</pdfrwt>
<pdfrwt beam="2">  1       -2 0.27449044E+00 0.29718476E+04</pdfrwt>
<totfact> 0.70235278E-01</totfact>
</mgrwt>
</event>
<event>
 6    1  0.2238133E-007  0.1322220E+04  0.7818608E-02  0.9012127E-01
         -2   -1    0    0    0  501 -0.00000000000E+00  0.00000000000E+00  0.35377894889E+03  0.35377894889E+03  0.00000000000E+00 0.  1.
          2   -1    0    0  501    0  0.00000000000E+00 -0.00000000000E+00 -0.12354231267E+04  0.12354231267E+04  0.00000000000E+00 0. -1.
         23    2    1    2    0    0  0.28139802362E+01  0.20525307129E+03  0.30847424687E+03  0.38151063880E+03  0.90869493121E+02 0.  0.
         11    1    3    3    0    0  0.32343464669E+02  0.43371462152E+02  0.11792253246E+03  0.12974169375E+03  0.00000000000E+00 0.  1.
        -11    1    3    3    0    0 -0.29529484432E+02  0.16188160914E+03  0.19055171441E+03  0.25176894505E+03  0.00000000000E+00 0. -1.
         22    1    1    2    0    0 -0.28139802362E+01 -0.20525307129E+03 -0.11901184247E+04  0.12076914368E+04  0.00000000000E+00 0. -1.
<mgrwt>
<rscale>  0 0.13222204E+04</rscale>
<asrwt>0</asrwt>
<pdfrwt beam="1">  1        2 0.19006510E+00 0.13222204E+04</pdfrwt>
<pdfrwt beam="2">  1       -2 0.54427530E-01 0.13222204E+04</pdfrwt>
<totfact> 0.56097354E+01</totfact>
</mgrwt>
</event>
<event>
 6    1  0.2238133E-007  0.2176943E+04  0.7818608E-02  0.8528087E-01
          2   -1    0    0  501    0  0.00000000000E+00  0.00000000000E+00  0.12255109293E+04  0.12255109293E+04  0.00000000000E+00 0. -1.
         -2   -1    0    0    0  501 -0.00000000000E+00 -0.00000000000E+00 -0.96675601841E+03  0.96675601841E+03  0.00000000000E+00 0.  1.
         23    2    1    2    0    0  0.13749928997E+03 -0.10700076571E+04 -0.46327094011E+00  0.10827551151E+04  0.92390386726E+02 0.  0.
         11    1    3    3    0    0  0.14072369990E+03 -0.86046371938E+03 -0.21282743619E+02  0.87215476108E+03  0.00000000000E+00 0.  1.
        -11    1    3    3    0    0 -0.32244099337E+01 -0.20954393772E+03  0.20819472679E+02  0.21060035399E+03  0.00000000000E+00 0. -1.
         22    1    1    2    0    0 -0.13749928997E+03  0.10700076571E+04  0.25921818185E+03  0.11095118327E+04  0.00000000000E+00 0. -1.
<mgrwt>
<rscale>  0 0.21769429E+04</rscale>
<asrwt>0</asrwt>
<pdfrwt beam="1">  1        2 0.18854014E+00 0.21769429E+04</pdfrwt>
<pdfrwt beam="2">  1       -2 0.14873170E+00 0.21769429E+04</pdfrwt>
<totfact> 0.51328228E+00</totfact>
</mgrwt>
</event>
<event>
 6    1  0.3185337E-007  0.3712725E+04  0.7818608E-02  0.8065148E-01
         -2   -1    0    0    0  501 -0.00000000000E+00  0.00000000000E+00  0.17863312129E+04  0.17863312129E+04  0.00000000000E+00 0.  1.
          2   -1    0    0  501    0  0.00000000000E+00 -0.00000000000E+00 -0.19291394448E+04  0.19291394448E+04  0.00000000000E+00 0. -1.
         23    2    1    2    0    0  0.12514456977E+04  0.28845271795E+03  0.12687624328E+04  0.18071066867E+04  0.80963949650E+02 0.  0.
         13    1    3    3    0    0  0.25330433000E+03  0.92062789136E+02  0.26222745429E+03  0.37603441135E+03  0.00000000000E+00 0. -1.
        -13    1    3    3    0    0  0.99814136774E+03  0.19638992881E+03  0.10065349785E+04  0.14310722753E+04  0.00000000000E+00 0.  1.
         22    1    1    2    0    0 -0.12514456977E+04 -0.28845271795E+03 -0.14115706647E+04  0.19083639711E+04  0.00000000000E+00 0. -1.
<mgrwt>
<rscale>  0 0.37127251E+04</rscale>
<asrwt>0</asrwt>
<pdfrwt beam="1">  1        2 0.29679068E+00 0.37127251E+04</pdfrwt>
<pdfrwt beam="2">  1       -2 0.27482019E+00 0.37127251E+04</pdfrwt>
<totfact> 0.26758641E-01</totfact>
</mgrwt>
</event>
<event>
 6    1  0.2238133E-007  0.2696212E+04  0.7818608E-02  0.8336235E-01
         -2   -1    0    0    0  501 -0.00000000000E+00  0.00000000000E+00  0.83646272264E+03  0.83646272264E+03  0.00000000000E+00 0.  1.
          2   -1    0    0  501    0  0.00000000000E+00 -0.00000000000E+00 -0.21727080504E+04  0.21727080504E+04  0.00000000000E+00 0. -1.
         23    2    1    2    0    0  0.95640736080E+03  0.28380392694E+03  0.34051052977E+03  0.10580762304E+04  0.91204054901E+02 0.  0.
         11    1    3    3    0    0  0.47895469110E+03  0.95772125287E+02  0.17680613529E+03  0.51945192808E+03  0.00000000000E+00 0.  1.
        -11    1    3    3    0    0  0.47745266970E+03  0.18803180165E+03  0.16370439448E+03  0.53862430228E+03  0.00000000000E+00 0. -1.
         22    1    1    2    0    0 -0.95640736080E+03 -0.28380392694E+03 -0.16767558576E+04  0.19510945427E+04  0.00000000000E+00 0. -1.
<mgrwt>
<rscale>  0 0.26962116E+04</rscale>
<asrwt>0</asrwt>
<pdfrwt beam="1">  1        2 0.33426278E+00 0.26962116E+04</pdfrwt>
<pdfrwt beam="2">  1       -2 0.12868657E+00 0.26962116E+04</pdfrwt>
<totfact> 0.20918558E+00</totfact>
</mgrwt>
</event>
<event>
 6    1  0.2238133E-007  0.2018762E+04  0.7818608E-02  0.8597899E-01
         -2   -1    0    0    0  501 -0.00000000000E+00  0.00000000000E+00  0.62316610583E+03  0.62316610583E+03  0.00000000000E+00 0.  1.
          2   -1    0    0  501    0  0.00000000000E+00 -0.00000000000E+00 -0.16349579777E+04  0.16349579777E+04  0.00000000000E+00 0. -1.
         23    2    1    2    0    0  0.33664381216E+03  0.39576354965E+02  0.55395435195E+03  0.65610767239E+03  0.93362249268E+02 0.  0.
         13    1    3    3    0    0  0.21195087079E+03 -0.20348446029E+02  0.34923497709E+03  0.40902603842E+03  0.00000000000E+00 0. -1.
        -13    1    3    3    0    0  0.12469294138E+03  0.59924800994E+02  0.20471937486E+03  0.24708163397E+03  0.00000000000E+00 0.  1.
         22    1    1    2    0    0 -0.33664381216E+03 -0.39576354965E+02 -0.15657462238E+04  0.16020164111E+04  0.00000000000E+00 0. -1.
<mgrwt>
<rscale>  0 0.20187624E+04</rscale>
<asrwt>0</asrwt>
<pdfrwt beam="1">  1        2 0.25153199E+00 0.20187624E+04</pdfrwt>
<pdfrwt beam="2">  1       -2 0.95871709E-01 0.20187624E+04</pdfrwt>
<totfact> 0.90226414E+00</totfact>
</mgrwt>
</event>
<event>
 6    1  0.2238133E-007  0.3813378E+04  0.7818608E-02  0.8043290E-01
          2   -1    0    0  501    0  0.00000000000E+00  0.00000000000E+00  0.33407287616E+04  0.33407287616E+04  0.00000000000E+00 0. -1.
         -2   -1    0    0    0  501 -0.00000000000E+00 -0.00000000000E+00 -0.10882243238E+04  0.10882243238E+04  0.00000000000E+00 0.  1.
         23    2    1    2    0    0  0.11973120304E+04 -0.13852993200E+04  0.51300857683E+03  0.19033925229E+04  0.84350413237E+02 0.  0.
         13    1    3    3    0    0  0.85631478162E+03 -0.93149159930E+03  0.34968208262E+03  0.13127182347E+04  0.00000000000E+00 0.  1.
        -13    1    3    3    0    0  0.34099724877E+03 -0.45380772073E+03  0.16332649421E+03  0.59067428822E+03  0.00000000000E+00 0. -1.
         22    1    1    2    0    0 -0.11973120304E+04  0.13852993200E+04  0.17394958610E+04  0.25255605624E+04  0.00000000000E+00 0.  1.
<mgrwt>
<rscale>  0 0.38133777E+04</rscale>
<asrwt>0</asrwt>
<pdfrwt beam="1">  1        2 0.51395827E+00 0.38133777E+04</pdfrwt>
<pdfrwt beam="2">  1       -2 0.16741913E+00 0.38133777E+04</pdfrwt>
<totfact> 0.18604807E-01</totfact>
</mgrwt>
</event>
<event>
 6    1  0.2238133E-007  0.3444661E+04  0.7818608E-02  0.8127031E-01
         -2   -1    0    0    0  501 -0.00000000000E+00  0.00000000000E+00  0.10325417213E+04  0.10325417213E+04  0.00000000000E+00 0.  1.
          2   -1    0    0  501    0  0.00000000000E+00 -0.00000000000E+00 -0.28729316395E+04  0.28729316395E+04  0.00000000000E+00 0. -1.
         23    2    1    2    0    0 -0.16285754238E+04 -0.52515951054E+03 -0.11306914893E+04  0.20529825287E+04  0.90684048560E+02 0.  0.
         11    1    3    3    0    0 -0.86043831841E+03 -0.25084031145E+03 -0.63689237781E+03  0.10995030071E+04  0.00000000000E+00 0. -1.
        -11    1    3    3    0    0 -0.76813710543E+03 -0.27431919909E+03 -0.49379911147E+03  0.95347952165E+03  0.00000000000E+00 0.  1.
         22    1    1    2    0    0  0.16285754238E+04  0.52515951054E+03 -0.70969842892E+03  0.18524908320E+04  0.00000000000E+00 0.  1.
<mgrwt>
<rscale>  0 0.34446607E+04</rscale>
<asrwt>0</asrwt>
<pdfrwt beam="1">  1        2 0.44198948E+00 0.34446607E+04</pdfrwt>
<pdfrwt beam="2">  1       -2 0.15885257E+00 0.34446607E+04</pdfrwt>
<totfact> 0.44238198E-01</totfact>
</mgrwt>
</event>
<event>
 6    1  0.2238133E-007  0.3981174E+04  0.7818608E-02  0.8008355E-01
         -2   -1    0    0    0  501 -0.00000000000E+00  0.00000000000E+00  0.15253750505E+04  0.15253750505E+04  0.00000000000E+00 0.  1.
          2   -1    0    0  501    0  0.00000000000E+00 -0.00000000000E+00 -0.25976797394E+04  0.25976797394E+04  0.00000000000E+00 0. -1.
         23    2    1    2    0    0  0.12841990615E+04  0.13399995137E+04 -0.12786808966E+04  0.22556081199E+04  0.89315333453E+02 0.  0.
         13    1    3    3    0    0  0.56944638490E+03  0.56618711289E+03 -0.50497805367E+03  0.94859889667E+03  0.00000000000E+00 0. -1.
        -13    1    3    3    0    0  0.71475267664E+03  0.77381240084E+03 -0.77370284290E+03  0.13070092232E+04  0.00000000000E+00 0.  1.
         22    1    1    2    0    0 -0.12841990615E+04 -0.13399995137E+04  0.20637620768E+03  0.18674466701E+04  0.00000000000E+00 0.  1.
<mgrwt>
<rscale>  0 0.39811736E+04</rscale>
<asrwt>0</asrwt>
<pdfrwt beam="1">  1        2 0.39964303E+00 0.39811736E+04</pdfrwt>
<pdfrwt beam="2">  1       -2 0.23467309E+00 0.39811736E+04</pdfrwt>
<totfact> 0.19280079E-01</totfact>
</mgrwt>
</event>
<event>
 6    1  0.2238133E-007  0.3840929E+04  0.7818608E-02  0.8037428E-01
          2   -1    0    0  501    0  0.00000000000E+00  0.00000000000E+00  0.13738349094E+04  0.13738349094E+04  0.00000000000E+00 0. -1.
         -2   -1    0    0    0  501 -0.00000000000E+00 -0.00000000000E+00 -0.26845900643E+04  0.26845900643E+04  0.00000000000E+00 0.  1.
         23    2    1    2    0    0  0.17452022341E+03 -0.17073242985E+04  0.25238567293E+03  0.17370411587E+04  0.90553246573E+02 0.  0.
         13    1    3    3    0    0  0.16205978149E+03 -0.11761917260E+04  0.17873282498E+03  0.12006813781E+04  0.00000000000E+00 0. -1.
        -13    1    3    3    0    0  0.12460441921E+02 -0.53113257250E+03  0.73652847948E+02  0.53635978055E+03  0.00000000000E+00 0.  1.
         22    1    1    2    0    0 -0.17452022341E+03  0.17073242985E+04 -0.15631408279E+04  0.23213838150E+04  0.00000000000E+00 0.  1.
<mgrwt>
<rscale>  0 0.38409288E+04</rscale>
<asrwt>0</asrwt>
<pdfrwt beam="1">  1        2 0.21135922E+00 0.38409288E+04</pdfrwt>
<pdfrwt beam="2">  1       -2 0.41301385E+00 0.38409288E+04</pdfrwt>
<totfact> 0.72938941E-02</totfact>
</mgrwt>
</event>
<event>
 6    1  0.2238133E-007  0.3441738E+04  0.7818608E-02  0.8127738E-01
         -2   -1    0    0    0  501 -0.00000000000E+00  0.00000000000E+00  0.12479888514E+04  0.12479888514E+04  0.00000000000E+00 0.  1.
          2   -1    0    0  501    0  0.00000000000E+00 -0.00000000000E+00 -0.23729302486E+04  0.23729302486E+04  0.00000000000E+00 0. -1.
         23    2    1    2    0    0 -0.16424503423E+04  0.26735783459E+03 -0.10662686264E+03  0.16699993605E+04  0.91680084485E+02 0.  0.
         13    1    3    3    0    0 -0.66046820768E+03  0.87362338898E+02 -0.83062407532E+02  0.67137902496E+03  0.00000000000E+00 0.  1.
        -13    1    3    3    0    0 -0.98198213457E+03  0.17999549569E+03 -0.23564455108E+02  0.99862033558E+03  0.00000000000E+00 0. -1.
         22    1    1    2    0    0  0.16424503423E+04 -0.26735783459E+03 -0.10183145346E+04  0.19509197395E+04  0.00000000000E+00 0. -1.
<mgrwt>
<rscale>  0 0.34417382E+04</rscale>
<asrwt>0</asrwt>
<pdfrwt beam="1">  1        2 0.36506619E+00 0.34417382E+04</pdfrwt>
<pdfrwt beam="2">  1       -2 0.19199829E+00 0.34417382E+04</pdfrwt>
<totfact> 0.51121015E-01</totfact>
</mgrwt>
</event>
<event>
 6    1  0.2238133E-007  0.3143312E+04  0.7818608E-02  0.8203951E-01
          2   -1    0    0  501    0  0.00000000000E+00  0.00000000000E+00  0.12498198453E+04  0.12498198453E+04  0.00000000000E+00 0. -1.
         -2   -1    0    0    0  501 -0.00000000000E+00 -0.00000000000E+00 -0.19763673871E+04  0.19763673871E+04  0.00000000000E+00 0.  1.
         23    2    1    2    0    0 -0.15157515424E+04 -0.25128874092E+03 -0.30465580200E+02  0.15394214316E+04  0.90782282095E+02 0.  0.
         13    1    3    3    0    0 -0.64201505289E+03 -0.13284422899E+03  0.23576256390E+02  0.65603868574E+03  0.00000000000E+00 0. -1.
        -13    1    3    3    0    0 -0.87373648955E+03 -0.11844451193E+03 -0.54041836590E+02  0.88338274585E+03  0.00000000000E+00 0.  1.
         22    1    1    2    0    0  0.15157515424E+04  0.25128874092E+03 -0.69608196158E+03  0.16867658009E+04  0.00000000000E+00 0.  1.
<mgrwt>
<rscale>  0 0.31433124E+04</rscale>
<asrwt>0</asrwt>
<pdfrwt beam="1">  1        2 0.19227998E+00 0.31433124E+04</pdfrwt>
<pdfrwt beam="2">  1       -2 0.30405652E+00 0.31433124E+04</pdfrwt>
<totfact> 0.44919928E-01</totfact>
</mgrwt>
</event>
<event>
 6    1  0.2238133E-007  0.5803315E+03  0.7818608E-02  0.9947073E-01
         -2   -1    0    0    0  501 -0.00000000000E+00  0.00000000000E+00  0.13601992683E+03  0.13601992683E+03  0.00000000000E+00 0.  1.
          2   -1    0    0  501    0  0.00000000000E+00 -0.00000000000E+00 -0.61899883545E+03  0.61899883545E+03  0.00000000000E+00 0. -1.
         23    2    1    2    0    0 -0.28366213150E+03 -0.22959404255E+02 -0.26098338607E+03  0.39408476398E+03  0.78734581403E+02 0.  0.
         13    1    3    3    0    0 -0.95463625648E+02 -0.13501889920E+02 -0.14058522111E+03  0.17046937921E+03  0.00000000000E+00 0.  1.
        -13    1    3    3    0    0 -0.18819850585E+03 -0.94575143357E+01 -0.12039816496E+03  0.22361538477E+03  0.00000000000E+00 0. -1.
         22    1    1    2    0    0  0.28366213150E+03  0.22959404255E+02 -0.22199552256E+03  0.36093399830E+03  0.00000000000E+00 0. -1.
<mgrwt>
<rscale>  0 0.58033155E+03</rscale>
<asrwt>0</asrwt>
<pdfrwt beam="1">  1        2 0.95230591E-01 0.58033155E+03</pdfrwt>
<pdfrwt beam="2">  1       -2 0.20926142E-01 0.58033155E+03</pdfrwt>
<totfact> 0.94464211E+02</totfact>
</mgrwt>
</event>
<event>
 6    1  0.2238133E-007  0.2334551E+04  0.7818608E-02  0.8464421E-01
          2   -1    0    0  501    0  0.00000000000E+00  0.00000000000E+00  0.27086847977E+04  0.27086847977E+04  0.00000000000E+00 0. -1.
         -2   -1    0    0    0  501 -0.00000000000E+00 -0.00000000000E+00 -0.50302341116E+03  0.50302341116E+03  0.00000000000E+00 0.  1.
         23    2    1    2    0    0  0.30298706825E+03 -0.88434798913E+03  0.20620525988E+04  0.22659302152E+04  0.92229553896E+02 0.  0.
         13    1    3    3    0    0  0.14054744959E+03 -0.36264950218E+03  0.75576362064E+03  0.84996876254E+03  0.00000000000E+00 0. -1.
        -13    1    3    3    0    0  0.16243961866E+03 -0.52169848695E+03  0.13062889781E+04  0.14159614526E+04  0.00000000000E+00 0.  1.
         22    1    1    2    0    0 -0.30298706825E+03  0.88434798913E+03  0.14360878778E+03  0.94577799368E+03  0.00000000000E+00 0.  1.
<mgrwt>
<rscale>  0 0.23345508E+04</rscale>
<asrwt>0</asrwt>
<pdfrwt beam="1">  1        2 0.41672073E+00 0.23345508E+04</pdfrwt>
<pdfrwt beam="2">  1       -2 0.77388219E-01 0.23345508E+04</pdfrwt>
<totfact> 0.35331451E+00</totfact>
</mgrwt>
</event>
<event>
 6    1  0.2238133E-007  0.7995692E+03  0.7818608E-02  0.9560641E-01
         -2   -1    0    0    0  501 -0.00000000000E+00  0.00000000000E+00  0.25385978042E+03  0.25385978042E+03  0.00000000000E+00 0.  1.
          2   -1    0    0  501    0  0.00000000000E+00 -0.00000000000E+00 -0.62959058428E+03  0.62959058428E+03  0.00000000000E+00 0. -1.
         23    2    1    2    0    0 -0.23152712558E+02 -0.72792374154E+02 -0.61826915320E+03  0.62916778816E+03  0.88094165732E+02 0.  0.
         13    1    3    3    0    0  0.25893870959E+02 -0.88142405270E+01 -0.28404159610E+03  0.28535558818E+03  0.00000000000E+00 0.  1.
        -13    1    3    3    0    0 -0.49046583517E+02 -0.63978133627E+02 -0.33422755710E+03  0.34381219999E+03  0.00000000000E+00 0. -1.
         22    1    1    2    0    0  0.23152712558E+02  0.72792374154E+02  0.24253834933E+03  0.25428257654E+03  0.00000000000E+00 0.  1.
<mgrwt>
<rscale>  0 0.79956920E+03</rscale>
<asrwt>0</asrwt>
<pdfrwt beam="1">  1        2 0.96860089E-01 0.79956920E+03</pdfrwt>
<pdfrwt beam="2">  1       -2 0.39055351E-01 0.79956920E+03</pdfrwt>
<totfact> 0.29151393E+02</totfact>
</mgrwt>
</event>
<event>
 6    1  0.2238133E-007  0.4223140E+04  0.7818608E-02  0.7960985E-01
          2   -1    0    0  501    0  0.00000000000E+00  0.00000000000E+00  0.32451181526E+04  0.32451181526E+04  0.00000000000E+00 0. -1.
         -2   -1    0    0    0  501 -0.00000000000E+00 -0.00000000000E+00 -0.13739799382E+04  0.13739799382E+04  0.00000000000E+00 0.  1.
         23    2    1    2    0    0 -0.17858389906E+04  0.18777535959E+03 -0.27733772609E+03  0.18190214217E+04  0.86268373173E+02 0.  0.
         13    1    3    3    0    0 -0.12398077631E+04  0.11149554487E+03 -0.22762007994E+03  0.12654506892E+04  0.00000000000E+00 0.  1.
        -13    1    3    3    0    0 -0.54603122754E+03  0.76279814711E+02 -0.49717646158E+02  0.55357073254E+03  0.00000000000E+00 0. -1.
         22    1    1    2    0    0  0.17858389906E+04 -0.18777535959E+03  0.21484759405E+04  0.28000766691E+04  0.00000000000E+00 0. -1.
<mgrwt>
<rscale>  0 0.42231397E+04</rscale>
<asrwt>0</asrwt>
<pdfrwt beam="1">  1        2 0.49924895E+00 0.42231397E+04</pdfrwt>
<pdfrwt beam="2">  1       -2 0.21138153E+00 0.42231397E+04</pdfrwt>
<totfact> 0.10517556E-01</totfact>
</mgrwt>
</event>
<event>
 6    1  0.2238133E-007  0.2743894E+04  0.7818608E-02  0.8320902E-01
         -2   -1    0    0    0  501 -0.00000000000E+00  0.00000000000E+00  0.18322710537E+04  0.18322710537E+04  0.00000000000E+00 0.  1.
          2   -1    0    0  501    0  0.00000000000E+00 -0.00000000000E+00 -0.10272705145E+04  0.10272705145E+04  0.00000000000E+00 0. -1.
         23    2    1    2    0    0 -0.81796924211E+03 -0.30466361877E+02  0.15483679014E+04  0.17538305231E+04  0.92067722592E+02 0.  0.
         13    1    3    3    0    0 -0.45113352613E+03 -0.61298139616E+02  0.87919963449E+03  0.99008631826E+03  0.00000000000E+00 0. -1.
        -13    1    3    3    0    0 -0.36683571598E+03  0.30831777738E+02  0.66916826686E+03  0.76374420483E+03  0.00000000000E+00 0.  1.
         22    1    1    2    0    0  0.81796924211E+03  0.30466361877E+02 -0.74336736210E+03  0.11057110451E+04  0.00000000000E+00 0. -1.
<mgrwt>
<rscale>  0 0.27438936E+04</rscale>
<asrwt>0</asrwt>
<pdfrwt beam="1">  1        2 0.15804162E+00 0.27438936E+04</pdfrwt>
<pdfrwt beam="2">  1       -2 0.28188785E+00 0.27438936E+04</pdfrwt>
<totfact> 0.86742237E-01</totfact>
</mgrwt>
</event>
<event>
 6    1  0.2238133E-007  0.1947565E+04  0.7818608E-02  0.8631536E-01
          2   -1    0    0  501    0  0.00000000000E+00  0.00000000000E+00  0.80717811030E+03  0.80717811030E+03  0.00000000000E+00 0. -1.
         -2   -1    0    0    0  501 -0.00000000000E+00 -0.00000000000E+00 -0.11747744713E+04  0.11747744713E+04  0.00000000000E+00 0.  1.
         23    2    1    2    0    0 -0.44396135550E+03 -0.69135877023E+03  0.34377777057E+03  0.89515370901E+03  0.89656973377E+02 0.  0.
         13    1    3    3    0    0 -0.16595388150E+03 -0.19842077696E+03  0.79927102658E+02  0.27073942685E+03  0.00000000000E+00 0. -1.
        -13    1    3    3    0    0 -0.27800747400E+03 -0.49293799327E+03  0.26385066792E+03  0.62441428216E+03  0.00000000000E+00 0.  1.
         22    1    1    2    0    0  0.44396135550E+03  0.69135877023E+03 -0.71137413155E+03  0.10867988726E+04  0.00000000000E+00 0.  1.
<mgrwt>
<rscale>  0 0.19475649E+04</rscale>
<asrwt>0</asrwt>
<pdfrwt beam="1">  1        2 0.12418125E+00 0.19475649E+04</pdfrwt>
<pdfrwt beam="2">  1       -2 0.18073453E+00 0.19475649E+04</pdfrwt>
<totfact> 0.56886376E+00</totfact>
</mgrwt>
</event>
<event>
 6    1  0.2238133E-007  0.3135977E+04  0.7818608E-02  0.8205933E-01
         -1   -1    0    0    0  501 -0.00000000000E+00  0.00000000000E+00  0.94485415364E+03  0.94485415364E+03  0.00000000000E+00 0.  1.
          1   -1    0    0  501    0  0.00000000000E+00 -0.00000000000E+00 -0.26020823981E+04  0.26020823981E+04  0.00000000000E+00 0. -1.
         23    2    1    2    0    0  0.12279376098E+04 -0.56921787768E+03 -0.17214290226E+04  0.21919599816E+04  0.97626407758E+02 0.  0.
         13    1    3    3    0    0  0.81852180426E+03 -0.35463150442E+03 -0.10674340117E+04  0.13910991400E+04  0.00000000000E+00 0. -1.
        -13    1    3    3    0    0  0.40941580551E+03 -0.21458637326E+03 -0.65399501082E+03  0.80086084157E+03  0.00000000000E+00 0.  1.
         22    1    1    2    0    0 -0.12279376098E+04  0.56921787768E+03  0.64200778081E+02  0.13549765702E+04  0.00000000000E+00 0. -1.
<mgrwt>
<rscale>  0 0.31359773E+04</rscale>
<asrwt>0</asrwt>
<pdfrwt beam="1">  1        1 0.40032036E+00 0.31359773E+04</pdfrwt>
<pdfrwt beam="2">  1       -1 0.14536218E+00 0.31359773E+04</pdfrwt>
<totfact> 0.36701584E-01</totfact>
</mgrwt>
</event>
<event>
 6    1  0.2238133E-007  0.1680757E+04  0.7818608E-02  0.8772416E-01
         -2   -1    0    0    0  501 -0.00000000000E+00  0.00000000000E+00  0.71945625398E+03  0.71945625398E+03  0.00000000000E+00 0.  1.
          2   -1    0    0  501    0  0.00000000000E+00 -0.00000000000E+00 -0.98162464436E+03  0.98162464436E+03  0.00000000000E+00 0. -1.
         23    2    1    2    0    0  0.30064599358E+03 -0.62336028074E+03  0.34692524232E+03  0.77914754585E+03  0.88021141756E+02 0.  0.
         11    1    3    3    0    0  0.65982752506E+02 -0.18919385929E+03  0.13758651547E+03  0.24305984708E+03  0.00000000000E+00 0.  1.
        -11    1    3    3    0    0  0.23466324107E+03 -0.43416642144E+03  0.20933872685E+03  0.53608769878E+03  0.00000000000E+00 0. -1.
         22    1    1    2    0    0 -0.30064599358E+03  0.62336028074E+03 -0.60909363269E+03  0.92193335249E+03  0.00000000000E+00 0. -1.
<mgrwt>
<rscale>  0 0.16807570E+04</rscale>
<asrwt>0</asrwt>
<pdfrwt beam="1">  1        2 0.15101917E+00 0.16807570E+04</pdfrwt>
<pdfrwt beam="2">  1       -2 0.11068558E+00 0.16807570E+04</pdfrwt>
<totfact> 0.15967976E+01</totfact>
</mgrwt>
</event>
<event>
 6    1  0.2238133E-007  0.6337003E+03  0.7818608E-02  0.9837854E-01
          2   -1    0    0  501    0  0.00000000000E+00  0.00000000000E+00  0.21752430298E+04  0.21752430298E+04  0.00000000000E+00 0. -1.
         -2   -1    0    0    0  501 -0.00000000000E+00 -0.00000000000E+00 -0.46153018385E+02  0.46153018385E+02  0.00000000000E+00 0.  1.
         23    2    1    2    0    0 -0.31327081906E+03  0.83274927845E+01  0.10990573739E+04  0.11447460644E+04  0.65639071130E+02 0.  0.
         13    1    3    3    0    0 -0.74147603600E+02 -0.15190807412E+02  0.35018642600E+03  0.35827246713E+03  0.00000000000E+00 0.  1.
        -13    1    3    3    0    0 -0.23912321546E+03  0.23518300196E+02  0.74887094790E+03  0.78647359728E+03  0.00000000000E+00 0. -1.
         22    1    1    2    0    0  0.31327081906E+03 -0.83274927845E+01  0.10300326376E+04  0.10766499838E+04  0.00000000000E+00 0.  1.
<mgrwt>
<rscale>  0 0.63370034E+03</rscale>
<asrwt>0</asrwt>
<pdfrwt beam="1">  1        2 0.33465269E+00 0.63370034E+03</pdfrwt>
<pdfrwt beam="2">  1       -2 0.71004661E-02 0.63370034E+03</pdfrwt>
<totfact> 0.65799420E+02</totfact>
</mgrwt>
</event>
<event>
 6    1  0.2238133E-007  0.1412156E+04  0.7818608E-02  0.8945066E-01
          2   -1    0    0  501    0  0.00000000000E+00  0.00000000000E+00  0.11232858591E+04  0.11232858591E+04  0.00000000000E+00 0. -1.
         -2   -1    0    0    0  501 -0.00000000000E+00 -0.00000000000E+00 -0.44382825142E+03  0.44382825142E+03  0.00000000000E+00 0.  1.
         23    2    1    2    0    0  0.13637417748E+03  0.64496196543E+03  0.61268290154E+03  0.90451867249E+03  0.90552956412E+02 0.  0.
         13    1    3    3    0    0  0.72183202267E+02  0.47884270517E+03  0.40811739844E+03  0.63329342480E+03  0.00000000000E+00 0. -1.
        -13    1    3    3    0    0  0.64190975209E+02  0.16611926025E+03  0.20456550310E+03  0.27122524769E+03  0.00000000000E+00 0.  1.
         22    1    1    2    0    0 -0.13637417748E+03 -0.64496196543E+03  0.66774706157E+02  0.66259543804E+03  0.00000000000E+00 0.  1.
<mgrwt>
<rscale>  0 0.14121558E+04</rscale>
<asrwt>0</asrwt>
<pdfrwt beam="1">  1        2 0.17281321E+00 0.14121558E+04</pdfrwt>
<pdfrwt beam="2">  1       -2 0.68281270E-01 0.14121558E+04</pdfrwt>
<totfact> 0.40232787E+01</totfact>
</mgrwt>
</event>
<event>
 6    1  0.2442633E-007  0.2926443E+04  0.7818608E-02  0.8265053E-01
          1   -1    0    0  501    0  0.00000000000E+00  0.00000000000E+00  0.14325994860E+04  0.14325994860E+04  0.00000000000E+00 0. -1.
         -1   -1    0    0    0  501 -0.00000000000E+00 -0.00000000000E+00 -0.14944977504E+04  0.14944977504E+04  0.00000000000E+00 0.  1.
         23    2    1    2    0    0 -0.12035148839E+04 -0.82951043769E+03 -0.43570652661E+02  0.14652930282E+04  0.93003304802E+02 0.  0.
         13    1    3    3    0    0 -0.62568579714E+03 -0.47223352118E+03 -0.55172948495E+02  0.78583157833E+03  0.00000000000E+00 0.  1.
        -13    1    3    3    0    0 -0.57782908672E+03 -0.35727691651E+03  0.11602295834E+02  0.67946144982E+03  0.00000000000E+00 0. -1.
         22    1    1    2    0    0  0.12035148839E+04  0.82951043769E+03 -0.18327611803E+02  0.14618042082E+04  0.00000000000E+00 0.  1.
<mgrwt>
<rscale>  0 0.29264427E+04</rscale>
<asrwt>0</asrwt>
<pdfrwt beam="1">  1        1 0.22039992E+00 0.29264427E+04</pdfrwt>
<pdfrwt beam="2">  1       -1 0.22992273E+00 0.29264427E+04</pdfrwt>
<totfact> 0.58992935E-01</totfact>
</mgrwt>
</event>
<event>
 6    1  0.2238133E-007  0.1203328E+04  0.7818608E-02  0.9109949E-01
         -2   -1    0    0    0  501 -0.00000000000E+00  0.00000000000E+00  0.32332577786E+03  0.32332577786E+03  0.00000000000E+00 0.  1.
          2   -1    0    0  501    0  0.00000000000E+00 -0.00000000000E+00 -0.11196119547E+04  0.11196119547E+04  0.00000000000E+00 0. -1.
         23    2    1    2    0    0  0.27505655480E+03  0.38519931084E+02  0.23489189457E+03  0.37501071801E+03  0.91208240085E+02 0.  0.
         13    1    3    3    0    0  0.26133010870E+03  0.38977010190E+02  0.18318538568E+03  0.32151130395E+03  0.00000000000E+00 0.  1.
        -13    1    3    3    0    0  0.13726446096E+02 -0.45707910600E+00  0.51706508888E+02  0.53499414063E+02  0.00000000000E+00 0. -1.
         22    1    1    2    0    0 -0.27505655480E+03 -0.38519931084E+02 -0.10311780714E+04  0.10679270145E+04  0.00000000000E+00 0. -1.
<mgrwt>
<rscale>  0 0.12033277E+04</rscale>
<asrwt>0</asrwt>
<pdfrwt beam="1">  1        2 0.17224799E+00 0.12033277E+04</pdfrwt>
<pdfrwt beam="2">  1       -2 0.49742428E-01 0.12033277E+04</pdfrwt>
<totfact> 0.79921394E+01</totfact>
</mgrwt>
</event>
<event>
 6    1  0.2238133E-007  0.1911465E+04  0.7818608E-02  0.8649170E-01
          2   -1    0    0  501    0  0.00000000000E+00  0.00000000000E+00  0.12149536756E+04  0.12149536756E+04  0.00000000000E+00 0. -1.
         -2   -1    0    0    0  501 -0.00000000000E+00 -0.00000000000E+00 -0.75181865462E+03  0.75181865462E+03  0.00000000000E+00 0.  1.
         23    2    1    2    0    0  0.86302235305E+03  0.40364559964E+03  0.27455324177E+03  0.99553577850E+03  0.89300905637E+02 0.  0.
         13    1    3    3    0    0  0.34249790297E+03  0.20369892273E+03  0.13488212862E+03  0.42070328413E+03  0.00000000000E+00 0.  1.
        -13    1    3    3    0    0  0.52052445008E+03  0.19994667691E+03  0.13967111315E+03  0.57483249437E+03  0.00000000000E+00 0. -1.
         22    1    1    2    0    0 -0.86302235305E+03 -0.40364559964E+03  0.18858177922E+03  0.97123655173E+03  0.00000000000E+00 0. -1.
<mgrwt>
<rscale>  0 0.19114652E+04</rscale>
<asrwt>0</asrwt>
<pdfrwt beam="1">  1        2 0.18691595E+00 0.19114652E+04</pdfrwt>
<pdfrwt beam="2">  1       -2 0.11566441E+00 0.19114652E+04</pdfrwt>
<totfact> 0.10096142E+01</totfact>
</mgrwt>
</event>
<event>
 6    1  0.2238133E-007  0.1507917E+04  0.7818608E-02  0.8879205E-01
         -2   -1    0    0    0  501 -0.00000000000E+00  0.00000000000E+00  0.67459894929E+03  0.67459894929E+03  0.00000000000E+00 0.  1.
          2   -1    0    0  501    0  0.00000000000E+00 -0.00000000000E+00 -0.84265430821E+03  0.84265430821E+03  0.00000000000E+00 0. -1.
         23    2    1    2    0    0 -0.56768975800E+03  0.47778260838E+03 -0.20322547961E+03  0.77443105831E+03  0.88853735467E+02 0.  0.
         13    1    3    3    0    0 -0.40570183660E+03  0.31799243764E+03 -0.17872775389E+03  0.54557930737E+03  0.00000000000E+00 0.  1.
        -13    1    3    3    0    0 -0.16198792140E+03  0.15979017074E+03 -0.24497725717E+02  0.22885175094E+03  0.00000000000E+00 0. -1.
         22    1    1    2    0    0  0.56768975800E+03 -0.47778260838E+03  0.35170120686E+02  0.74282219918E+03  0.00000000000E+00 0. -1.
<mgrwt>
<rscale>  0 0.15079174E+04</rscale>
<asrwt>0</asrwt>
<pdfrwt beam="1">  1        2 0.12963912E+00 0.15079174E+04</pdfrwt>
<pdfrwt beam="2">  1       -2 0.10378445E+00 0.15079174E+04</pdfrwt>
<totfact> 0.23447276E+01</totfact>
</mgrwt>
</event>
<event>
 6    1  0.2238133E-007  0.8364975E+04  0.7818608E-02  0.7451009E-01
          2   -1    0    0  501    0  0.00000000000E+00  0.00000000000E+00  0.43397178362E+04  0.43397178362E+04  0.00000000000E+00 0. -1.
         -2   -1    0    0    0  501 -0.00000000000E+00 -0.00000000000E+00 -0.40309534695E+04  0.40309534695E+04  0.00000000000E+00 0.  1.
         23    2    1    2    0    0  0.19184059826E+04  0.36529619285E+04  0.83636127384E+03  0.42110113602E+04  0.93295930020E+02 0.  0.
         13    1    3    3    0    0  0.10605376879E+04  0.19200220726E+04  0.45016477332E+03  0.22391679861E+04  0.00000000000E+00 0. -1.
        -13    1    3    3    0    0  0.85786829465E+03  0.17329398559E+04  0.38619650052E+03  0.19718433742E+04  0.00000000000E+00 0.  1.
         22    1    1    2    0    0 -0.19184059826E+04 -0.36529619285E+04 -0.52759690716E+03  0.41596599454E+04  0.00000000000E+00 0.  1.
<mgrwt>
<rscale>  0 0.83649748E+04</rscale>
<asrwt>0</asrwt>
<pdfrwt beam="1">  1        2 0.66764889E+00 0.83649748E+04</pdfrwt>
<pdfrwt beam="2">  1       -2 0.62014669E+00 0.83649748E+04</pdfrwt>
<totfact> 0.43128341E-05</totfact>
</mgrwt>
</event>
<event>
 6    1  0.2238133E-007  0.1407112E+04  0.7818608E-02  0.8948687E-01
          2   -1    0    0  501    0  0.00000000000E+00  0.00000000000E+00  0.79703117009E+03  0.79703117009E+03  0.00000000000E+00 0. -1.
         -2   -1    0    0    0  501 -0.00000000000E+00 -0.00000000000E+00 -0.62104351028E+03  0.62104351028E+03  0.00000000000E+00 0.  1.
         23    2    1    2    0    0  0.24501213041E+03 -0.29817660473E+03  0.67804909995E+03  0.78482439706E+03  0.85196951971E+02 0.  0.
         13    1    3    3    0    0  0.63281910104E+02 -0.12195868536E+03  0.18332891515E+03  0.22910262376E+03  0.00000000000E+00 0. -1.
        -13    1    3    3    0    0  0.18173022031E+03 -0.17621791936E+03  0.49472018479E+03  0.55572177330E+03  0.00000000000E+00 0.  1.
         22    1    1    2    0    0 -0.24501213041E+03  0.29817660473E+03 -0.50206144013E+03  0.63325028331E+03  0.00000000000E+00 0.  1.
<mgrwt>
<rscale>  0 0.14071120E+04</rscale>
<asrwt>0</asrwt>
<pdfrwt beam="1">  1        2 0.12262018E+00 0.14071120E+04</pdfrwt>
<pdfrwt beam="2">  1       -2 0.95545155E-01 0.14071120E+04</pdfrwt>
<totfact> 0.30977219E+01</totfact>
</mgrwt>
</event>
<event>
 6    1  0.2238133E-007  0.1158605E+04  0.7818608E-02  0.9149881E-01
         -2   -1    0    0    0  501 -0.00000000000E+00  0.00000000000E+00  0.36679622336E+03  0.36679622336E+03  0.00000000000E+00 0.  1.
          2   -1    0    0  501    0  0.00000000000E+00 -0.00000000000E+00 -0.91492615765E+03  0.91492615765E+03  0.00000000000E+00 0. -1.
         23    2    1    2    0    0 -0.34572542756E+03  0.60273743695E+02  0.22736350412E+03  0.43051790002E+03  0.10243292341E+03 0.  0.
         13    1    3    3    0    0 -0.28223354629E+03  0.70630807655E+02  0.14231532865E+03  0.32387982094E+03  0.00000000000E+00 0. -1.
        -13    1    3    3    0    0 -0.63491881266E+02 -0.10357063960E+02  0.85048175471E+02  0.10663807909E+03  0.00000000000E+00 0.  1.
         22    1    1    2    0    0  0.34572542756E+03 -0.60273743695E+02 -0.77549343841E+03  0.85120448099E+03  0.00000000000E+00 0. -1.
<mgrwt>
<rscale>  0 0.11586051E+04</rscale>
<asrwt>0</asrwt>
<pdfrwt beam="1">  1        2 0.14075787E+00 0.11586051E+04</pdfrwt>
<pdfrwt beam="2">  1       -2 0.56430189E-01 0.11586051E+04</pdfrwt>
<totfact> 0.83533241E+01</totfact>
</mgrwt>
</event>
<event>
 6    1  0.2238133E-007  0.2783796E+04  0.7818608E-02  0.8308317E-01
          2   -1    0    0  501    0  0.00000000000E+00  0.00000000000E+00  0.12167670816E+04  0.12167670816E+04  0.00000000000E+00 0. -1.
         -2   -1    0    0    0  501 -0.00000000000E+00 -0.00000000000E+00 -0.15922359174E+04  0.15922359174E+04  0.00000000000E+00 0.  1.
         23    2    1    2    0    0 -0.12213272025E+04  0.17819208195E+03 -0.83389127075E+03  0.14923619384E+04  0.91525680481E+02 0.  0.
         13    1    3    3    0    0 -0.60102729773E+03  0.53781791071E+02 -0.44461433681E+03  0.74953865955E+03  0.00000000000E+00 0.  1.
        -13    1    3    3    0    0 -0.62029990479E+03  0.12441029088E+03 -0.38927693393E+03  0.74282327888E+03  0.00000000000E+00 0. -1.
         22    1    1    2    0    0  0.12213272025E+04 -0.17819208195E+03  0.45842243497E+03  0.13166410606E+04  0.00000000000E+00 0. -1.
<mgrwt>
<rscale>  0 0.27837961E+04</rscale>
<asrwt>0</asrwt>
<pdfrwt beam="1">  1        2 0.18719494E+00 0.27837961E+04</pdfrwt>
<pdfrwt beam="2">  1       -2 0.24495937E+00 0.27837961E+04</pdfrwt>
<totfact> 0.11131885E+00</totfact>
</mgrwt>
</event>
<event>
 6    1  0.2238133E-007  0.7011675E+03  0.7818608E-02  0.9715238E-01
         -2   -1    0    0    0  501 -0.00000000000E+00  0.00000000000E+00  0.10048299396E+03  0.10048299396E+03  0.00000000000E+00 0.  1.
          2   -1    0    0  501    0  0.00000000000E+00 -0.00000000000E+00 -0.12231819226E+04  0.12231819226E+04  0.00000000000E+00 0. -1.
         23    2    1    2    0    0 -0.20776979341E+03  0.27468184576E+03 -0.58055724328E+03  0.68137525414E+03  0.92774569726E+02 0.  0.
         11    1    3    3    0    0 -0.15684713786E+02  0.22369758861E+02 -0.11417261009E+03  0.11739591668E+03  0.00000000000E+00 0. -1.
        -11    1    3    3    0    0 -0.19208507962E+03  0.25231208690E+03 -0.46638463319E+03  0.56397933746E+03  0.00000000000E+00 0.  1.
         22    1    1    2    0    0  0.20776979341E+03 -0.27468184576E+03 -0.54214168533E+03  0.64228966239E+03  0.00000000000E+00 0.  1.
<mgrwt>
<rscale>  0 0.70116755E+03</rscale>
<asrwt>0</asrwt>
<pdfrwt beam="1">  1        2 0.18818184E+00 0.70116755E+03</pdfrwt>
<pdfrwt beam="2">  1       -2 0.15458922E-01 0.70116755E+03</pdfrwt>
<totfact> 0.61673128E+02</totfact>
</mgrwt>
</event>
<event>
 6    1  0.2238133E-007  0.1513665E+04  0.7818608E-02  0.8875416E-01
         -2   -1    0    0    0  501 -0.00000000000E+00  0.00000000000E+00  0.95355908417E+03  0.95355908417E+03  0.00000000000E+00 0.  1.
          2   -1    0    0  501    0  0.00000000000E+00 -0.00000000000E+00 -0.60069217953E+03  0.60069217953E+03  0.00000000000E+00 0. -1.
         23    2    1    2    0    0  0.51935023938E+03 -0.49985291456E+02 -0.38197887908E+03  0.65301792745E+03  0.91111739051E+02 0.  0.
         11    1    3    3    0    0  0.22278470283E+03 -0.59951226227E+02 -0.19679498705E+03  0.30324155432E+03  0.00000000000E+00 0. -1.
        -11    1    3    3    0    0  0.29656553655E+03  0.99659347704E+01 -0.18518389203E+03  0.34977637312E+03  0.00000000000E+00 0.  1.
         22    1    1    2    0    0 -0.51935023938E+03  0.49985291456E+02  0.73484578372E+03  0.90123333625E+03  0.00000000000E+00 0.  1.
<mgrwt>
<rscale>  0 0.15136651E+04</rscale>
<asrwt>0</asrwt>
<pdfrwt beam="1">  1        2 0.92414181E-01 0.15136651E+04</pdfrwt>
<pdfrwt beam="2">  1       -2 0.14670140E+00 0.15136651E+04</pdfrwt>
<totfact> 0.15180202E+01</totfact>
</mgrwt>
</event>
<event>
 6    1  0.2238133E-007  0.3655065E+04  0.7818608E-02  0.8077994E-01
          2   -1    0    0  501    0  0.00000000000E+00  0.00000000000E+00  0.22402222908E+04  0.22402222908E+04  0.00000000000E+00 0. -1.
         -2   -1    0    0    0  501 -0.00000000000E+00 -0.00000000000E+00 -0.14908675984E+04  0.14908675984E+04  0.00000000000E+00 0.  1.
         23    2    1    2    0    0  0.10184235121E+04 -0.13090023544E+04  0.11558952477E+04  0.20234749335E+04  0.87654829364E+02 0.  0.
         11    1    3    3    0    0  0.29221280626E+03 -0.39511167048E+03  0.29651681307E+03  0.57395450754E+03  0.00000000000E+00 0.  1.
        -11    1    3    3    0    0  0.72621070583E+03 -0.91389068390E+03  0.85937843459E+03  0.14495204259E+04  0.00000000000E+00 0. -1.
         22    1    1    2    0    0 -0.10184235121E+04  0.13090023544E+04 -0.40654055528E+03  0.17076149557E+04  0.00000000000E+00 0.  1.
<mgrwt>
<rscale>  0 0.36550649E+04</rscale>
<asrwt>0</asrwt>
<pdfrwt beam="1">  1        2 0.34464958E+00 0.36550649E+04</pdfrwt>
<pdfrwt beam="2">  1       -2 0.22936425E+00 0.36550649E+04</pdfrwt>
<totfact> 0.34314322E-01</totfact>
</mgrwt>
</event>
<event>
 6    1  0.2238133E-007  0.1062535E+04  0.7818608E-02  0.9242498E-01
         -2   -1    0    0    0  501 -0.00000000000E+00  0.00000000000E+00  0.52679403269E+03  0.52679403269E+03  0.00000000000E+00 0.  1.
          2   -1    0    0  501    0  0.00000000000E+00 -0.00000000000E+00 -0.53577861307E+03  0.53577861307E+03  0.00000000000E+00 0. -1.
         23    2    1    2    0    0  0.18378004922E+03 -0.48833716580E+03 -0.80045594251E+02  0.53598175931E+03  0.92848560389E+02 0.  0.
         11    1    3    3    0    0  0.13732766310E+03 -0.26770052148E+03 -0.14693115005E+02  0.30122805958E+03  0.00000000000E+00 0. -1.
        -11    1    3    3    0    0  0.46452386122E+02 -0.22063664432E+03 -0.65352479247E+02  0.23475369973E+03  0.00000000000E+00 0.  1.
         22    1    1    2    0    0 -0.18378004922E+03  0.48833716580E+03  0.71061013869E+02  0.52659088644E+03  0.00000000000E+00 0.  1.
<mgrwt>
<rscale>  0 0.10625347E+04</rscale>
<asrwt>0</asrwt>
<pdfrwt beam="1">  1        2 0.82427479E-01 0.10625347E+04</pdfrwt>
<pdfrwt beam="2">  1       -2 0.81045236E-01 0.10625347E+04</pdfrwt>
<totfact> 0.75901046E+01</totfact>
</mgrwt>
</event>
<event>
 6    1  0.2238133E-007  0.1823082E+04  0.7818608E-02  0.8694120E-01
          2   -1    0    0  501    0  0.00000000000E+00  0.00000000000E+00  0.24716546977E+04  0.24716546977E+04  0.00000000000E+00 0. -1.
         -2   -1    0    0    0  501 -0.00000000000E+00 -0.00000000000E+00 -0.33617437900E+03  0.33617437900E+03  0.00000000000E+00 0.  1.
         23    2    1    2    0    0 -0.36895681104E+03  0.21500093991E+03  0.23069128440E+04  0.23476729692E+04  0.85831040456E+02 0.  0.
         13    1    3    3    0    0 -0.31049033565E+03  0.14490813322E+03  0.17331283160E+04  0.17666738169E+04  0.00000000000E+00 0. -1.
        -13    1    3    3    0    0 -0.58466475384E+02  0.70092806692E+02  0.57378452808E+03  0.58099915228E+03  0.00000000000E+00 0.  1.
         22    1    1    2    0    0  0.36895681104E+03 -0.21500093991E+03 -0.17143252533E+03  0.46015610755E+03  0.00000000000E+00 0.  1.
<mgrwt>
<rscale>  0 0.18230820E+04</rscale>
<asrwt>0</asrwt>
<pdfrwt beam="1">  1        2 0.38025456E+00 0.18230820E+04</pdfrwt>
<pdfrwt beam="2">  1       -2 0.51719137E-01 0.18230820E+04</pdfrwt>
<totfact> 0.12040649E+01</totfact>
</mgrwt>
</event>
<event>
 6    1  0.3083159E-007  0.5106568E+04  0.7818608E-02  0.7812275E-01
          2   -1    0    0  501    0  0.00000000000E+00  0.00000000000E+00  0.26357515911E+04  0.26357515911E+04  0.00000000000E+00 0. -1.
         -2   -1    0    0    0  501 -0.00000000000E+00 -0.00000000000E+00 -0.24733968031E+04  0.24733968031E+04  0.00000000000E+00 0.  1.
         23    2    1    2    0    0 -0.66653293123E+03  0.18100553313E+04 -0.15913349579E+04  0.25022356270E+04  0.90938079276E+02 0.  0.
         13    1    3    3    0    0 -0.27246089548E+03  0.76294451002E+03 -0.72585568610E+03  0.10877434173E+04  0.00000000000E+00 0. -1.
        -13    1    3    3    0    0 -0.39407203575E+03  0.10471108212E+04 -0.86547927181E+03  0.14144922097E+04  0.00000000000E+00 0.  1.
         22    1    1    2    0    0  0.66653293123E+03 -0.18100553313E+04  0.17536897459E+04  0.26069127671E+04  0.00000000000E+00 0. -1.
<mgrwt>
<rscale>  0 0.51065681E+04</rscale>
<asrwt>0</asrwt>
<pdfrwt beam="1">  1        2 0.40550024E+00 0.51065681E+04</pdfrwt>
<pdfrwt beam="2">  1       -2 0.38052259E+00 0.51065681E+04</pdfrwt>
<totfact> 0.20800076E-02</totfact>
</mgrwt>
</event>
<event>
 6    1  0.2238133E-007  0.6489467E+04  0.7818608E-02  0.7632509E-01
          2   -1    0    0  501    0  0.00000000000E+00  0.00000000000E+00  0.37906017877E+04  0.37906017877E+04  0.00000000000E+00 0. -1.
         -2   -1    0    0    0  501 -0.00000000000E+00 -0.00000000000E+00 -0.27774731799E+04  0.27774731799E+04  0.00000000000E+00 0.  1.
         23    2    1    2    0    0 -0.24719580259E+04 -0.20484788888E+04  0.97844585081E+03  0.33574605197E+04  0.91337936759E+02 0.  0.
         11    1    3    3    0    0 -0.94300603308E+03 -0.82757047741E+03  0.35416053814E+03  0.13036728732E+04  0.00000000000E+00 0.  1.
        -11    1    3    3    0    0 -0.15289519928E+04 -0.12209084114E+04  0.62428531267E+03  0.20537876465E+04  0.00000000000E+00 0. -1.
         22    1    1    2    0    0  0.24719580259E+04  0.20484788888E+04  0.34682757042E+02  0.32106144479E+04  0.00000000000E+00 0. -1.
<mgrwt>
<rscale>  0 0.64894668E+04</rscale>
<asrwt>0</asrwt>
<pdfrwt beam="1">  1        2 0.58316951E+00 0.64894668E+04</pdfrwt>
<pdfrwt beam="2">  1       -2 0.42730356E+00 0.64894668E+04</pdfrwt>
<totfact> 0.15867775E-03</totfact>
</mgrwt>
</event>
<event>
 6    1  0.2238133E-007  0.3078854E+04  0.7818608E-02  0.8221565E-01
          2   -1    0    0  501    0  0.00000000000E+00  0.00000000000E+00  0.25532347975E+04  0.25532347975E+04  0.00000000000E+00 0. -1.
         -2   -1    0    0    0  501 -0.00000000000E+00 -0.00000000000E+00 -0.92817011312E+03  0.92817011312E+03  0.00000000000E+00 0.  1.
         23    2    1    2    0    0 -0.76072896834E+03 -0.58646075796E+03  0.21715736631E+04  0.23762728607E+04  0.91081010459E+02 0.  0.
         13    1    3    3    0    0 -0.48019602101E+03 -0.41297173608E+03  0.14928206690E+04  0.16216187663E+04  0.00000000000E+00 0.  1.
        -13    1    3    3    0    0 -0.28053294733E+03 -0.17348902187E+03  0.67875299409E+03  0.75465409442E+03  0.00000000000E+00 0. -1.
         22    1    1    2    0    0  0.76072896834E+03  0.58646075796E+03 -0.54650897871E+03  0.11051320499E+04  0.00000000000E+00 0.  1.
<mgrwt>
<rscale>  0 0.30788545E+04</rscale>
<asrwt>0</asrwt>
<pdfrwt beam="1">  1        2 0.39280535E+00 0.30788545E+04</pdfrwt>
<pdfrwt beam="2">  1       -2 0.14279540E+00 0.30788545E+04</pdfrwt>
<totfact> 0.94012619E-01</totfact>
</mgrwt>
</event>
<event>
 6    1  0.2238133E-007  0.4345273E+04  0.7818608E-02  0.7938299E-01
         -2   -1    0    0    0  501 -0.00000000000E+00  0.00000000000E+00  0.16988945269E+04  0.16988945269E+04  0.00000000000E+00 0.  1.
          2   -1    0    0  501    0  0.00000000000E+00 -0.00000000000E+00 -0.27784827223E+04  0.27784827223E+04  0.00000000000E+00 0. -1.
         23    2    1    2    0    0  0.12678604050E+04  0.17628556483E+04 -0.58020283993E+03  0.22492579129E+04  0.85998720403E+02 0.  0.
         11    1    3    3    0    0  0.61580403438E+03  0.78311268404E+03 -0.26983093078E+03  0.10321282943E+04  0.00000000000E+00 0. -1.
        -11    1    3    3    0    0  0.65205637063E+03  0.97974296426E+03 -0.31037190914E+03  0.12171296186E+04  0.00000000000E+00 0.  1.
         22    1    1    2    0    0 -0.12678604050E+04 -0.17628556483E+04 -0.49938535543E+03  0.22281193363E+04  0.00000000000E+00 0.  1.
<mgrwt>
<rscale>  0 0.43452729E+04</rscale>
<asrwt>0</asrwt>
<pdfrwt beam="1">  1        2 0.42745888E+00 0.43452729E+04</pdfrwt>
<pdfrwt beam="2">  1       -2 0.26136839E+00 0.43452729E+04</pdfrwt>
<totfact> 0.10002578E-01</totfact>
</mgrwt>
</event>
<event>
 6    1  0.2238133E-007  0.3114514E+04  0.7818608E-02  0.8211766E-01
          1   -1    0    0  501    0  0.00000000000E+00  0.00000000000E+00  0.32426917018E+04  0.32426917018E+04  0.00000000000E+00 0. -1.
         -1   -1    0    0    0  501 -0.00000000000E+00 -0.00000000000E+00 -0.74785050391E+03  0.74785050391E+03  0.00000000000E+00 0.  1.
         23    2    1    2    0    0 -0.14289089995E+04  0.22923522177E+03  0.51621494733E+03  0.15391565659E+04  0.90528154900E+02 0.  0.
         11    1    3    3    0    0 -0.75172146379E+03  0.76753083531E+02  0.25516397566E+03  0.79754927712E+03  0.00000000000E+00 0. -1.
        -11    1    3    3    0    0 -0.67718753568E+03  0.15248213824E+03  0.26105097166E+03  0.74160728878E+03  0.00000000000E+00 0.  1.
         22    1    1    2    0    0  0.14289089995E+04 -0.22923522177E+03  0.19786262506E+04  0.24513856398E+04  0.00000000000E+00 0. -1.
<mgrwt>
<rscale>  0 0.31145135E+04</rscale>
<asrwt>0</asrwt>
<pdfrwt beam="1">  1        1 0.49887564E+00 0.31145135E+04</pdfrwt>
<pdfrwt beam="2">  1       -1 0.11505393E+00 0.31145135E+04</pdfrwt>
<totfact> 0.22787202E-01</totfact>
</mgrwt>
</event>
<event>
 6    1  0.2238133E-007  0.9263868E+03  0.7818608E-02  0.9393185E-01
          2   -1    0    0  501    0  0.00000000000E+00  0.00000000000E+00  0.12992589875E+04  0.12992589875E+04  0.00000000000E+00 0. -1.
         -2   -1    0    0    0  501 -0.00000000000E+00 -0.00000000000E+00 -0.16513113289E+03  0.16513113289E+03  0.00000000000E+00 0.  1.
         23    2    1    2    0    0  0.28482774099E+03 -0.30264622265E+03  0.87947234525E+03  0.97697755740E+03  0.91060218962E+02 0.  0.
         11    1    3    3    0    0  0.13629172332E+03 -0.20044452777E+03  0.55850598440E+03  0.60883690523E+03  0.00000000000E+00 0. -1.
        -11    1    3    3    0    0  0.14853601767E+03 -0.10220169488E+03  0.32096636085E+03  0.36814065217E+03  0.00000000000E+00 0.  1.
         22    1    1    2    0    0 -0.28482774099E+03  0.30264622265E+03  0.25465550936E+03  0.48741256300E+03  0.00000000000E+00 0. -1.
<mgrwt>
<rscale>  0 0.92638676E+03</rscale>
<asrwt>0</asrwt>
<pdfrwt beam="1">  1        2 0.19988599E+00 0.92638676E+03</pdfrwt>
<pdfrwt beam="2">  1       -2 0.25404791E-01 0.92638676E+03</pdfrwt>
<totfact> 0.23062886E+02</totfact>
</mgrwt>
</event>
<event>
 6    1  0.2238133E-007  0.5316291E+04  0.7818608E-02  0.7781486E-01
          2   -1    0    0  501    0  0.00000000000E+00  0.00000000000E+00  0.45525452630E+04  0.45525452630E+04  0.00000000000E+00 0. -1.
         -2   -1    0    0    0  501 -0.00000000000E+00 -0.00000000000E+00 -0.15520408447E+04  0.15520408447E+04  0.00000000000E+00 0.  1.
         23    2    1    2    0    0 -0.21566820324E+04 -0.12368183652E+04  0.25781848384E+04  0.35828107638E+04  0.92189213443E+02 0.  0.
         11    1    3    3    0    0 -0.10031004671E+04 -0.52628744943E+03  0.11489723998E+04  0.16134827554E+04  0.00000000000E+00 0.  1.
        -11    1    3    3    0    0 -0.11535815653E+04 -0.71053091575E+03  0.14292124386E+04  0.19693280084E+04  0.00000000000E+00 0. -1.
         22    1    1    2    0    0  0.21566820324E+04  0.12368183652E+04  0.42231957996E+03  0.25217753439E+04  0.00000000000E+00 0.  1.
<mgrwt>
<rscale>  0 0.53162905E+04</rscale>
<asrwt>0</asrwt>
<pdfrwt beam="1">  1        2 0.70039157E+00 0.53162905E+04</pdfrwt>
<pdfrwt beam="2">  1       -2 0.23877552E+00 0.53162905E+04</pdfrwt>
<totfact> 0.57782108E-03</totfact>
</mgrwt>
</event>
<event>
 6    1  0.2238133E-007  0.8416408E+03  0.7818608E-02  0.9501626E-01
         -2   -1    0    0    0  501 -0.00000000000E+00  0.00000000000E+00  0.14730672990E+03  0.14730672990E+03  0.00000000000E+00 0.  1.
          2   -1    0    0  501    0  0.00000000000E+00 -0.00000000000E+00 -0.12021841857E+04  0.12021841857E+04  0.00000000000E+00 0. -1.
         23    2    1    2    0    0 -0.98057120141E+02  0.40324696880E+03 -0.56630925355E+03  0.70845877529E+03  0.94785805762E+02 0.  0.
         11    1    3    3    0    0 -0.75051632981E+02  0.12535956268E+03 -0.21483137632E+03  0.25980817505E+03  0.00000000000E+00 0. -1.
        -11    1    3    3    0    0 -0.23005487160E+02  0.27788740612E+03 -0.35147787723E+03  0.44865060024E+03  0.00000000000E+00 0.  1.
         22    1    1    2    0    0  0.98057120141E+02 -0.40324696880E+03 -0.48856820224E+03  0.64103214030E+03  0.00000000000E+00 0.  1.
<mgrwt>
<rscale>  0 0.84164083E+03</rscale>
<asrwt>0</asrwt>
<pdfrwt beam="1">  1        2 0.18495141E+00 0.84164083E+03</pdfrwt>
<pdfrwt beam="2">  1       -2 0.22662574E-01 0.84164083E+03</pdfrwt>
<totfact> 0.32436379E+02</totfact>
</mgrwt>
</event>
<event>
 6    1  0.2238133E-007  0.2151789E+03  0.7818608E-02  0.1137529E+00
         -2   -1    0    0    0  501 -0.00000000000E+00  0.00000000000E+00  0.86076685517E+03  0.86076685517E+03  0.00000000000E+00 0.  1.
          2   -1    0    0  501    0  0.00000000000E+00 -0.00000000000E+00 -0.13447883730E+02  0.13447883730E+02  0.00000000000E+00 0. -1.
         23    2    1    2    0    0  0.85384742568E+02 -0.18954344263E+02  0.47774448292E+03  0.49443174298E+03  0.92591231067E+02 0.  0.
         11    1    3    3    0    0  0.96297154574E+02  0.64710254337E+00  0.29511306073E+03  0.31042757503E+03  0.00000000000E+00 0. -1.
        -11    1    3    3    0    0 -0.10912412006E+02 -0.19601446807E+02  0.18263142219E+03  0.18400416795E+03  0.00000000000E+00 0.  1.
         22    1    1    2    0    0 -0.85384742568E+02  0.18954344263E+02  0.36957448852E+03  0.37978299592E+03  0.00000000000E+00 0. -1.
<mgrwt>
<rscale>  0 0.21517893E+03</rscale>
<asrwt>0</asrwt>
<pdfrwt beam="1">  1        2 0.20689059E-02 0.21517893E+03</pdfrwt>
<pdfrwt beam="2">  1       -2 0.13242563E+00 0.21517893E+03</pdfrwt>
<totfact> 0.22454593E+03</totfact>
</mgrwt>
</event>
<event>
 6    1  0.2238133E-007  0.3983298E+04  0.7818608E-02  0.8007924E-01
          2   -1    0    0  501    0  0.00000000000E+00  0.00000000000E+00  0.29074809240E+04  0.29074809240E+04  0.00000000000E+00 0. -1.
         -2   -1    0    0    0  501 -0.00000000000E+00 -0.00000000000E+00 -0.13642962878E+04  0.13642962878E+04  0.00000000000E+00 0.  1.
         23    2    1    2    0    0  0.16178494636E+04  0.69360541290E+03  0.17687964095E+04  0.24971149825E+04  0.91744982673E+02 0.  0.
         11    1    3    3    0    0  0.73590037377E+03  0.34963291353E+03  0.86541475345E+03  0.11885853902E+04  0.00000000000E+00 0.  1.
        -11    1    3    3    0    0  0.88194908988E+03  0.34397249937E+03  0.90338165602E+03  0.13085295923E+04  0.00000000000E+00 0. -1.
         22    1    1    2    0    0 -0.16178494636E+04 -0.69360541290E+03 -0.22561177331E+03  0.17746622293E+04  0.00000000000E+00 0.  1.
<mgrwt>
<rscale>  0 0.39832978E+04</rscale>
<asrwt>0</asrwt>
<pdfrwt beam="1">  1        2 0.44730476E+00 0.39832978E+04</pdfrwt>
<pdfrwt beam="2">  1       -2 0.20989174E+00 0.39832978E+04</pdfrwt>
<totfact> 0.18002205E-01</totfact>
</mgrwt>
</event>
<event>
 6    1  0.2238133E-007  0.2465097E+04  0.7818608E-02  0.8415527E-01
         -2   -1    0    0    0  501 -0.00000000000E+00  0.00000000000E+00  0.51364668223E+03  0.51364668223E+03  0.00000000000E+00 0.  1.
          2   -1    0    0  501    0  0.00000000000E+00 -0.00000000000E+00 -0.29576275119E+04  0.29576275119E+04  0.00000000000E+00 0. -1.
         23    2    1    2    0    0  0.89340563894E+03 -0.26384806934E+03 -0.23570027836E+04  0.25356703144E+04  0.79827199756E+02 0.  0.
         11    1    3    3    0    0  0.74170324948E+03 -0.23364540306E+03 -0.20326615621E+04  0.21763333639E+04  0.00000000000E+00 0. -1.
        -11    1    3    3    0    0  0.15170238946E+03 -0.30202666279E+02 -0.32434122147E+03  0.35933695045E+03  0.00000000000E+00 0.  1.
         22    1    1    2    0    0 -0.89340563894E+03  0.26384806934E+03 -0.86978046077E+02  0.93560387979E+03  0.00000000000E+00 0. -1.
<mgrwt>
<rscale>  0 0.24650968E+04</rscale>
<asrwt>0</asrwt>
<pdfrwt beam="1">  1        2 0.45501961E+00 0.24650968E+04</pdfrwt>
<pdfrwt beam="2">  1       -2 0.79022567E-01 0.24650968E+04</pdfrwt>
<totfact> 0.23526445E+00</totfact>
</mgrwt>
</event>
<event>
 6    1  0.2238133E-007  0.1315892E+04  0.7818608E-02  0.9017057E-01
          2   -1    0    0  501    0  0.00000000000E+00  0.00000000000E+00  0.28931165677E+04  0.28931165677E+04  0.00000000000E+00 0. -1.
         -2   -1    0    0    0  501 -0.00000000000E+00 -0.00000000000E+00 -0.14962860028E+03  0.14962860028E+03  0.00000000000E+00 0.  1.
         23    2    1    2    0    0 -0.20149932560E+02 -0.16144004297E+03  0.28448457267E+04  0.28510623503E+04  0.94553737584E+02 0.  0.
         13    1    3    3    0    0  0.34212933117E+02 -0.31547344647E+02  0.82840753932E+03  0.82971369215E+03  0.00000000000E+00 0. -1.
        -13    1    3    3    0    0 -0.54362865677E+02 -0.12989269832E+03  0.20164381874E+04  0.20213486581E+04  0.00000000000E+00 0.  1.
         22    1    1    2    0    0  0.20149932560E+02  0.16144004297E+03 -0.10135775924E+03  0.19168281773E+03  0.00000000000E+00 0.  1.
<mgrwt>
<rscale>  0 0.13158921E+04</rscale>
<asrwt>0</asrwt>
<pdfrwt beam="1">  1        2 0.44509481E+00 0.13158921E+04</pdfrwt>
<pdfrwt beam="2">  1       -2 0.23019787E-01 0.13158921E+04</pdfrwt>
<totfact> 0.33386331E+01</totfact>
</mgrwt>
</event>
<event>
 6    1  0.2238133E-007  0.3276203E+04  0.7818608E-02  0.8168977E-01
          2   -1    0    0  501    0  0.00000000000E+00  0.00000000000E+00  0.30417250998E+04  0.30417250998E+04  0.00000000000E+00 0. -1.
         -2   -1    0    0    0  501 -0.00000000000E+00 -0.00000000000E+00 -0.88218878018E+03  0.88218878018E+03  0.00000000000E+00 0.  1.
         23    2    1    2    0    0  0.13416289949E+04 -0.92255653156E+03  0.87869068760E+03  0.18522854271E+04  0.88233014851E+02 0.  0.
         13    1    3    3    0    0  0.11008877370E+04 -0.74140725874E+03  0.75153823420E+03  0.15252698942E+04  0.00000000000E+00 0. -1.
        -13    1    3    3    0    0  0.24074125792E+03 -0.18114927282E+03  0.12715245340E+03  0.32701553283E+03  0.00000000000E+00 0.  1.
         22    1    1    2    0    0 -0.13416289949E+04  0.92255653156E+03  0.12808456321E+04  0.20716284530E+04  0.00000000000E+00 0.  1.
<mgrwt>
<rscale>  0 0.32762025E+04</rscale>
<asrwt>0</asrwt>
<pdfrwt beam="1">  1        2 0.46795770E+00 0.32762025E+04</pdfrwt>
<pdfrwt beam="2">  1       -2 0.13572135E+00 0.32762025E+04</pdfrwt>
<totfact> 0.53332512E-01</totfact>
</mgrwt>
</event>
<event>
 6    1  0.2238133E-007  0.4860560E+04  0.7818608E-02  0.7850385E-01
         -2   -1    0    0    0  501 -0.00000000000E+00  0.00000000000E+00  0.22856299895E+04  0.22856299895E+04  0.00000000000E+00 0.  1.
          2   -1    0    0  501    0  0.00000000000E+00 -0.00000000000E+00 -0.25840845258E+04  0.25840845258E+04  0.00000000000E+00 0. -1.
         23    2    1    2    0    0 -0.21102322061E+04  0.11829709236E+04 -0.37243259097E+03  0.24493895531E+04  0.91120680260E+02 0.  0.
         13    1    3    3    0    0 -0.11786219173E+04  0.61900295990E+03 -0.23219571984E+03  0.13513804574E+04  0.00000000000E+00 0.  1.
        -13    1    3    3    0    0 -0.93161028880E+03  0.56396796374E+03 -0.14023687113E+03  0.10980090957E+04  0.00000000000E+00 0. -1.
         22    1    1    2    0    0  0.21102322061E+04 -0.11829709236E+04  0.73978054676E+02  0.24203249621E+04  0.00000000000E+00 0. -1.
<mgrwt>
<rscale>  0 0.48605601E+04</rscale>
<asrwt>0</asrwt>
<pdfrwt beam="1">  1        2 0.39755147E+00 0.48605601E+04</pdfrwt>
<pdfrwt beam="2">  1       -2 0.35163538E+00 0.48605601E+04</pdfrwt>
<totfact> 0.34776450E-02</totfact>
</mgrwt>
</event>
<event>
 6    1  0.2238133E-007  0.5723382E+03  0.7818608E-02  0.9964518E-01
         -2   -1    0    0    0  501 -0.00000000000E+00  0.00000000000E+00  0.81291102893E+03  0.81291102893E+03  0.00000000000E+00 0.  1.
          2   -1    0    0  501    0  0.00000000000E+00 -0.00000000000E+00 -0.10074011761E+03  0.10074011761E+03  0.00000000000E+00 0. -1.
         23    2    1    2    0    0  0.22679420785E+03 -0.15138032886E+03  0.45881378862E+03  0.54143958263E+03  0.91077507251E+02 0.  0.
         11    1    3    3    0    0  0.54268384979E+02 -0.83947970644E+02  0.19444029878E+03  0.21863062268E+03  0.00000000000E+00 0.  1.
        -11    1    3    3    0    0  0.17252582288E+03 -0.67432358217E+02  0.26437348984E+03  0.32280895995E+03  0.00000000000E+00 0. -1.
         22    1    1    2    0    0 -0.22679420785E+03  0.15138032886E+03  0.25335712270E+03  0.37221156390E+03  0.00000000000E+00 0.  1.
<mgrwt>
<rscale>  0 0.57233820E+03</rscale>
<asrwt>0</asrwt>
<pdfrwt beam="1">  1        2 0.15498480E-01 0.57233820E+03</pdfrwt>
<pdfrwt beam="2">  1       -2 0.12506323E+00 0.57233820E+03</pdfrwt>
<totfact> 0.18719730E+02</totfact>
</mgrwt>
</event>
<event>
 6    1  0.2238133E-007  0.3432741E+04  0.7818608E-02  0.8129917E-01
         -2   -1    0    0    0  501 -0.00000000000E+00  0.00000000000E+00  0.11423622671E+04  0.11423622671E+04  0.00000000000E+00 0.  1.
          2   -1    0    0  501    0  0.00000000000E+00 -0.00000000000E+00 -0.25788030784E+04  0.25788030784E+04  0.00000000000E+00 0. -1.
         23    2    1    2    0    0  0.27903749266E+03  0.45965259046E+03  0.10467266110E+04  0.11804444097E+04  0.93112728325E+02 0.  0.
         11    1    3    3    0    0  0.59381740219E+02  0.51742390903E+02  0.10859075159E+03  0.13414699929E+03  0.00000000000E+00 0.  1.
        -11    1    3    3    0    0  0.21965575244E+03  0.40791019955E+03  0.93813585938E+03  0.10462974105E+04  0.00000000000E+00 0. -1.
         22    1    1    2    0    0 -0.27903749266E+03 -0.45965259046E+03 -0.24831674223E+04  0.25407209357E+04  0.00000000000E+00 0. -1.
<mgrwt>
<rscale>  0 0.34327408E+04</rscale>
<asrwt>0</asrwt>
<pdfrwt beam="1">  1        2 0.39673893E+00 0.34327408E+04</pdfrwt>
<pdfrwt beam="2">  1       -2 0.17574805E+00 0.34327408E+04</pdfrwt>
<totfact> 0.50217455E-01</totfact>
</mgrwt>
</event>
<event>
 6    1  0.2238133E-007  0.2810555E+04  0.7818608E-02  0.8299999E-01
          2   -1    0    0  501    0  0.00000000000E+00  0.00000000000E+00  0.25679248159E+04  0.25679248159E+04  0.00000000000E+00 0. -1.
         -2   -1    0    0    0  501 -0.00000000000E+00 -0.00000000000E+00 -0.76902769975E+03  0.76902769975E+03  0.00000000000E+00 0.  1.
         23    2    1    2    0    0  0.25456545330E+03 -0.13434907396E+04  0.12779403793E+04  0.18736798619E+04  0.88168443270E+02 0.  0.
         13    1    3    3    0    0  0.17479868602E+03 -0.11047346506E+04  0.10478431517E+04  0.15326344964E+04  0.00000000000E+00 0.  1.
        -13    1    3    3    0    0  0.79766767288E+02 -0.23875608904E+03  0.23009722756E+03  0.34104536553E+03  0.00000000000E+00 0. -1.
         22    1    1    2    0    0 -0.25456545330E+03  0.13434907396E+04  0.52095673687E+03  0.14632726537E+04  0.00000000000E+00 0.  1.
<mgrwt>
<rscale>  0 0.28105553E+04</rscale>
<asrwt>0</asrwt>
<pdfrwt beam="1">  1        2 0.39506535E+00 0.28105553E+04</pdfrwt>
<pdfrwt beam="2">  1       -2 0.11831196E+00 0.28105553E+04</pdfrwt>
<totfact> 0.15192359E+00</totfact>
</mgrwt>
</event>
<event>
 6    1  0.2238133E-007  0.5559297E+04  0.7818608E-02  0.7747582E-01
         -2   -1    0    0    0  501 -0.00000000000E+00  0.00000000000E+00  0.25686261107E+04  0.25686261107E+04  0.00000000000E+00 0.  1.
          2   -1    0    0  501    0  0.00000000000E+00 -0.00000000000E+00 -0.30080068370E+04  0.30080068370E+04  0.00000000000E+00 0. -1.
         23    2    1    2    0    0  0.20347190768E+04 -0.35230447578E+03 -0.20851803322E+04  0.29360162568E+04  0.89522497005E+02 0.  0.
         13    1    3    3    0    0  0.89057588384E+02  0.15101207213E+01 -0.10018803807E+03  0.13405662045E+03  0.00000000000E+00 0. -1.
        -13    1    3    3    0    0  0.19456614884E+04 -0.35381459650E+03 -0.19849922941E+04  0.28019596364E+04  0.00000000000E+00 0.  1.
         22    1    1    2    0    0 -0.20347190768E+04  0.35230447578E+03  0.16457996059E+04  0.26406166908E+04  0.00000000000E+00 0.  1.
<mgrwt>
<rscale>  0 0.55592967E+04</rscale>
<asrwt>0</asrwt>
<pdfrwt beam="1">  1        2 0.46277028E+00 0.55592967E+04</pdfrwt>
<pdfrwt beam="2">  1       -2 0.39517325E+00 0.55592967E+04</pdfrwt>
<totfact> 0.95725597E-03</totfact>
</mgrwt>
</event>
<event>
 6    1  0.2238133E-007  0.3128176E+04  0.7818608E-02  0.8208047E-01
          2   -1    0    0  501    0  0.00000000000E+00  0.00000000000E+00  0.30931127758E+04  0.30931127758E+04  0.00000000000E+00 0. -1.
         -2   -1    0    0    0  501 -0.00000000000E+00 -0.00000000000E+00 -0.79090938662E+03  0.79090938662E+03  0.00000000000E+00 0.  1.
         23    2    1    2    0    0 -0.17510934325E+03  0.51520431896E+03  0.29709635548E+04  0.30218511054E+04  0.94132282938E+02 0.  0.
         13    1    3    3    0    0 -0.57785707474E+02  0.16906900297E+03  0.74797188428E+03  0.76901590063E+03  0.00000000000E+00 0.  1.
        -13    1    3    3    0    0 -0.11732363578E+03  0.34613531599E+03  0.22229916705E+04  0.22528352047E+04  0.00000000000E+00 0. -1.
         22    1    1    2    0    0  0.17510934325E+03 -0.51520431896E+03 -0.66876016566E+03  0.86217105701E+03  0.00000000000E+00 0.  1.
<mgrwt>
<rscale>  0 0.31281764E+04</rscale>
<asrwt>0</asrwt>
<pdfrwt beam="1">  1        2 0.47586350E+00 0.31281764E+04</pdfrwt>
<pdfrwt beam="2">  1       -2 0.12167837E+00 0.31281764E+04</pdfrwt>
<totfact> 0.65998776E-01</totfact>
</mgrwt>
</event>
<event>
 6    1  0.2238133E-007  0.1380817E+04  0.7818608E-02  0.8967822E-01
         -2   -1    0    0    0  501 -0.00000000000E+00  0.00000000000E+00  0.18323645226E+03  0.18323645226E+03  0.00000000000E+00 0.  1.
          2   -1    0    0  501    0  0.00000000000E+00 -0.00000000000E+00 -0.26013598271E+04  0.26013598271E+04  0.00000000000E+00 0. -1.
         23    2    1    2    0    0 -0.26882933851E+03  0.60700858184E+03 -0.15739632422E+04  0.17106619419E+04  0.90969005405E+02 0.  0.
         11    1    3    3    0    0 -0.91918164983E+02  0.17300250023E+03 -0.56909201798E+03  0.60186754279E+03  0.00000000000E+00 0. -1.
        -11    1    3    3    0    0 -0.17691117353E+03  0.43400608160E+03 -0.10048712243E+04  0.11087943991E+04  0.00000000000E+00 0.  1.
         22    1    1    2    0    0  0.26882933851E+03 -0.60700858184E+03 -0.84416013264E+03  0.10739343375E+04  0.00000000000E+00 0. -1.
<mgrwt>
<rscale>  0 0.13808171E+04</rscale>
<asrwt>0</asrwt>
<pdfrwt beam="1">  1        2 0.40020919E+00 0.13808171E+04</pdfrwt>
<pdfrwt beam="2">  1       -2 0.28190224E-01 0.13808171E+04</pdfrwt>
<totfact> 0.34247292E+01</totfact>
</mgrwt>
</event>
<event>
 6    1  0.2238133E-007  0.9933991E+03  0.7818608E-02  0.9315814E-01
         -2   -1    0    0    0  501 -0.00000000000E+00  0.00000000000E+00  0.17043158807E+03  0.17043158807E+03  0.00000000000E+00 0.  1.
          2   -1    0    0  501    0  0.00000000000E+00 -0.00000000000E+00 -0.14475628320E+04  0.14475628320E+04  0.00000000000E+00 0. -1.
         23    2    1    2    0    0  0.74484886989E+02 -0.14552823990E+03 -0.14006091930E+04  0.14131206275E+04  0.92072414289E+02 0.  0.
         11    1    3    3    0    0  0.30085709351E+01 -0.94105476036E+02 -0.89094816805E+03  0.89590933150E+03  0.00000000000E+00 0.  1.
        -11    1    3    3    0    0  0.71476316054E+02 -0.51422763866E+02 -0.50966102493E+03  0.51721129602E+03  0.00000000000E+00 0. -1.
         22    1    1    2    0    0 -0.74484886989E+02  0.14552823990E+03  0.12347794901E+03  0.20487379259E+03  0.00000000000E+00 0.  1.
<mgrwt>
<rscale>  0 0.99339908E+03</rscale>
<asrwt>0</asrwt>
<pdfrwt beam="1">  1        2 0.22270198E+00 0.99339908E+03</pdfrwt>
<pdfrwt beam="2">  1       -2 0.26220244E-01 0.99339908E+03</pdfrwt>
<totfact> 0.17837539E+02</totfact>
</mgrwt>
</event>
<event>
 6    1  0.2238133E-007  0.3088778E+04  0.7818608E-02  0.8218824E-01
         -2   -1    0    0    0  501 -0.00000000000E+00  0.00000000000E+00  0.73479156602E+03  0.73479156602E+03  0.00000000000E+00 0.  1.
          2   -1    0    0  501    0  0.00000000000E+00 -0.00000000000E+00 -0.32460053244E+04  0.32460053244E+04  0.00000000000E+00 0. -1.
         23    2    1    2    0    0 -0.87292132299E+03  0.11462679326E+04 -0.19686837236E+04  0.24412318063E+04  0.89304640822E+02 0.  0.
         11    1    3    3    0    0 -0.75956981322E+03  0.10139767045E+04 -0.16818608911E+04  0.21056474338E+04  0.00000000000E+00 0. -1.
        -11    1    3    3    0    0 -0.11335150977E+03  0.13229122812E+03 -0.28682283252E+03  0.33558437249E+03  0.00000000000E+00 0.  1.
         22    1    1    2    0    0  0.87292132299E+03 -0.11462679326E+04 -0.54253003470E+03  0.15395650841E+04  0.00000000000E+00 0. -1.
<mgrwt>
<rscale>  0 0.30887780E+04</rscale>
<asrwt>0</asrwt>
<pdfrwt beam="1">  1        2 0.49938543E+00 0.30887780E+04</pdfrwt>
<pdfrwt beam="2">  1       -2 0.11304486E+00 0.30887780E+04</pdfrwt>
<totfact> 0.63148902E-01</totfact>
</mgrwt>
</event>
<event>
 6    1  0.2238133E-007  0.2698193E+04  0.7818608E-02  0.8335591E-01
          2   -1    0    0  501    0  0.00000000000E+00  0.00000000000E+00  0.26405876975E+04  0.26405876975E+04  0.00000000000E+00 0. -1.
         -2   -1    0    0    0  501 -0.00000000000E+00 -0.00000000000E+00 -0.68926378630E+03  0.68926378630E+03  0.00000000000E+00 0.  1.
         23    2    1    2    0    0 -0.89756592326E+03 -0.69590153170E+03  0.18713375806E+04  0.21912991830E+04  0.99921171433E+02 0.  0.
         13    1    3    3    0    0 -0.48556993799E+03 -0.43298793852E+03  0.10275975176E+04  0.12162291633E+04  0.00000000000E+00 0.  1.
        -13    1    3    3    0    0 -0.41199598527E+03 -0.26291359318E+03  0.84374006302E+03  0.97507001969E+03  0.00000000000E+00 0. -1.
         22    1    1    2    0    0  0.89756592326E+03  0.69590153170E+03  0.79986330539E+02  0.11385523007E+04  0.00000000000E+00 0.  1.
<mgrwt>
<rscale>  0 0.26981931E+04</rscale>
<asrwt>0</asrwt>
<pdfrwt beam="1">  1        2 0.40624426E+00 0.26981931E+04</pdfrwt>
<pdfrwt beam="2">  1       -2 0.10604058E+00 0.26981931E+04</pdfrwt>
<totfact> 0.18135718E+00</totfact>
</mgrwt>
</event>
<event>
 6    1  0.2238133E-007  0.1153350E+04  0.7818608E-02  0.9154699E-01
          2   -1    0    0  501    0  0.00000000000E+00  0.00000000000E+00  0.66475122573E+03  0.66475122573E+03  0.00000000000E+00 0. -1.
         -2   -1    0    0    0  501 -0.00000000000E+00 -0.00000000000E+00 -0.50026847475E+03  0.50026847475E+03  0.00000000000E+00 0.  1.
         23    2    1    2    0    0 -0.18796832010E+03 -0.22601131357E+03  0.57943972278E+03  0.65648996520E+03  0.93890781445E+02 0.  0.
         11    1    3    3    0    0 -0.17390023289E+03 -0.18348893597E+03  0.54220879036E+03  0.59824731756E+03  0.00000000000E+00 0. -1.
        -11    1    3    3    0    0 -0.14068087215E+02 -0.42522377601E+02  0.37230932421E+02  0.58242647636E+02  0.00000000000E+00 0.  1.
         22    1    1    2    0    0  0.18796832010E+03  0.22601131357E+03 -0.41495697181E+03  0.50852973529E+03  0.00000000000E+00 0.  1.
<mgrwt>
<rscale>  0 0.11533500E+04</rscale>
<asrwt>0</asrwt>
<pdfrwt beam="1">  1        2 0.10226942E+00 0.11533500E+04</pdfrwt>
<pdfrwt beam="2">  1       -2 0.76964380E-01 0.11533500E+04</pdfrwt>
<totfact> 0.65271946E+01</totfact>
</mgrwt>
</event>
<event>
 6    1  0.2238133E-007  0.5013033E+04  0.7818608E-02  0.7826500E-01
          2   -1    0    0  501    0  0.00000000000E+00  0.00000000000E+00  0.32419892515E+04  0.32419892515E+04  0.00000000000E+00 0. -1.
         -2   -1    0    0    0  501 -0.00000000000E+00 -0.00000000000E+00 -0.19378922906E+04  0.19378922906E+04  0.00000000000E+00 0.  1.
         23    2    1    2    0    0  0.22388114201E+04  0.10360830096E+04  0.19943094607E+03  0.24769143611E+04  0.97915639999E+02 0.  0.
         11    1    3    3    0    0  0.44121470859E+03  0.24102206080E+03  0.61617973915E+02  0.50651636457E+03  0.00000000000E+00 0. -1.
        -11    1    3    3    0    0  0.17975967115E+04  0.79506094876E+03  0.13781297216E+03  0.19703979965E+04  0.00000000000E+00 0.  1.
         22    1    1    2    0    0 -0.22388114201E+04 -0.10360830096E+04  0.11046660148E+04  0.27029671810E+04  0.00000000000E+00 0.  1.
<mgrwt>
<rscale>  0 0.50130334E+04</rscale>
<asrwt>0</asrwt>
<pdfrwt beam="1">  1        2 0.49876758E+00 0.50130334E+04</pdfrwt>
<pdfrwt beam="2">  1       -2 0.29813728E+00 0.50130334E+04</pdfrwt>
<totfact> 0.28849961E-02</totfact>
</mgrwt>
</event>
<event>
 6    1  0.2238133E-007  0.1193236E+04  0.7818608E-02  0.9118798E-01
         -2   -1    0    0    0  501 -0.00000000000E+00  0.00000000000E+00  0.46905568779E+03  0.46905568779E+03  0.00000000000E+00 0.  1.
          2   -1    0    0  501    0  0.00000000000E+00 -0.00000000000E+00 -0.75887164525E+03  0.75887164525E+03  0.00000000000E+00 0. -1.
         23    2    1    2    0    0 -0.47413230147E+03  0.12968644547E+03 -0.48734419954E+03  0.69817510806E+03  0.91236501759E+02 0.  0.
         13    1    3    3    0    0 -0.37399316619E+03  0.13075996409E+03 -0.42065012597E+03  0.57785429396E+03  0.00000000000E+00 0.  1.
        -13    1    3    3    0    0 -0.10013913528E+03 -0.10735186270E+01 -0.66694073574E+02  0.12032081411E+03  0.00000000000E+00 0. -1.
         22    1    1    2    0    0  0.47413230147E+03 -0.12968644547E+03  0.19752824208E+03  0.52975222497E+03  0.00000000000E+00 0. -1.
<mgrwt>
<rscale>  0 0.11932360E+04</rscale>
<asrwt>0</asrwt>
<pdfrwt beam="1">  1        2 0.11674948E+00 0.11932360E+04</pdfrwt>
<pdfrwt beam="2">  1       -2 0.72162414E-01 0.11932360E+04</pdfrwt>
<totfact> 0.63424801E+01</totfact>
</mgrwt>
</event>
<event>
 6    1  0.2238133E-007  0.1137561E+04  0.7818608E-02  0.9169336E-01
          2   -1    0    0  501    0  0.00000000000E+00  0.00000000000E+00  0.49196547689E+03  0.49196547689E+03  0.00000000000E+00 0. -1.
         -2   -1    0    0    0  501 -0.00000000000E+00 -0.00000000000E+00 -0.65758927730E+03  0.65758927730E+03  0.00000000000E+00 0.  1.
         23    2    1    2    0    0  0.29676066414E+03  0.39783486062E+03  0.18990581567E+03  0.53902975386E+03  0.90273964235E+02 0.  0.
         13    1    3    3    0    0  0.21152602688E+03  0.29293480726E+03  0.94157507722E+02  0.37338947175E+03  0.00000000000E+00 0.  1.
        -13    1    3    3    0    0  0.85234637253E+02  0.10490005336E+03  0.95748307948E+02  0.16564028211E+03  0.00000000000E+00 0. -1.
         22    1    1    2    0    0 -0.29676066414E+03 -0.39783486062E+03 -0.35552961608E+03  0.61052500032E+03  0.00000000000E+00 0.  1.
<mgrwt>
<rscale>  0 0.11375609E+04</rscale>
<asrwt>0</asrwt>
<pdfrwt beam="1">  1        2 0.75686997E-01 0.11375609E+04</pdfrwt>
<pdfrwt beam="2">  1       -2 0.10116758E+00 0.11375609E+04</pdfrwt>
<totfact> 0.49958754E+01</totfact>
</mgrwt>
</event>
<event>
 6    1  0.2238133E-007  0.4342990E+04  0.7818608E-02  0.7938716E-01
          2   -1    0    0  501    0  0.00000000000E+00  0.00000000000E+00  0.27389061693E+04  0.27389061693E+04  0.00000000000E+00 0. -1.
         -2   -1    0    0    0  501 -0.00000000000E+00 -0.00000000000E+00 -0.17216327571E+04  0.17216327571E+04  0.00000000000E+00 0.  1.
         23    2    1    2    0    0  0.86337927385E+03  0.12982011385E+04  0.20599603391E+04  0.25849200967E+04  0.87323201177E+02 0.  0.
         13    1    3    3    0    0  0.75590850897E+03  0.11402150614E+04  0.18524671866E+04  0.23028510021E+04  0.00000000000E+00 0. -1.
        -13    1    3    3    0    0  0.10747076488E+03  0.15798607706E+03  0.20749315246E+03  0.28206909467E+03  0.00000000000E+00 0.  1.
         22    1    1    2    0    0 -0.86337927385E+03 -0.12982011385E+04 -0.10426869269E+04  0.18756188296E+04  0.00000000000E+00 0.  1.
<mgrwt>
<rscale>  0 0.43429900E+04</rscale>
<asrwt>0</asrwt>
<pdfrwt beam="1">  1        2 0.42137018E+00 0.43429900E+04</pdfrwt>
<pdfrwt beam="2">  1       -2 0.26486658E+00 0.43429900E+04</pdfrwt>
<totfact> 0.10060906E-01</totfact>
</mgrwt>
</event>
<event>
 6    1  0.2238133E-007  0.3067095E+04  0.7818608E-02  0.8224827E-01
          2   -1    0    0  501    0  0.00000000000E+00  0.00000000000E+00  0.92566063612E+03  0.92566063612E+03  0.00000000000E+00 0. -1.
         -2   -1    0    0    0  501 -0.00000000000E+00 -0.00000000000E+00 -0.25406370953E+04  0.25406370953E+04  0.00000000000E+00 0.  1.
         23    2    1    2    0    0 -0.31309372041E+03  0.13571555116E+04 -0.86515708048E+02  0.13984265971E+04  0.90626814456E+02 0.  0.
         11    1    3    3    0    0 -0.21556457099E+03  0.10889120832E+04 -0.57499829667E+02  0.11115322036E+04  0.00000000000E+00 0. -1.
        -11    1    3    3    0    0 -0.97529149420E+02  0.26824342833E+03 -0.29015878380E+02  0.28689439351E+03  0.00000000000E+00 0.  1.
         22    1    1    2    0    0  0.31309372041E+03 -0.13571555116E+04 -0.15284607511E+04  0.20678711343E+04  0.00000000000E+00 0.  1.
<mgrwt>
<rscale>  0 0.30670949E+04</rscale>
<asrwt>0</asrwt>
<pdfrwt beam="1">  1        2 0.14240933E+00 0.30670949E+04</pdfrwt>
<pdfrwt beam="2">  1       -2 0.39086724E+00 0.30670949E+04</pdfrwt>
<totfact> 0.20409800E-01</totfact>
</mgrwt>
</event>
<event>
 6    1  0.2238133E-007  0.1731464E+04  0.7818608E-02  0.8743620E-01
         -1   -1    0    0    0  501 -0.00000000000E+00  0.00000000000E+00  0.53278978473E+03  0.53278978473E+03  0.00000000000E+00 0.  1.
          1   -1    0    0  501    0  0.00000000000E+00 -0.00000000000E+00 -0.14067309276E+04  0.14067309276E+04  0.00000000000E+00 0. -1.
         23    2    1    2    0    0 -0.74108295646E+03 -0.42524430738E+03 -0.57591420874E+03  0.10346136879E+04  0.93336156302E+02 0.  0.
         11    1    3    3    0    0 -0.53143363003E+03 -0.25825841143E+03 -0.37787381946E+03  0.70136134313E+03  0.00000000000E+00 0.  1.
        -11    1    3    3    0    0 -0.20964932643E+03 -0.16698589594E+03 -0.19804038928E+03  0.33325234479E+03  0.00000000000E+00 0. -1.
         22    1    1    2    0    0  0.74108295646E+03  0.42524430738E+03 -0.29802693409E+03  0.90490702437E+03  0.00000000000E+00 0.  1.
<mgrwt>
<rscale>  0 0.17314640E+04</rscale>
<asrwt>0</asrwt>
<pdfrwt beam="1">  1        1 0.21642014E+00 0.17314640E+04</pdfrwt>
<pdfrwt beam="2">  1       -1 0.81967660E-01 0.17314640E+04</pdfrwt>
<totfact> 0.10680944E+01</totfact>
</mgrwt>
</event>
<event>
 6    1  0.2238133E-007  0.5156228E+04  0.7818608E-02  0.7804849E-01
          2   -1    0    0  501    0  0.00000000000E+00  0.00000000000E+00  0.32344325646E+04  0.32344325646E+04  0.00000000000E+00 0. -1.
         -2   -1    0    0    0  501 -0.00000000000E+00 -0.00000000000E+00 -0.20549733224E+04  0.20549733224E+04  0.00000000000E+00 0.  1.
         23    2    1    2    0    0 -0.20998878360E+03 -0.36748060358E+03  0.31977631487E+04  0.32272012556E+04  0.10000752908E+03 0.  0.
         13    1    3    3    0    0 -0.82663638262E+02 -0.16218878181E+03  0.17475497209E+04  0.17570055507E+04  0.00000000000E+00 0. -1.
        -13    1    3    3    0    0 -0.12732514534E+03 -0.20529182177E+03  0.14502134278E+04  0.14701957049E+04  0.00000000000E+00 0.  1.
         22    1    1    2    0    0  0.20998878360E+03  0.36748060358E+03 -0.20183039065E+04  0.20622046315E+04  0.00000000000E+00 0.  1.
<mgrwt>
<rscale>  0 0.51562283E+04</rscale>
<asrwt>0</asrwt>
<pdfrwt beam="1">  1        2 0.49760501E+00 0.51562283E+04</pdfrwt>
<pdfrwt beam="2">  1       -2 0.31614974E+00 0.51562283E+04</pdfrwt>
<totfact> 0.22365015E-02</totfact>
</mgrwt>
</event>
<event>
 6    1  0.2238133E-007  0.2251836E+04  0.7818608E-02  0.8497157E-01
          2   -1    0    0  501    0  0.00000000000E+00  0.00000000000E+00  0.16398196859E+04  0.16398196859E+04  0.00000000000E+00 0. -1.
         -2   -1    0    0    0  501 -0.00000000000E+00 -0.00000000000E+00 -0.77306748010E+03  0.77306748010E+03  0.00000000000E+00 0.  1.
         23    2    1    2    0    0  0.10210279723E+04 -0.43457128067E+03  0.24170483395E+03  0.11392959697E+04  0.90684957433E+02 0.  0.
         13    1    3    3    0    0  0.85946754778E+03 -0.34232357086E+03  0.22761589553E+03  0.95272183178E+03  0.00000000000E+00 0. -1.
        -13    1    3    3    0    0  0.16156042455E+03 -0.92247709805E+02  0.14088938414E+02  0.18657413789E+03  0.00000000000E+00 0.  1.
         22    1    1    2    0    0 -0.10210279723E+04  0.43457128067E+03  0.62504737181E+03  0.12735911963E+04  0.00000000000E+00 0. -1.
<mgrwt>
<rscale>  0 0.22518359E+04</rscale>
<asrwt>0</asrwt>
<pdfrwt beam="1">  1        2 0.25227995E+00 0.22518359E+04</pdfrwt>
<pdfrwt beam="2">  1       -2 0.11893346E+00 0.22518359E+04</pdfrwt>
<totfact> 0.52359906E+00</totfact>
</mgrwt>
</event>
<event>
 6    1  0.2325048E-007  0.4186960E+04  0.7818608E-02  0.7967857E-01
         -2   -1    0    0    0  501 -0.00000000000E+00  0.00000000000E+00  0.18596881404E+04  0.18596881404E+04  0.00000000000E+00 0.  1.
          2   -1    0    0  501    0  0.00000000000E+00 -0.00000000000E+00 -0.23566630635E+04  0.23566630635E+04  0.00000000000E+00 0. -1.
         23    2    1    2    0    0  0.69501190605E+03 -0.14384452135E+04  0.11124963702E+04  0.19486289930E+04  0.85677282687E+02 0.  0.
         11    1    3    3    0    0  0.28690976214E+03 -0.67468340695E+03  0.53954366537E+03  0.91028692074E+03  0.00000000000E+00 0.  1.
        -11    1    3    3    0    0  0.40810214391E+03 -0.76376180656E+03  0.57295270480E+03  0.10383420722E+04  0.00000000000E+00 0. -1.
         22    1    1    2    0    0 -0.69501190605E+03  0.14384452135E+04 -0.16094712934E+04  0.22677222109E+04  0.00000000000E+00 0. -1.
<mgrwt>
<rscale>  0 0.41869599E+04</rscale>
<asrwt>0</asrwt>
<pdfrwt beam="1">  1        2 0.36256355E+00 0.41869599E+04</pdfrwt>
<pdfrwt beam="2">  1       -2 0.28610587E+00 0.41869599E+04</pdfrwt>
<totfact> 0.12642186E-01</totfact>
</mgrwt>
</event>
<event>
 6    1  0.2238133E-007  0.2113015E+04  0.7818608E-02  0.8555532E-01
          2   -1    0    0  501    0  0.00000000000E+00  0.00000000000E+00  0.22318719794E+04  0.22318719794E+04  0.00000000000E+00 0. -1.
         -2   -1    0    0    0  501 -0.00000000000E+00 -0.00000000000E+00 -0.50012210956E+03  0.50012210956E+03  0.00000000000E+00 0.  1.
         23    2    1    2    0    0 -0.67675951992E+03  0.74743078383E+03  0.12672675893E+04  0.16218589560E+04  0.88335191464E+02 0.  0.
         13    1    3    3    0    0 -0.43255784296E+03  0.53790825554E+03  0.85200326526E+03  0.10965222948E+04  0.00000000000E+00 0. -1.
        -13    1    3    3    0    0 -0.24420167696E+03  0.20952252828E+03  0.41526432402E+03  0.52533666129E+03  0.00000000000E+00 0.  1.
         22    1    1    2    0    0  0.67675951992E+03 -0.74743078383E+03  0.46448228058E+03  0.11101351329E+04  0.00000000000E+00 0.  1.
<mgrwt>
<rscale>  0 0.21130154E+04</rscale>
<asrwt>0</asrwt>
<pdfrwt beam="1">  1        2 0.34336491E+00 0.21130154E+04</pdfrwt>
<pdfrwt beam="2">  1       -2 0.76941864E-01 0.21130154E+04</pdfrwt>
<totfact> 0.68799779E+00</totfact>
</mgrwt>
</event>
<event>
 6    1  0.2238133E-007  0.1359374E+04  0.7818608E-02  0.8983762E-01
          2   -1    0    0  501    0  0.00000000000E+00  0.00000000000E+00  0.87015649316E+03  0.87015649316E+03  0.00000000000E+00 0. -1.
         -2   -1    0    0    0  501 -0.00000000000E+00 -0.00000000000E+00 -0.53090953088E+03  0.53090953088E+03  0.00000000000E+00 0.  1.
         23    2    1    2    0    0 -0.32521487132E+03  0.55901219970E+03  0.37552482515E+03  0.75331959582E+03  0.90621008632E+02 0.  0.
         13    1    3    3    0    0 -0.26180670390E+03  0.49798770338E+03  0.30141209163E+03  0.63826620771E+03  0.00000000000E+00 0.  1.
        -13    1    3    3    0    0 -0.63408167411E+02  0.61024496322E+02  0.74112733520E+02  0.11505338811E+03  0.00000000000E+00 0. -1.
         22    1    1    2    0    0  0.32521487132E+03 -0.55901219970E+03 -0.36277862862E+02  0.64774642822E+03  0.00000000000E+00 0.  1.
<mgrwt>
<rscale>  0 0.13593739E+04</rscale>
<asrwt>0</asrwt>
<pdfrwt beam="1">  1        2 0.13387023E+00 0.13593739E+04</pdfrwt>
<pdfrwt beam="2">  1       -2 0.81678389E-01 0.13593739E+04</pdfrwt>
<totfact> 0.39583049E+01</totfact>
</mgrwt>
</event>
<event>
 6    1  0.2238133E-007  0.2493393E+04  0.7818608E-02  0.8405343E-01
         -2   -1    0    0    0  501 -0.00000000000E+00  0.00000000000E+00  0.45262356611E+03  0.45262356611E+03  0.00000000000E+00 0.  1.
          2   -1    0    0  501    0  0.00000000000E+00 -0.00000000000E+00 -0.34338742345E+04  0.34338742345E+04  0.00000000000E+00 0. -1.
         23    2    1    2    0    0  0.32097785606E+03  0.11691737879E+04 -0.10520637695E+04  0.16079552355E+04  0.93208013033E+02 0.  0.
         11    1    3    3    0    0  0.24355837109E+03  0.93653612336E+03 -0.88422017505E+03  0.13108264219E+04  0.00000000000E+00 0. -1.
        -11    1    3    3    0    0  0.77419484969E+02  0.23263766455E+03 -0.16784359446E+03  0.29712881351E+03  0.00000000000E+00 0.  1.
         22    1    1    2    0    0 -0.32097785606E+03 -0.11691737879E+04 -0.19291868989E+04  0.22785425652E+04  0.00000000000E+00 0.  1.
<mgrwt>
<rscale>  0 0.24933932E+04</rscale>
<asrwt>0</asrwt>
<pdfrwt beam="1">  1        2 0.52828832E+00 0.24933932E+04</pdfrwt>
<pdfrwt beam="2">  1       -2 0.69634397E-01 0.24933932E+04</pdfrwt>
<totfact> 0.15180770E+00</totfact>
</mgrwt>
</event>
<event>
 6    1  0.2238133E-007  0.2164469E+04  0.7818608E-02  0.8533364E-01
          2   -1    0    0  501    0  0.00000000000E+00  0.00000000000E+00  0.11630868248E+04  0.11630868248E+04  0.00000000000E+00 0. -1.
         -2   -1    0    0    0  501 -0.00000000000E+00 -0.00000000000E+00 -0.10070029078E+04  0.10070029078E+04  0.00000000000E+00 0.  1.
         23    2    1    2    0    0  0.44204196290E+03  0.90467893382E+03  0.47045859708E+03  0.11152549068E+04  0.92828580447E+02 0.  0.
         11    1    3    3    0    0  0.17615002452E+03  0.46621981336E+03  0.23203395724E+03  0.54975403848E+03  0.00000000000E+00 0. -1.
        -11    1    3    3    0    0  0.26589193838E+03  0.43845912045E+03  0.23842463984E+03  0.56550086834E+03  0.00000000000E+00 0.  1.
         22    1    1    2    0    0 -0.44204196290E+03 -0.90467893382E+03 -0.31437468004E+03  0.10548348258E+04  0.00000000000E+00 0.  1.
<mgrwt>
<rscale>  0 0.21644693E+04</rscale>
<asrwt>0</asrwt>
<pdfrwt beam="1">  1        2 0.17893643E+00 0.21644693E+04</pdfrwt>
<pdfrwt beam="2">  1       -2 0.15492352E+00 0.21644693E+04</pdfrwt>
<totfact> 0.50236142E+00</totfact>
</mgrwt>
</event>
<event>
 6    1  0.2238133E-007  0.4169296E+04  0.7818608E-02  0.7971239E-01
          2   -1    0    0  501    0  0.00000000000E+00  0.00000000000E+00  0.26956205218E+04  0.26956205218E+04  0.00000000000E+00 0. -1.
         -2   -1    0    0    0  501 -0.00000000000E+00 -0.00000000000E+00 -0.16121545370E+04  0.16121545370E+04  0.00000000000E+00 0.  1.
         23    2    1    2    0    0  0.67828142061E+03 -0.46894271129E+02  0.25769779447E+04  0.26667867185E+04  0.93119902171E+02 0.  0.
         11    1    3    3    0    0  0.79653528465E+02  0.24420896720E+02  0.32588421418E+03  0.33636525660E+03  0.00000000000E+00 0. -1.
        -11    1    3    3    0    0  0.59862789215E+03 -0.71315167849E+02  0.22510937305E+04  0.23304214619E+04  0.00000000000E+00 0.  1.
         22    1    1    2    0    0 -0.67828142061E+03  0.46894271129E+02 -0.14935119599E+04  0.16409883402E+04  0.00000000000E+00 0.  1.
<mgrwt>
<rscale>  0 0.41692958E+04</rscale>
<asrwt>0</asrwt>
<pdfrwt beam="1">  1        2 0.41471085E+00 0.41692958E+04</pdfrwt>
<pdfrwt beam="2">  1       -2 0.24802377E+00 0.41692958E+04</pdfrwt>
<totfact> 0.13737605E-01</totfact>
</mgrwt>
</event>
<event>
 6    1  0.2238133E-007  0.1960756E+04  0.7818608E-02  0.8625191E-01
         -2   -1    0    0    0  501 -0.00000000000E+00  0.00000000000E+00  0.75727629190E+03  0.75727629190E+03  0.00000000000E+00 0.  1.
          2   -1    0    0  501    0  0.00000000000E+00 -0.00000000000E+00 -0.12692083846E+04  0.12692083846E+04  0.00000000000E+00 0. -1.
         23    2    1    2    0    0 -0.22474790515E+03 -0.53572763345E+03 -0.10697179791E+04  0.12211022746E+04  0.96324930271E+02 0.  0.
         13    1    3    3    0    0 -0.19397643345E+03 -0.36102650303E+03 -0.78752518476E+03  0.88778539594E+03  0.00000000000E+00 0. -1.
        -13    1    3    3    0    0 -0.30771471705E+02 -0.17470113042E+03 -0.28219279434E+03  0.33331687869E+03  0.00000000000E+00 0.  1.
         22    1    1    2    0    0  0.22474790515E+03  0.53572763345E+03  0.55778588642E+03  0.80538240185E+03  0.00000000000E+00 0.  1.
<mgrwt>
<rscale>  0 0.19607564E+04</rscale>
<asrwt>0</asrwt>
<pdfrwt beam="1">  1        2 0.19526283E+00 0.19607564E+04</pdfrwt>
<pdfrwt beam="2">  1       -2 0.11650405E+00 0.19607564E+04</pdfrwt>
<totfact> 0.91755477E+00</totfact>
</mgrwt>
</event>
<event>
 6    1  0.2238133E-007  0.2218576E+04  0.7818608E-02  0.8510736E-01
          2   -1    0    0  501    0  0.00000000000E+00  0.00000000000E+00  0.13487305312E+04  0.13487305312E+04  0.00000000000E+00 0. -1.
         -2   -1    0    0    0  501 -0.00000000000E+00 -0.00000000000E+00 -0.91235411539E+03  0.91235411539E+03  0.00000000000E+00 0.  1.
         23    2    1    2    0    0 -0.40093991915E+03 -0.84324522276E+03 -0.38828635264E+03  0.10153382815E+04  0.91269982835E+02 0.  0.
         13    1    3    3    0    0 -0.82970885578E+02 -0.11958967192E+03 -0.35904385898E+02  0.14991658484E+03  0.00000000000E+00 0.  1.
        -13    1    3    3    0    0 -0.31796903357E+03 -0.72365555084E+03 -0.35238196674E+03  0.86542169666E+03  0.00000000000E+00 0. -1.
         22    1    1    2    0    0  0.40093991915E+03  0.84324522276E+03  0.82466276844E+03  0.12457463651E+04  0.00000000000E+00 0. -1.
<mgrwt>
<rscale>  0 0.22185760E+04</rscale>
<asrwt>0</asrwt>
<pdfrwt beam="1">  1        2 0.20749701E+00 0.22185760E+04</pdfrwt>
<pdfrwt beam="2">  1       -2 0.14036217E+00 0.22185760E+04</pdfrwt>
<totfact> 0.50436191E+00</totfact>
</mgrwt>
</event>
<event>
 6    1  0.2238133E-007  0.1919814E+04  0.7818608E-02  0.8645056E-01
          2   -1    0    0  501    0  0.00000000000E+00  0.00000000000E+00  0.40496810209E+03  0.40496810209E+03  0.00000000000E+00 0. -1.
         -2   -1    0    0    0  501 -0.00000000000E+00 -0.00000000000E+00 -0.22752947448E+04  0.22752947448E+04  0.00000000000E+00 0.  1.
         23    2    1    2    0    0 -0.81093415472E+03  0.34192528401E+03 -0.40943065804E+03  0.97475876270E+03  0.89409611321E+02 0.  0.
         13    1    3    3    0    0 -0.12621126754E+03  0.86982554508E+02 -0.85639771879E+02  0.17558308395E+03  0.00000000000E+00 0. -1.
        -13    1    3    3    0    0 -0.68472288718E+03  0.25494272950E+03 -0.32379088616E+03  0.79917567875E+03  0.00000000000E+00 0.  1.
         22    1    1    2    0    0  0.81093415472E+03 -0.34192528401E+03 -0.14608959847E+04  0.17055040842E+04  0.00000000000E+00 0.  1.
<mgrwt>
<rscale>  0 0.19198144E+04</rscale>
<asrwt>0</asrwt>
<pdfrwt beam="1">  1        2 0.62302785E-01 0.19198144E+04</pdfrwt>
<pdfrwt beam="2">  1       -2 0.35004534E+00 0.19198144E+04</pdfrwt>
<totfact> 0.11433274E+00</totfact>
</mgrwt>
</event>
<event>
 6    1  0.2238133E-007  0.2600826E+04  0.7818608E-02  0.8367921E-01
         -2   -1    0    0    0  501 -0.00000000000E+00  0.00000000000E+00  0.47176199918E+03  0.47176199918E+03  0.00000000000E+00 0.  1.
          2   -1    0    0  501    0  0.00000000000E+00 -0.00000000000E+00 -0.35845903669E+04  0.35845903669E+04  0.00000000000E+00 0. -1.
         23    2    1    2    0    0  0.84064660644E+03  0.58996180037E+03 -0.31811048846E+03  0.10789055290E+04  0.90006749172E+02 0.  0.
         11    1    3    3    0    0  0.28094439898E+03  0.24393219180E+03 -0.93960083558E+02  0.38374622710E+03  0.00000000000E+00 0. -1.
        -11    1    3    3    0    0  0.55970220746E+03  0.34602960858E+03 -0.22415040490E+03  0.69515930193E+03  0.00000000000E+00 0.  1.
         22    1    1    2    0    0 -0.84064660644E+03 -0.58996180037E+03 -0.27947178793E+04  0.29774468371E+04  0.00000000000E+00 0. -1.
<mgrwt>
<rscale>  0 0.26008257E+04</rscale>
<asrwt>0</asrwt>
<pdfrwt beam="1">  1        2 0.55147546E+00 0.26008257E+04</pdfrwt>
<pdfrwt beam="2">  1       -2 0.72578767E-01 0.26008257E+04</pdfrwt>
<totfact> 0.10765451E+00</totfact>
</mgrwt>
</event>
<event>
 6    1  0.2238133E-007  0.1970111E+04  0.7818608E-02  0.8620724E-01
          2   -1    0    0  501    0  0.00000000000E+00  0.00000000000E+00  0.17356883391E+04  0.17356883391E+04  0.00000000000E+00 0. -1.
         -2   -1    0    0    0  501 -0.00000000000E+00 -0.00000000000E+00 -0.55904866191E+03  0.55904866191E+03  0.00000000000E+00 0.  1.
         23    2    1    2    0    0 -0.12314496786E+03  0.89994973845E+03  0.15184577288E+03  0.92532955211E+03  0.90019033678E+02 0.  0.
         11    1    3    3    0    0 -0.39742945429E+02  0.94419928129E+02  0.73774290723E+01  0.10270857315E+03  0.00000000000E+00 0.  1.
        -11    1    3    3    0    0 -0.83402022426E+02  0.80552981032E+03  0.14446834380E+03  0.82262097895E+03  0.00000000000E+00 0. -1.
         22    1    1    2    0    0  0.12314496786E+03 -0.89994973845E+03  0.10247939044E+04  0.13694074490E+04  0.00000000000E+00 0. -1.
<mgrwt>
<rscale>  0 0.19701109E+04</rscale>
<asrwt>0</asrwt>
<pdfrwt beam="1">  1        2 0.26702897E+00 0.19701109E+04</pdfrwt>
<pdfrwt beam="2">  1       -2 0.86007487E-01 0.19701109E+04</pdfrwt>
<totfact> 0.10233546E+01</totfact>
</mgrwt>
</event>
<event>
 6    1  0.2238133E-007  0.1315498E+04  0.7818608E-02  0.9017365E-01
         -2   -1    0    0    0  501 -0.00000000000E+00  0.00000000000E+00  0.70823803715E+03  0.70823803715E+03  0.00000000000E+00 0.  1.
          2   -1    0    0  501    0  0.00000000000E+00 -0.00000000000E+00 -0.61085929896E+03  0.61085929896E+03  0.00000000000E+00 0. -1.
         23    2    1    2    0    0  0.37493769083E+03 -0.52162500921E+03  0.17422703711E+03  0.67212238815E+03  0.93394442883E+02 0.  0.
         13    1    3    3    0    0  0.25029444295E+03 -0.27289952876E+03  0.84691313965E+02  0.37986060553E+03  0.00000000000E+00 0. -1.
        -13    1    3    3    0    0  0.12464324788E+03 -0.24872548044E+03  0.89535723143E+02  0.29226178262E+03  0.00000000000E+00 0.  1.
         22    1    1    2    0    0 -0.37493769083E+03  0.52162500921E+03 -0.76848298921E+02  0.64697494796E+03  0.00000000000E+00 0.  1.
<mgrwt>
<rscale>  0 0.13154981E+04</rscale>
<asrwt>0</asrwt>
<pdfrwt beam="1">  1        2 0.93978354E-01 0.13154981E+04</pdfrwt>
<pdfrwt beam="2">  1       -2 0.10895970E+00 0.13154981E+04</pdfrwt>
<totfact> 0.31946318E+01</totfact>
</mgrwt>
</event>
<event>
 6    1  0.2238133E-007  0.2241540E+04  0.7818608E-02  0.8501334E-01
          4   -1    0    0  501    0  0.00000000000E+00  0.00000000000E+00  0.12253872768E+04  0.12253872768E+04  0.00000000000E+00 0. -1.
         -4   -1    0    0    0  501 -0.00000000000E+00 -0.00000000000E+00 -0.10250847595E+04  0.10250847595E+04  0.00000000000E+00 0.  1.
         23    2    1    2    0    0 -0.61043636917E+03 -0.33017434108E+03 -0.78083024960E+03  0.10486945350E+04  0.91742535359E+02 0.  0.
         11    1    3    3    0    0 -0.26840018677E+03 -0.93974977740E+02 -0.31863232304E+03  0.42707904887E+03  0.00000000000E+00 0. -1.
        -11    1    3    3    0    0 -0.34203618240E+03 -0.23619936334E+03 -0.46219792657E+03  0.62161548616E+03  0.00000000000E+00 0.  1.
         22    1    1    2    0    0  0.61043636917E+03  0.33017434108E+03  0.98113276688E+03  0.12017775013E+04  0.00000000000E+00 0. -1.
<mgrwt>
<rscale>  0 0.22415404E+04</rscale>
<asrwt>0</asrwt>
<pdfrwt beam="1">  1        4 0.18852112E+00 0.22415404E+04</pdfrwt>
<pdfrwt beam="2">  1       -4 0.15770535E+00 0.22415404E+04</pdfrwt>
<totfact> 0.74425816E-02</totfact>
</mgrwt>
</event>
<event>
 6    1  0.2238133E-007  0.2468494E+04  0.7818608E-02  0.8414296E-01
         -2   -1    0    0    0  501 -0.00000000000E+00  0.00000000000E+00  0.88944711464E+03  0.88944711464E+03  0.00000000000E+00 0.  1.
          2   -1    0    0  501    0  0.00000000000E+00 -0.00000000000E+00 -0.17127108450E+04  0.17127108450E+04  0.00000000000E+00 0. -1.
         23    2    1    2    0    0 -0.74774625042E+03  0.74311976528E+03  0.26108044501E+03  0.10898240907E+04  0.90565497365E+02 0.  0.
         13    1    3    3    0    0 -0.54482508490E+03  0.50101720313E+03  0.21363292985E+03  0.77038408582E+03  0.00000000000E+00 0.  1.
        -13    1    3    3    0    0 -0.20292116552E+03  0.24210256215E+03  0.47447515160E+02  0.31944000487E+03  0.00000000000E+00 0. -1.
         22    1    1    2    0    0  0.74774625042E+03 -0.74311976528E+03 -0.10843441754E+04  0.15123338690E+04  0.00000000000E+00 0. -1.
<mgrwt>
<rscale>  0 0.24684941E+04</rscale>
<asrwt>0</asrwt>
<pdfrwt beam="1">  1        2 0.26349398E+00 0.24684941E+04</pdfrwt>
<pdfrwt beam="2">  1       -2 0.13683802E+00 0.24684941E+04</pdfrwt>
<totfact> 0.32882120E+00</totfact>
</mgrwt>
</event>
<event>
 6    1  0.2238133E-007  0.2992199E+04  0.7818608E-02  0.8245962E-01
         -2   -1    0    0    0  501 -0.00000000000E+00  0.00000000000E+00  0.12559517183E+04  0.12559517183E+04  0.00000000000E+00 0.  1.
          2   -1    0    0  501    0  0.00000000000E+00 -0.00000000000E+00 -0.17821654039E+04  0.17821654039E+04  0.00000000000E+00 0. -1.
         23    2    1    2    0    0  0.55574108699E+03  0.13500461188E+04  0.62092090135E+02  0.14640852405E+04  0.90650344579E+02 0.  0.
         11    1    3    3    0    0  0.40420875973E+03  0.10664187863E+04  0.67785368570E+02  0.11424660194E+04  0.00000000000E+00 0.  1.
        -11    1    3    3    0    0  0.15153232727E+03  0.28362733250E+03 -0.56932784351E+01  0.32161922108E+03  0.00000000000E+00 0. -1.
         22    1    1    2    0    0 -0.55574108699E+03 -0.13500461188E+04 -0.58830577575E+03  0.15740318817E+04  0.00000000000E+00 0. -1.
<mgrwt>
<rscale>  0 0.29921990E+04</rscale>
<asrwt>0</asrwt>
<pdfrwt beam="1">  1        2 0.27417929E+00 0.29921990E+04</pdfrwt>
<pdfrwt beam="2">  1       -2 0.19322334E+00 0.29921990E+04</pdfrwt>
<totfact> 0.11153602E+00</totfact>
</mgrwt>
</event>
<event>
 6    1  0.2238133E-007  0.4123904E+04  0.7818608E-02  0.7980007E-01
         -2   -1    0    0    0  501 -0.00000000000E+00  0.00000000000E+00  0.23552972414E+04  0.23552972414E+04  0.00000000000E+00 0.  1.
          2   -1    0    0  501    0  0.00000000000E+00 -0.00000000000E+00 -0.18051420314E+04  0.18051420314E+04  0.00000000000E+00 0. -1.
         23    2    1    2    0    0  0.10644775947E+04 -0.12550503399E+04  0.15267944773E+04  0.22467809533E+04  0.93055740107E+02 0.  0.
         13    1    3    3    0    0  0.53970347829E+03 -0.70779695580E+03  0.81941815890E+03  0.12098357303E+04  0.00000000000E+00 0.  1.
        -13    1    3    3    0    0  0.52477411638E+03 -0.54725338413E+03  0.70737631843E+03  0.10369452230E+04  0.00000000000E+00 0. -1.
         22    1    1    2    0    0 -0.10644775947E+04  0.12550503399E+04 -0.97663926732E+03  0.19136583195E+04  0.00000000000E+00 0. -1.
<mgrwt>
<rscale>  0 0.41239040E+04</rscale>
<asrwt>0</asrwt>
<pdfrwt beam="1">  1        2 0.27771416E+00 0.41239040E+04</pdfrwt>
<pdfrwt beam="2">  1       -2 0.36235342E+00 0.41239040E+04</pdfrwt>
<totfact> 0.86961214E-02</totfact>
</mgrwt>
</event>
<event>
 6    1  0.2238133E-007  0.3074825E+04  0.7818608E-02  0.8222681E-01
          2   -1    0    0  501    0  0.00000000000E+00  0.00000000000E+00  0.20309769470E+04  0.20309769470E+04  0.00000000000E+00 0. -1.
         -2   -1    0    0    0  501 -0.00000000000E+00 -0.00000000000E+00 -0.11637933262E+04  0.11637933262E+04  0.00000000000E+00 0.  1.
         23    2    1    2    0    0  0.13590583896E+04  0.12859970043E+03  0.11655141505E+04  0.17974232533E+04  0.93431939233E+02 0.  0.
         11    1    3    3    0    0  0.77607183171E+03  0.41512592364E+02  0.61842871159E+03  0.99320937099E+03  0.00000000000E+00 0.  1.
        -11    1    3    3    0    0  0.58298655788E+03  0.87087108069E+02  0.54708543886E+03  0.80421388230E+03  0.00000000000E+00 0. -1.
         22    1    1    2    0    0 -0.13590583896E+04 -0.12859970043E+03 -0.29833052962E+03  0.13973470200E+04  0.00000000000E+00 0.  1.
<mgrwt>
<rscale>  0 0.30748251E+04</rscale>
<asrwt>0</asrwt>
<pdfrwt beam="1">  1        2 0.31245799E+00 0.30748251E+04</pdfrwt>
<pdfrwt beam="2">  1       -2 0.17904513E+00 0.30748251E+04</pdfrwt>
<totfact> 0.10058332E+00</totfact>
</mgrwt>
</event>
<event>
 6    1  0.2238133E-007  0.3454118E+04  0.7818608E-02  0.8124750E-01
         -2   -1    0    0    0  501 -0.00000000000E+00  0.00000000000E+00  0.19935449532E+04  0.19935449532E+04  0.00000000000E+00 0.  1.
          2   -1    0    0  501    0  0.00000000000E+00 -0.00000000000E+00 -0.14961954308E+04  0.14961954308E+04  0.00000000000E+00 0. -1.
         23    2    1    2    0    0  0.37951486200E+03  0.39688095218E+03 -0.14042229647E+04  0.15104667940E+04  0.90120921769E+02 0.  0.
         13    1    3    3    0    0  0.19644332727E+03  0.25838151953E+03 -0.75330858608E+03  0.82025899344E+03  0.00000000000E+00 0.  1.
        -13    1    3    3    0    0  0.18307153473E+03  0.13849943265E+03 -0.65091437857E+03  0.69020780052E+03  0.00000000000E+00 0. -1.
         22    1    1    2    0    0 -0.37951486200E+03 -0.39688095218E+03  0.19015724871E+04  0.19792735901E+04  0.00000000000E+00 0.  1.
<mgrwt>
<rscale>  0 0.34541180E+04</rscale>
<asrwt>0</asrwt>
<pdfrwt beam="1">  1        2 0.23018391E+00 0.34541180E+04</pdfrwt>
<pdfrwt beam="2">  1       -2 0.30669922E+00 0.34541180E+04</pdfrwt>
<totfact> 0.30419162E-01</totfact>
</mgrwt>
</event>
<event>
 6    1  0.2238133E-007  0.1423920E+04  0.7818608E-02  0.8936684E-01
          2   -1    0    0  501    0  0.00000000000E+00  0.00000000000E+00  0.43816585645E+03  0.43816585645E+03  0.00000000000E+00 0. -1.
         -2   -1    0    0    0  501 -0.00000000000E+00 -0.00000000000E+00 -0.11568383033E+04  0.11568383033E+04  0.00000000000E+00 0.  1.
         23    2    1    2    0    0 -0.36128708618E+03 -0.17908127525E+03  0.29237716725E+03  0.50650988602E+03  0.92029315540E+02 0.  0.
         13    1    3    3    0    0 -0.30012994820E+03 -0.10847244893E+03  0.21057330622E+03  0.38234196118E+03  0.00000000000E+00 0. -1.
        -13    1    3    3    0    0 -0.61157137979E+02 -0.70608826319E+02  0.81803861029E+02  0.12416792484E+03  0.00000000000E+00 0.  1.
         22    1    1    2    0    0  0.36128708618E+03  0.17908127525E+03 -0.10110496141E+04  0.10884942737E+04  0.00000000000E+00 0.  1.
<mgrwt>
<rscale>  0 0.14239200E+04</rscale>
<asrwt>0</asrwt>
<pdfrwt beam="1">  1        2 0.67410132E-01 0.14239200E+04</pdfrwt>
<pdfrwt beam="2">  1       -2 0.17797512E+00 0.14239200E+04</pdfrwt>
<totfact> 0.13032534E+01</totfact>
</mgrwt>
</event>
<event>
 6    1  0.2238133E-007  0.2552148E+04  0.7818608E-02  0.8384639E-01
         -2   -1    0    0    0  501 -0.00000000000E+00  0.00000000000E+00  0.82690250218E+03  0.82690250218E+03  0.00000000000E+00 0.  1.
          2   -1    0    0  501    0  0.00000000000E+00 -0.00000000000E+00 -0.19692346226E+04  0.19692346226E+04  0.00000000000E+00 0. -1.
         23    2    1    2    0    0  0.10762003850E+04  0.47768808578E+03 -0.37657074167E+02  0.11816092886E+04  0.91593011526E+02 0.  0.
         13    1    3    3    0    0  0.66227014018E+03  0.25574040082E+03 -0.50774958322E+02  0.71174643489E+03  0.00000000000E+00 0.  1.
        -13    1    3    3    0    0  0.41393024481E+03  0.22194768496E+03  0.13117884156E+02  0.46986285373E+03  0.00000000000E+00 0. -1.
         22    1    1    2    0    0 -0.10762003850E+04 -0.47768808578E+03 -0.11046750463E+04  0.16145278362E+04  0.00000000000E+00 0. -1.
<mgrwt>
<rscale>  0 0.25521481E+04</rscale>
<asrwt>0</asrwt>
<pdfrwt beam="1">  1        2 0.30295917E+00 0.25521481E+04</pdfrwt>
<pdfrwt beam="2">  1       -2 0.12721577E+00 0.25521481E+04</pdfrwt>
<totfact> 0.28313382E+00</totfact>
</mgrwt>
</event>
<event>
 6    1  0.2238133E-007  0.2544247E+04  0.7818608E-02  0.8387390E-01
          2   -1    0    0  501    0  0.00000000000E+00  0.00000000000E+00  0.25115874621E+04  0.25115874621E+04  0.00000000000E+00 0. -1.
         -2   -1    0    0    0  501 -0.00000000000E+00 -0.00000000000E+00 -0.64433269576E+03  0.64433269576E+03  0.00000000000E+00 0.  1.
         23    2    1    2    0    0  0.29183652197E+03 -0.12358822896E+04  0.88364648441E+03  0.15496640010E+04  0.89743061612E+02 0.  0.
         13    1    3    3    0    0  0.12703737518E+03 -0.53700587154E+03  0.43843307541E+03  0.70479597216E+03  0.00000000000E+00 0.  1.
        -13    1    3    3    0    0  0.16479914679E+03 -0.69887641808E+03  0.44521340899E+03  0.84486802880E+03  0.00000000000E+00 0. -1.
         22    1    1    2    0    0 -0.29183652197E+03  0.12358822896E+04  0.98360828195E+03  0.16062561569E+04  0.00000000000E+00 0.  1.
<mgrwt>
<rscale>  0 0.25442468E+04</rscale>
<asrwt>0</asrwt>
<pdfrwt beam="1">  1        2 0.38639807E+00 0.25442468E+04</pdfrwt>
<pdfrwt beam="2">  1       -2 0.99128108E-01 0.25442468E+04</pdfrwt>
<totfact> 0.25681448E+00</totfact>
</mgrwt>
</event>
<event>
 6    1  0.2238133E-007  0.2152535E+04  0.7818608E-02  0.8538448E-01
         -2   -1    0    0    0  501 -0.00000000000E+00  0.00000000000E+00  0.79027544044E+03  0.79027544044E+03  0.00000000000E+00 0.  1.
          2   -1    0    0  501    0  0.00000000000E+00 -0.00000000000E+00 -0.14657569388E+04  0.14657569388E+04  0.00000000000E+00 0. -1.
         23    2    1    2    0    0  0.35536965836E+03  0.36666163010E+03  0.65203071636E+03  0.83370434911E+03  0.95867312309E+02 0.  0.
         13    1    3    3    0    0  0.31667991548E+03  0.28358351167E+03  0.56725675475E+03  0.70886247098E+03  0.00000000000E+00 0. -1.
        -13    1    3    3    0    0  0.38689742882E+02  0.83078118430E+02  0.84773961612E+02  0.12484187812E+03  0.00000000000E+00 0.  1.
         22    1    1    2    0    0 -0.35536965836E+03 -0.36666163010E+03 -0.13275122147E+04  0.14223280301E+04  0.00000000000E+00 0. -1.
<mgrwt>
<rscale>  0 0.21525350E+04</rscale>
<asrwt>0</asrwt>
<pdfrwt beam="1">  1        2 0.22550107E+00 0.21525350E+04</pdfrwt>
<pdfrwt beam="2">  1       -2 0.12158084E+00 0.21525350E+04</pdfrwt>
<totfact> 0.62611164E+00</totfact>
</mgrwt>
</event>
<event>
 6    1  0.2238133E-007  0.7737621E+03  0.7818608E-02  0.9598792E-01
         -2   -1    0    0    0  501 -0.00000000000E+00  0.00000000000E+00  0.16536105245E+03  0.16536105245E+03  0.00000000000E+00 0.  1.
          2   -1    0    0  501    0  0.00000000000E+00 -0.00000000000E+00 -0.90515244027E+03  0.90515244027E+03  0.00000000000E+00 0. -1.
         23    2    1    2    0    0 -0.11326951978E+03  0.12830000263E+03  0.95923771394E+02  0.21745388043E+03  0.93776038564E+02 0.  0.
         11    1    3    3    0    0 -0.40264040712E+02  0.24738727406E+02  0.75559813303E+02  0.89120609258E+02  0.00000000000E+00 0. -1.
        -11    1    3    3    0    0 -0.73005479071E+02  0.10356127523E+03  0.20363958091E+02  0.12833327117E+03  0.00000000000E+00 0.  1.
         22    1    1    2    0    0  0.11326951978E+03 -0.12830000263E+03 -0.83571515921E+03  0.85305961229E+03  0.00000000000E+00 0. -1.
<mgrwt>
<rscale>  0 0.77376213E+03</rscale>
<asrwt>0</asrwt>
<pdfrwt beam="1">  1        2 0.13925422E+00 0.77376213E+03</pdfrwt>
<pdfrwt beam="2">  1       -2 0.25440162E-01 0.77376213E+03</pdfrwt>
<totfact> 0.40598413E+02</totfact>
</mgrwt>
</event>
<event>
 6    1  0.2238133E-007  0.3772038E+04  0.7818608E-02  0.8052182E-01
          2   -1    0    0  501    0  0.00000000000E+00  0.00000000000E+00  0.37969870514E+04  0.37969870514E+04  0.00000000000E+00 0. -1.
         -2   -1    0    0    0  501 -0.00000000000E+00 -0.00000000000E+00 -0.93681332878E+03  0.93681332878E+03  0.00000000000E+00 0.  1.
         23    2    1    2    0    0  0.91209719334E+03  0.15297663384E+04  0.65650591981E+03  0.19003822809E+04  0.91358910495E+02 0.  0.
         13    1    3    3    0    0  0.66835763520E+03  0.10834876771E+04  0.42990452859E+03  0.13436760691E+04  0.00000000000E+00 0.  1.
        -13    1    3    3    0    0  0.24373955814E+03  0.44627866132E+03  0.22660139122E+03  0.55670621180E+03  0.00000000000E+00 0. -1.
         22    1    1    2    0    0 -0.91209719334E+03 -0.15297663384E+04  0.22036678028E+04  0.28334180993E+04  0.00000000000E+00 0.  1.
<mgrwt>
<rscale>  0 0.37720382E+04</rscale>
<asrwt>0</asrwt>
<pdfrwt beam="1">  1        2 0.58415185E+00 0.37720382E+04</pdfrwt>
<pdfrwt beam="2">  1       -2 0.14412513E+00 0.37720382E+04</pdfrwt>
<totfact> 0.13175219E-01</totfact>
</mgrwt>
</event>
<event>
 6    1  0.2238133E-007  0.1893114E+04  0.7818608E-02  0.8658291E-01
          2   -1    0    0  501    0  0.00000000000E+00  0.00000000000E+00  0.55964116713E+03  0.55964116713E+03  0.00000000000E+00 0. -1.
         -2   -1    0    0    0  501 -0.00000000000E+00 -0.00000000000E+00 -0.16009732504E+04  0.16009732504E+04  0.00000000000E+00 0.  1.
         23    2    1    2    0    0  0.73595561425E+03  0.44566168374E+03 -0.96598968593E+03  0.12969469587E+04  0.93221982029E+02 0.  0.
         13    1    3    3    0    0  0.50013818313E+03  0.32017961592E+03 -0.60365916628E+03  0.84679252342E+03  0.00000000000E+00 0. -1.
        -13    1    3    3    0    0  0.23581743112E+03  0.12548206782E+03 -0.36233051965E+03  0.45015443531E+03  0.00000000000E+00 0.  1.
         22    1    1    2    0    0 -0.73595561425E+03 -0.44566168374E+03 -0.75342397311E+02  0.86366745877E+03  0.00000000000E+00 0. -1.
<mgrwt>
<rscale>  0 0.18931144E+04</rscale>
<asrwt>0</asrwt>
<pdfrwt beam="1">  1        2 0.86098641E-01 0.18931144E+04</pdfrwt>
<pdfrwt beam="2">  1       -2 0.24630358E+00 0.18931144E+04</pdfrwt>
<totfact> 0.34213754E+00</totfact>
</mgrwt>
</event>
<event>
 6    1  0.2238133E-007  0.7491222E+03  0.7818608E-02  0.9636728E-01
         -2   -1    0    0    0  501 -0.00000000000E+00  0.00000000000E+00  0.19373075585E+03  0.19373075585E+03  0.00000000000E+00 0.  1.
          2   -1    0    0  501    0  0.00000000000E+00 -0.00000000000E+00 -0.72418049883E+03  0.72418049883E+03  0.00000000000E+00 0. -1.
         23    2    1    2    0    0  0.21969291270E+03  0.20922470005E+03 -0.52825751177E+03  0.61452246637E+03  0.80882086581E+02 0.  0.
         11    1    3    3    0    0  0.15110041924E+03  0.88985205666E+02 -0.30587106191E+03  0.35257170907E+03  0.00000000000E+00 0. -1.
        -11    1    3    3    0    0  0.68592493455E+02  0.12023949438E+03 -0.22238644986E+03  0.26195075730E+03  0.00000000000E+00 0.  1.
         22    1    1    2    0    0 -0.21969291270E+03 -0.20922470005E+03 -0.21922312130E+01  0.30338878832E+03  0.00000000000E+00 0.  1.
<mgrwt>
<rscale>  0 0.74912225E+03</rscale>
<asrwt>0</asrwt>
<pdfrwt beam="1">  1        2 0.11141238E+00 0.74912225E+03</pdfrwt>
<pdfrwt beam="2">  1       -2 0.29804732E-01 0.74912225E+03</pdfrwt>
<totfact> 0.40945557E+02</totfact>
</mgrwt>
</event>
<event>
 6    1  0.2238133E-007  0.2080466E+04  0.7818608E-02  0.8569897E-01
         -2   -1    0    0    0  501 -0.00000000000E+00  0.00000000000E+00  0.34016797000E+03  0.34016797000E+03  0.00000000000E+00 0.  1.
          2   -1    0    0  501    0  0.00000000000E+00 -0.00000000000E+00 -0.31810317677E+04  0.31810317677E+04  0.00000000000E+00 0. -1.
         23    2    1    2    0    0 -0.16933824772E+03 -0.27940411556E+03 -0.30911086079E+04  0.31096604723E+04  0.91069889693E+02 0.  0.
         11    1    3    3    0    0 -0.14357505959E+03 -0.20641125365E+03 -0.26412689990E+04  0.26532096277E+04  0.00000000000E+00 0. -1.
        -11    1    3    3    0    0 -0.25763188126E+02 -0.72992861913E+02 -0.44983960888E+03  0.45645084453E+03  0.00000000000E+00 0.  1.
         22    1    1    2    0    0  0.16933824772E+03  0.27940411556E+03  0.25024481024E+03  0.41153926542E+03  0.00000000000E+00 0.  1.
<mgrwt>
<rscale>  0 0.20804664E+04</rscale>
<asrwt>0</asrwt>
<pdfrwt beam="1">  1        2 0.48938950E+00 0.20804664E+04</pdfrwt>
<pdfrwt beam="2">  1       -2 0.52333535E-01 0.20804664E+04</pdfrwt>
<totfact> 0.42556201E+00</totfact>
</mgrwt>
</event>
<event>
 6    1  0.2238133E-007  0.1954734E+04  0.7818608E-02  0.8628081E-01
         -2   -1    0    0    0  501 -0.00000000000E+00  0.00000000000E+00  0.30887435591E+03  0.30887435591E+03  0.00000000000E+00 0.  1.
          2   -1    0    0  501    0  0.00000000000E+00 -0.00000000000E+00 -0.30926699889E+04  0.30926699889E+04  0.00000000000E+00 0. -1.
         23    2    1    2    0    0 -0.13612215420E+03 -0.45557785267E+03 -0.28766392359E+04  0.29170855175E+04  0.90852642059E+02 0.  0.
         13    1    3    3    0    0 -0.35789343160E+02 -0.24099800567E+03 -0.16348680026E+04  0.16529229570E+04  0.00000000000E+00 0. -1.
        -13    1    3    3    0    0 -0.10033281104E+03 -0.21457984700E+03 -0.12417712333E+04  0.12641625605E+04  0.00000000000E+00 0.  1.
         22    1    1    2    0    0  0.13612215420E+03  0.45557785267E+03  0.92843602892E+02  0.48445882726E+03  0.00000000000E+00 0.  1.
<mgrwt>
<rscale>  0 0.19547342E+04</rscale>
<asrwt>0</asrwt>
<pdfrwt beam="1">  1        2 0.47579536E+00 0.19547342E+04</pdfrwt>
<pdfrwt beam="2">  1       -2 0.47519134E-01 0.19547342E+04</pdfrwt>
<totfact> 0.59720811E+00</totfact>
</mgrwt>
</event>
<event>
 6    1  0.2238133E-007  0.1856012E+04  0.7818608E-02  0.8677067E-01
         -1   -1    0    0    0  501 -0.00000000000E+00  0.00000000000E+00  0.33994197241E+03  0.33994197241E+03  0.00000000000E+00 0.  1.
          1   -1    0    0  501    0  0.00000000000E+00 -0.00000000000E+00 -0.25333590270E+04  0.25333590270E+04  0.00000000000E+00 0. -1.
         23    2    1    2    0    0 -0.14362916781E+03 -0.91444919982E+03 -0.10782123017E+04  0.14239810493E+04  0.91288467894E+02 0.  0.
         13    1    3    3    0    0 -0.75442691235E+02 -0.26011825756E+03 -0.35112650626E+03  0.44344439445E+03  0.00000000000E+00 0. -1.
        -13    1    3    3    0    0 -0.68186476576E+02 -0.65433094226E+03 -0.72708579541E+03  0.98053665484E+03  0.00000000000E+00 0.  1.
         22    1    1    2    0    0  0.14362916781E+03  0.91444919982E+03 -0.11152047530E+04  0.14493199502E+04  0.00000000000E+00 0. -1.
<mgrwt>
<rscale>  0 0.18560119E+04</rscale>
<asrwt>0</asrwt>
<pdfrwt beam="1">  1        1 0.38974754E+00 0.18560119E+04</pdfrwt>
<pdfrwt beam="2">  1       -1 0.52298765E-01 0.18560119E+04</pdfrwt>
<totfact> 0.44461373E+00</totfact>
</mgrwt>
</event>
<event>
 6    1  0.2238133E-007  0.3456170E+04  0.7818608E-02  0.8124256E-01
          2   -1    0    0  501    0  0.00000000000E+00  0.00000000000E+00  0.24670090353E+04  0.24670090353E+04  0.00000000000E+00 0. -1.
         -2   -1    0    0    0  501 -0.00000000000E+00 -0.00000000000E+00 -0.12104851648E+04  0.12104851648E+04  0.00000000000E+00 0.  1.
         23    2    1    2    0    0 -0.14915403656E+04 -0.49562730857E+03  0.13894405640E+04  0.21001527854E+04  0.98780312599E+02 0.  0.
         13    1    3    3    0    0 -0.31960756789E+03 -0.98354069774E+02  0.24407502885E+03  0.41399896160E+03  0.00000000000E+00 0. -1.
        -13    1    3    3    0    0 -0.11719327977E+04 -0.39727323880E+03  0.11453655351E+04  0.16861538238E+04  0.00000000000E+00 0.  1.
         22    1    1    2    0    0  0.14915403656E+04  0.49562730857E+03 -0.13291669354E+03  0.15773414147E+04  0.00000000000E+00 0.  1.
<mgrwt>
<rscale>  0 0.34561700E+04</rscale>
<asrwt>0</asrwt>
<pdfrwt beam="1">  1        2 0.37953985E+00 0.34561700E+04</pdfrwt>
<pdfrwt beam="2">  1       -2 0.18622849E+00 0.34561700E+04</pdfrwt>
<totfact> 0.49299519E-01</totfact>
</mgrwt>
</event>
<event>
 6    1  0.2238133E-007  0.2934875E+04  0.7818608E-02  0.8262576E-01
          2   -1    0    0  501    0  0.00000000000E+00  0.00000000000E+00  0.32366031937E+04  0.32366031937E+04  0.00000000000E+00 0. -1.
         -2   -1    0    0    0  501 -0.00000000000E+00 -0.00000000000E+00 -0.66531895387E+03  0.66531895387E+03  0.00000000000E+00 0.  1.
         23    2    1    2    0    0 -0.92328594638E+03 -0.50857605637E+03  0.26414999632E+04  0.28454957224E+04  0.90649361968E+02 0.  0.
         13    1    3    3    0    0 -0.57763897994E+03 -0.28049996823E+03  0.16842380331E+04  0.18024995909E+04  0.00000000000E+00 0. -1.
        -13    1    3    3    0    0 -0.34564696644E+03 -0.22807608814E+03  0.95726193012E+03  0.10429961315E+04  0.00000000000E+00 0.  1.
         22    1    1    2    0    0  0.92328594638E+03  0.50857605637E+03 -0.70215723400E+02  0.10564264251E+04  0.00000000000E+00 0.  1.
<mgrwt>
<rscale>  0 0.29348754E+04</rscale>
<asrwt>0</asrwt>
<pdfrwt beam="1">  1        2 0.49793895E+00 0.29348754E+04</pdfrwt>
<pdfrwt beam="2">  1       -2 0.10235676E+00 0.29348754E+04</pdfrwt>
<totfact> 0.82463401E-01</totfact>
</mgrwt>
</event>
<event>
 6    1  0.2238133E-007  0.3740809E+04  0.7818608E-02  0.8058978E-01
         -2   -1    0    0    0  501 -0.00000000000E+00  0.00000000000E+00  0.13862909607E+04  0.13862909607E+04  0.00000000000E+00 0.  1.
          2   -1    0    0  501    0  0.00000000000E+00 -0.00000000000E+00 -0.25235780113E+04  0.25235780113E+04  0.00000000000E+00 0. -1.
         23    2    1    2    0    0 -0.16458502793E+04 -0.75626398281E+03 -0.10520501679E+04  0.20965781294E+04  0.89843992451E+02 0.  0.
         13    1    3    3    0    0 -0.10610422153E+04 -0.46841568901E+03 -0.62760773713E+03  0.13187552131E+04  0.00000000000E+00 0.  1.
        -13    1    3    3    0    0 -0.58480806407E+03 -0.28784829381E+03 -0.42444243079E+03  0.77782291629E+03  0.00000000000E+00 0. -1.
         22    1    1    2    0    0  0.16458502793E+04  0.75626398281E+03 -0.85236882738E+02  0.18132908426E+04  0.00000000000E+00 0.  1.
<mgrwt>
<rscale>  0 0.37408092E+04</rscale>
<asrwt>0</asrwt>
<pdfrwt beam="1">  1        2 0.38824277E+00 0.37408092E+04</pdfrwt>
<pdfrwt beam="2">  1       -2 0.21327554E+00 0.37408092E+04</pdfrwt>
<totfact> 0.29644854E-01</totfact>
</mgrwt>
</event>
<event>
 6    1  0.2238133E-007  0.2053531E+04  0.7818608E-02  0.8581994E-01
         -2   -1    0    0    0  501 -0.00000000000E+00  0.00000000000E+00  0.56784411803E+03  0.56784411803E+03  0.00000000000E+00 0.  1.
          2   -1    0    0  501    0  0.00000000000E+00 -0.00000000000E+00 -0.18565780739E+04  0.18565780739E+04  0.00000000000E+00 0. -1.
         23    2    1    2    0    0  0.33598522363E+03  0.94849150368E+03 -0.87445367116E+03  0.13362354629E+04  0.91289573273E+02 0.  0.
         11    1    3    3    0    0  0.15674509824E+03  0.34994006449E+03 -0.37500536786E+03  0.53633580943E+03  0.00000000000E+00 0. -1.
        -11    1    3    3    0    0  0.17924012539E+03  0.59855143919E+03 -0.49944830330E+03  0.79989965344E+03  0.00000000000E+00 0.  1.
         22    1    1    2    0    0 -0.33598522363E+03 -0.94849150368E+03 -0.41428028473E+03  0.10881867291E+04  0.00000000000E+00 0. -1.
<mgrwt>
<rscale>  0 0.20535306E+04</rscale>
<asrwt>0</asrwt>
<pdfrwt beam="1">  1        2 0.28562739E+00 0.20535306E+04</pdfrwt>
<pdfrwt beam="2">  1       -2 0.87360635E-01 0.20535306E+04</pdfrwt>
<totfact> 0.84028848E+00</totfact>
</mgrwt>
</event>
<event>
 6    1  0.2238133E-007  0.3867090E+04  0.7818608E-02  0.8031909E-01
          2   -1    0    0  501    0  0.00000000000E+00  0.00000000000E+00  0.39613622354E+04  0.39613622354E+04  0.00000000000E+00 0. -1.
         -2   -1    0    0    0  501 -0.00000000000E+00 -0.00000000000E+00 -0.94376541290E+03  0.94376541290E+03  0.00000000000E+00 0.  1.
         23    2    1    2    0    0 -0.66684218472E+03 -0.74960921991E+03  0.36045845765E+04  0.37427391137E+04  0.92052280431E+02 0.  0.
         13    1    3    3    0    0 -0.19853429004E+03 -0.27779335171E+03  0.11350881894E+04  0.11853312652E+04  0.00000000000E+00 0. -1.
        -13    1    3    3    0    0 -0.46830789469E+03 -0.47181586819E+03  0.24694963871E+04  0.25574078485E+04  0.00000000000E+00 0.  1.
         22    1    1    2    0    0  0.66684218472E+03  0.74960921991E+03 -0.58698775402E+03  0.11623885346E+04  0.00000000000E+00 0.  1.
<mgrwt>
<rscale>  0 0.38670902E+04</rscale>
<asrwt>0</asrwt>
<pdfrwt beam="1">  1        2 0.60944034E+00 0.38670902E+04</pdfrwt>
<pdfrwt beam="2">  1       -2 0.14519468E+00 0.38670902E+04</pdfrwt>
<totfact> 0.95378010E-02</totfact>
</mgrwt>
</event>
<event>
 6    1  0.2238133E-007  0.2121745E+04  0.7818608E-02  0.8551725E-01
          2   -1    0    0  501    0  0.00000000000E+00  0.00000000000E+00  0.30845591576E+04  0.30845591576E+04  0.00000000000E+00 0. -1.
         -2   -1    0    0    0  501 -0.00000000000E+00 -0.00000000000E+00 -0.36486585015E+03  0.36486585015E+03  0.00000000000E+00 0.  1.
         23    2    1    2    0    0 -0.90294554065E+03 -0.61379709958E+02  0.46917052915E+03  0.10237434759E+04  0.94082946856E+02 0.  0.
         13    1    3    3    0    0 -0.19244726607E+03 -0.57057517501E+01  0.14380348671E+03  0.24030802860E+03  0.00000000000E+00 0.  1.
        -13    1    3    3    0    0 -0.71049827458E+03 -0.55673958208E+02  0.32536704244E+03  0.78343544732E+03  0.00000000000E+00 0. -1.
         22    1    1    2    0    0  0.90294554065E+03  0.61379709958E+02  0.22505227783E+04  0.24256815318E+04  0.00000000000E+00 0. -1.
<mgrwt>
<rscale>  0 0.21217448E+04</rscale>
<asrwt>0</asrwt>
<pdfrwt beam="1">  1        2 0.47454755E+00 0.21217448E+04</pdfrwt>
<pdfrwt beam="2">  1       -2 0.56133210E-01 0.21217448E+04</pdfrwt>
<totfact> 0.42278780E+00</totfact>
</mgrwt>
</event>
<event>
 6    1  0.2238133E-007  0.3875849E+04  0.7818608E-02  0.8030071E-01
          2   -1    0    0  501    0  0.00000000000E+00  0.00000000000E+00  0.36399339174E+04  0.36399339174E+04  0.00000000000E+00 0. -1.
         -2   -1    0    0    0  501 -0.00000000000E+00 -0.00000000000E+00 -0.10317635166E+04  0.10317635166E+04  0.00000000000E+00 0.  1.
         23    2    1    2    0    0 -0.17599171670E+03 -0.25158965888E+02  0.36295279334E+04  0.36349827832E+04  0.89558679549E+02 0.  0.
         11    1    3    3    0    0 -0.54287693760E+02  0.33260181815E+02  0.10582825882E+04  0.10601959393E+04  0.00000000000E+00 0.  1.
        -11    1    3    3    0    0 -0.12170402294E+03 -0.58419147704E+02  0.25712453452E+04  0.25747868439E+04  0.00000000000E+00 0. -1.
         22    1    1    2    0    0  0.17599171670E+03  0.25158965888E+02 -0.10213575325E+04  0.10367146508E+04  0.00000000000E+00 0.  1.
<mgrwt>
<rscale>  0 0.38758488E+04</rscale>
<asrwt>0</asrwt>
<pdfrwt beam="1">  1        2 0.55998983E+00 0.38758488E+04</pdfrwt>
<pdfrwt beam="2">  1       -2 0.15873285E+00 0.38758488E+04</pdfrwt>
<totfact> 0.13220486E-01</totfact>
</mgrwt>
</event>
<event>
 6    1  0.2238133E-007  0.2564287E+04  0.7818608E-02  0.8380434E-01
         -2   -1    0    0    0  501 -0.00000000000E+00  0.00000000000E+00  0.22188986261E+04  0.22188986261E+04  0.00000000000E+00 0.  1.
          2   -1    0    0  501    0  0.00000000000E+00 -0.00000000000E+00 -0.74085945498E+03  0.74085945498E+03  0.00000000000E+00 0. -1.
         23    2    1    2    0    0  0.61026500102E+03 -0.10853236280E+04  0.39138055568E+03  0.13071305684E+04  0.71139542515E+02 0.  0.
         13    1    3    3    0    0  0.33794097434E+03 -0.66078319247E+03  0.25289570997E+03  0.78408849609E+03  0.00000000000E+00 0. -1.
        -13    1    3    3    0    0  0.27232402668E+03 -0.42454043557E+03  0.13848484571E+03  0.52304207234E+03  0.00000000000E+00 0.  1.
         22    1    1    2    0    0 -0.61026500102E+03  0.10853236280E+04  0.10866586154E+04  0.16526275126E+04  0.00000000000E+00 0.  1.
<mgrwt>
<rscale>  0 0.25642871E+04</rscale>
<asrwt>0</asrwt>
<pdfrwt beam="1">  1        2 0.11397838E+00 0.25642871E+04</pdfrwt>
<pdfrwt beam="2">  1       -2 0.34136902E+00 0.25642871E+04</pdfrwt>
<totfact> 0.59610110E-01</totfact>
</mgrwt>
</event>
<event>
 6    1  0.2238133E-007  0.2625306E+04  0.7818608E-02  0.8359656E-01
         -2   -1    0    0    0  501 -0.00000000000E+00  0.00000000000E+00  0.10175845822E+04  0.10175845822E+04  0.00000000000E+00 0.  1.
          2   -1    0    0  501    0  0.00000000000E+00 -0.00000000000E+00 -0.16932821777E+04  0.16932821777E+04  0.00000000000E+00 0. -1.
         23    2    1    2    0    0  0.48811320536E+03 -0.12164387310E+04 -0.37531677991E+03  0.13661711356E+04  0.87081563597E+02 0.  0.
         13    1    3    3    0    0  0.39278672599E+03 -0.99610338647E+03 -0.27163809483E+03  0.11046676528E+04  0.00000000000E+00 0.  1.
        -13    1    3    3    0    0  0.95326479374E+02 -0.22033534457E+03 -0.10367868508E+03  0.26150348272E+03  0.00000000000E+00 0. -1.
         22    1    1    2    0    0 -0.48811320536E+03  0.12164387310E+04 -0.30038081564E+03  0.13446956243E+04  0.00000000000E+00 0.  1.
<mgrwt>
<rscale>  0 0.26253060E+04</rscale>
<asrwt>0</asrwt>
<pdfrwt beam="1">  1        2 0.26050494E+00 0.26253060E+04</pdfrwt>
<pdfrwt beam="2">  1       -2 0.15655148E+00 0.26253060E+04</pdfrwt>
<totfact> 0.23338419E+00</totfact>
</mgrwt>
</event>
<event>
 6    1  0.2238133E-007  0.9576747E+03  0.7818608E-02  0.9356225E-01
         -2   -1    0    0    0  501 -0.00000000000E+00  0.00000000000E+00  0.27584837694E+03  0.27584837694E+03  0.00000000000E+00 0.  1.
          2   -1    0    0  501    0  0.00000000000E+00 -0.00000000000E+00 -0.83120021812E+03  0.83120021812E+03  0.00000000000E+00 0. -1.
         23    2    1    2    0    0 -0.33079082495E+03  0.27029326568E+03 -0.51899912218E+03  0.67832661111E+03  0.91026826690E+02 0.  0.
         13    1    3    3    0    0 -0.90374640876E+02  0.43364222929E+02 -0.17180705566E+03  0.19891127650E+03  0.00000000000E+00 0. -1.
        -13    1    3    3    0    0 -0.24041618407E+03  0.22692904275E+03 -0.34719206652E+03  0.47941533461E+03  0.00000000000E+00 0.  1.
         22    1    1    2    0    0  0.33079082495E+03 -0.27029326568E+03 -0.36352718992E+02  0.42872198395E+03  0.00000000000E+00 0.  1.
<mgrwt>
<rscale>  0 0.95767475E+03</rscale>
<asrwt>0</asrwt>
<pdfrwt beam="1">  1        2 0.12787695E+00 0.95767475E+03</pdfrwt>
<pdfrwt beam="2">  1       -2 0.42438213E-01 0.95767475E+03</pdfrwt>
<totfact> 0.17219512E+02</totfact>
</mgrwt>
</event>
<event>
 6    1  0.2238133E-007  0.2415859E+04  0.7818608E-02  0.8433590E-01
         -2   -1    0    0    0  501 -0.00000000000E+00  0.00000000000E+00  0.75859133747E+03  0.75859133747E+03  0.00000000000E+00 0.  1.
          2   -1    0    0  501    0  0.00000000000E+00 -0.00000000000E+00 -0.19234255076E+04  0.19234255076E+04  0.00000000000E+00 0. -1.
         23    2    1    2    0    0 -0.63766174287E+03 -0.76205739207E+03 -0.13423749286E+04  0.16726285709E+04  0.91498197108E+02 0.  0.
         13    1    3    3    0    0 -0.54110782115E+03 -0.68802392472E+03 -0.12005725658E+04  0.14857823127E+04  0.00000000000E+00 0. -1.
        -13    1    3    3    0    0 -0.96553921721E+02 -0.74033467347E+02 -0.14180236283E+03  0.18684625817E+03  0.00000000000E+00 0.  1.
         22    1    1    2    0    0  0.63766174287E+03  0.76205739207E+03  0.17754075848E+03  0.10093882742E+04  0.00000000000E+00 0.  1.
<mgrwt>
<rscale>  0 0.24158592E+04</rscale>
<asrwt>0</asrwt>
<pdfrwt beam="1">  1        2 0.29591161E+00 0.24158592E+04</pdfrwt>
<pdfrwt beam="2">  1       -2 0.11670636E+00 0.24158592E+04</pdfrwt>
<totfact> 0.37643047E+00</totfact>
</mgrwt>
</event>
<event>
 6    1  0.2238133E-007  0.5715371E+03  0.7818608E-02  0.9966283E-01
         -4   -1    0    0    0  501 -0.00000000000E+00  0.00000000000E+00  0.39201125620E+03  0.39201125620E+03  0.00000000000E+00 0.  1.
          4   -1    0    0  501    0  0.00000000000E+00 -0.00000000000E+00 -0.20831968034E+03  0.20831968034E+03  0.00000000000E+00 0. -1.
         23    2    1    2    0    0  0.25737424916E+03  0.10055236529E+03  0.57887913998E+02  0.29672124691E+03  0.91324725504E+02 0.  0.
         11    1    3    3    0    0  0.13941882505E+03  0.48067902754E+02  0.76744663556E+02  0.16624642985E+03  0.00000000000E+00 0. -1.
        -11    1    3    3    0    0  0.11795542411E+03  0.52484462538E+02 -0.18856749557E+02  0.13047481706E+03  0.00000000000E+00 0.  1.
         22    1    1    2    0    0 -0.25737424916E+03 -0.10055236529E+03  0.12580366186E+03  0.30360968962E+03  0.00000000000E+00 0. -1.
<mgrwt>
<rscale>  0 0.57153708E+03</rscale>
<asrwt>0</asrwt>
<pdfrwt beam="1">  1        4 0.32049182E-01 0.57153708E+03</pdfrwt>
<pdfrwt beam="2">  1       -4 0.60309424E-01 0.57153708E+03</pdfrwt>
<totfact> 0.48214030E+01</totfact>
</mgrwt>
</event>
<event>
 6    1  0.2238133E-007  0.2692280E+04  0.7818608E-02  0.8337514E-01
          2   -1    0    0  501    0  0.00000000000E+00  0.00000000000E+00  0.28538549021E+04  0.28538549021E+04  0.00000000000E+00 0. -1.
         -2   -1    0    0    0  501 -0.00000000000E+00 -0.00000000000E+00 -0.63496330435E+03  0.63496330435E+03  0.00000000000E+00 0.  1.
         23    2    1    2    0    0 -0.11789271440E+04  0.32862712756E+03  0.18322359915E+04  0.22053200344E+04  0.92101714578E+02 0.  0.
         11    1    3    3    0    0 -0.68035319598E+03  0.23456061728E+03  0.10500718583E+04  0.12730082726E+04  0.00000000000E+00 0. -1.
        -11    1    3    3    0    0 -0.49857394800E+03  0.94066510282E+02  0.78216413319E+03  0.93231176182E+03  0.00000000000E+00 0.  1.
         22    1    1    2    0    0  0.11789271440E+04 -0.32862712756E+03  0.38665560626E+03  0.12834981720E+04  0.00000000000E+00 0. -1.
<mgrwt>
<rscale>  0 0.26922802E+04</rscale>
<asrwt>0</asrwt>
<pdfrwt beam="1">  1        2 0.43905460E+00 0.26922802E+04</pdfrwt>
<pdfrwt beam="2">  1       -2 0.97686663E-01 0.26922802E+04</pdfrwt>
<totfact> 0.16428050E+00</totfact>
</mgrwt>
</event>
<event>
 6    1  0.2238133E-007  0.2991729E+04  0.7818608E-02  0.8246097E-01
          2   -1    0    0  501    0  0.00000000000E+00  0.00000000000E+00  0.18458327810E+04  0.18458327810E+04  0.00000000000E+00 0. -1.
         -2   -1    0    0    0  501 -0.00000000000E+00 -0.00000000000E+00 -0.12122497010E+04  0.12122497010E+04  0.00000000000E+00 0.  1.
         23    2    1    2    0    0 -0.33830879654E+03 -0.11658641689E+04 -0.57385093716E+03  0.13458941139E+04  0.91836623278E+02 0.  0.
         11    1    3    3    0    0 -0.13444486343E+03 -0.45849906054E+03 -0.27579524556E+03  0.55168816128E+03  0.00000000000E+00 0. -1.
        -11    1    3    3    0    0 -0.20386393311E+03 -0.70736510840E+03 -0.29805569160E+03  0.79420595258E+03  0.00000000000E+00 0.  1.
         22    1    1    2    0    0  0.33830879654E+03  0.11658641689E+04  0.12074340171E+04  0.17121883681E+04  0.00000000000E+00 0. -1.
<mgrwt>
<rscale>  0 0.29917288E+04</rscale>
<asrwt>0</asrwt>
<pdfrwt beam="1">  1        2 0.28397428E+00 0.29917288E+04</pdfrwt>
<pdfrwt beam="2">  1       -2 0.18649995E+00 0.29917288E+04</pdfrwt>
<totfact> 0.11410133E+00</totfact>
</mgrwt>
</event>
<event>
 6    1  0.2238133E-007  0.2199498E+04  0.7818608E-02  0.8518637E-01
          2   -1    0    0  501    0  0.00000000000E+00  0.00000000000E+00  0.14806286337E+04  0.14806286337E+04  0.00000000000E+00 0. -1.
         -2   -1    0    0    0  501 -0.00000000000E+00 -0.00000000000E+00 -0.81684790380E+03  0.81684790380E+03  0.00000000000E+00 0.  1.
         23    2    1    2    0    0  0.10237675779E+04  0.10955808269E+03  0.73238376893E+03  0.12655805137E+04  0.72145856921E+02 0.  0.
         13    1    3    3    0    0  0.15117001022E+03  0.29114490358E+02  0.13773273602E+03  0.20656798423E+03  0.00000000000E+00 0. -1.
        -13    1    3    3    0    0  0.87259756764E+03  0.80443592327E+02  0.59465103291E+03  0.10590125295E+04  0.00000000000E+00 0.  1.
         22    1    1    2    0    0 -0.10237675779E+04 -0.10955808269E+03 -0.68603039057E+02  0.10318960238E+04  0.00000000000E+00 0.  1.
<mgrwt>
<rscale>  0 0.21994985E+04</rscale>
<asrwt>0</asrwt>
<pdfrwt beam="1">  1        2 0.22778902E+00 0.21994985E+04</pdfrwt>
<pdfrwt beam="2">  1       -2 0.12566891E+00 0.21994985E+04</pdfrwt>
<totfact> 0.56306736E+00</totfact>
</mgrwt>
</event>
<event>
 6    1  0.2238133E-007  0.2245858E+04  0.7818608E-02  0.8499580E-01
          2   -1    0    0  501    0  0.00000000000E+00  0.00000000000E+00  0.17508907143E+04  0.17508907143E+04  0.00000000000E+00 0. -1.
         -2   -1    0    0    0  501 -0.00000000000E+00 -0.00000000000E+00 -0.72018758338E+03  0.72018758338E+03  0.00000000000E+00 0.  1.
         23    2    1    2    0    0 -0.96994163573E+03  0.54289301026E+03  0.35596997579E+03  0.11707766296E+04  0.92106978418E+02 0.  0.
         13    1    3    3    0    0 -0.37473045789E+03  0.26157340806E+03  0.14332999596E+03  0.47894368314E+03  0.00000000000E+00 0. -1.
        -13    1    3    3    0    0 -0.59521117784E+03  0.28131960220E+03  0.21263997983E+03  0.69183294648E+03  0.00000000000E+00 0.  1.
         22    1    1    2    0    0  0.96994163573E+03 -0.54289301026E+03  0.67473315511E+03  0.13003016680E+04  0.00000000000E+00 0. -1.
<mgrwt>
<rscale>  0 0.22458582E+04</rscale>
<asrwt>0</asrwt>
<pdfrwt beam="1">  1        2 0.26936780E+00 0.22458582E+04</pdfrwt>
<pdfrwt beam="2">  1       -2 0.11079809E+00 0.22458582E+04</pdfrwt>
<totfact> 0.54020123E+00</totfact>
</mgrwt>
</event>
<event>
 6    1  0.2238133E-007  0.3615876E+04  0.7818608E-02  0.8086865E-01
         -2   -1    0    0    0  501 -0.00000000000E+00  0.00000000000E+00  0.15707182033E+04  0.15707182033E+04  0.00000000000E+00 0.  1.
          2   -1    0    0  501    0  0.00000000000E+00 -0.00000000000E+00 -0.20809836882E+04  0.20809836882E+04  0.00000000000E+00 0. -1.
         23    2    1    2    0    0 -0.21219430008E+03  0.79991023382E+03  0.13665644610E+04  0.16005135898E+04  0.96241996777E+02 0.  0.
         13    1    3    3    0    0 -0.23681722534E+00  0.12904622289E+03  0.19126510594E+03  0.23072781470E+03  0.00000000000E+00 0.  1.
        -13    1    3    3    0    0 -0.21195748285E+03  0.67086401093E+03  0.11752993550E+04  0.13697857751E+04  0.00000000000E+00 0. -1.
         22    1    1    2    0    0  0.21219430008E+03 -0.79991023382E+03 -0.18768299459E+04  0.20511883017E+04  0.00000000000E+00 0. -1.
<mgrwt>
<rscale>  0 0.36158755E+04</rscale>
<asrwt>0</asrwt>
<pdfrwt beam="1">  1        2 0.32015133E+00 0.36158755E+04</pdfrwt>
<pdfrwt beam="2">  1       -2 0.24164896E+00 0.36158755E+04</pdfrwt>
<totfact> 0.35465522E-01</totfact>
</mgrwt>
</event>
<event>
 6    1  0.2238133E-007  0.8653034E+03  0.7818608E-02  0.9470024E-01
          2   -1    0    0  501    0  0.00000000000E+00  0.00000000000E+00  0.66076338078E+03  0.66076338078E+03  0.00000000000E+00 0. -1.
         -2   -1    0    0    0  501 -0.00000000000E+00 -0.00000000000E+00 -0.28328977265E+03  0.28328977265E+03  0.00000000000E+00 0.  1.
         23    2    1    2    0    0 -0.19332202708E+03 -0.21552264324E+03  0.53460091524E+03  0.61464093972E+03  0.90343402140E+02 0.  0.
         13    1    3    3    0    0 -0.79483561200E+02 -0.29818622929E+02  0.13331232401E+03  0.15804734261E+03  0.00000000000E+00 0.  1.
        -13    1    3    3    0    0 -0.11383846588E+03 -0.18570402031E+03  0.40128859123E+03  0.45659359711E+03  0.00000000000E+00 0. -1.
         22    1    1    2    0    0  0.19332202708E+03  0.21552264324E+03 -0.15712730711E+03  0.32941221371E+03  0.00000000000E+00 0.  1.
<mgrwt>
<rscale>  0 0.86530343E+03</rscale>
<asrwt>0</asrwt>
<pdfrwt beam="1">  1        2 0.10165590E+00 0.86530343E+03</pdfrwt>
<pdfrwt beam="2">  1       -2 0.43583042E-01 0.86530343E+03</pdfrwt>
<totfact> 0.22083772E+02</totfact>
</mgrwt>
</event>
<event>
 6    1  0.2238133E-007  0.2011569E+04  0.7818608E-02  0.8601231E-01
          2   -1    0    0  501    0  0.00000000000E+00  0.00000000000E+00  0.35677918990E+04  0.35677918990E+04  0.00000000000E+00 0. -1.
         -2   -1    0    0    0  501 -0.00000000000E+00 -0.00000000000E+00 -0.28353734049E+03  0.28353734049E+03  0.00000000000E+00 0.  1.
         23    2    1    2    0    0  0.37003174351E+03 -0.84479496646E+03  0.88736384925E+03  0.12831222582E+04  0.91575662647E+02 0.  0.
         11    1    3    3    0    0  0.26839263997E+03 -0.69822863544E+03  0.70103094652E+03  0.10251839954E+04  0.00000000000E+00 0. -1.
        -11    1    3    3    0    0  0.10163910353E+03 -0.14656633102E+03  0.18633290273E+03  0.25793826276E+03  0.00000000000E+00 0.  1.
         22    1    1    2    0    0 -0.37003174351E+03  0.84479496646E+03  0.23968907093E+04  0.25682069813E+04  0.00000000000E+00 0. -1.
<mgrwt>
<rscale>  0 0.20115688E+04</rscale>
<asrwt>0</asrwt>
<pdfrwt beam="1">  1        2 0.54889103E+00 0.20115688E+04</pdfrwt>
<pdfrwt beam="2">  1       -2 0.43621132E-01 0.20115688E+04</pdfrwt>
<totfact> 0.33881970E+00</totfact>
</mgrwt>
</event>
<event>
 6    1  0.2238133E-007  0.2262724E+04  0.7818608E-02  0.8492765E-01
         -1   -1    0    0    0  501 -0.00000000000E+00  0.00000000000E+00  0.78701574715E+03  0.78701574715E+03  0.00000000000E+00 0.  1.
          1   -1    0    0  501    0  0.00000000000E+00 -0.00000000000E+00 -0.16263707791E+04  0.16263707791E+04  0.00000000000E+00 0. -1.
         23    2    1    2    0    0  0.66123190055E+03 -0.11470844389E+03  0.54875457982E+03  0.87155840753E+03  0.89982306355E+02 0.  0.
         13    1    3    3    0    0  0.14189154868E+03 -0.54292277687E+02  0.94268759969E+02  0.17879446890E+03  0.00000000000E+00 0. -1.
        -13    1    3    3    0    0  0.51934035187E+03 -0.60416166200E+02  0.45448581985E+03  0.69276393863E+03  0.00000000000E+00 0.  1.
         22    1    1    2    0    0 -0.66123190055E+03  0.11470844389E+03 -0.13881096118E+04  0.15418281187E+04  0.00000000000E+00 0. -1.
<mgrwt>
<rscale>  0 0.22627235E+04</rscale>
<asrwt>0</asrwt>
<pdfrwt beam="1">  1        1 0.25021089E+00 0.22627235E+04</pdfrwt>
<pdfrwt beam="2">  1       -1 0.12107935E+00 0.22627235E+04</pdfrwt>
<totfact> 0.29390985E+00</totfact>
</mgrwt>
</event>
<event>
 6    1  0.2238133E-007  0.1886677E+04  0.7818608E-02  0.8661517E-01
          2   -1    0    0  501    0  0.00000000000E+00  0.00000000000E+00  0.12592487037E+04  0.12592487037E+04  0.00000000000E+00 0. -1.
         -2   -1    0    0    0  501 -0.00000000000E+00 -0.00000000000E+00 -0.70668135436E+03  0.70668135436E+03  0.00000000000E+00 0.  1.
         23    2    1    2    0    0  0.40302402565E+03  0.36265951099E+03 -0.52462900748E+03  0.75998549992E+03  0.91608288054E+02 0.  0.
         13    1    3    3    0    0  0.20090273864E+03  0.13269794435E+03 -0.19243023951E+03  0.30822078435E+03  0.00000000000E+00 0.  1.
        -13    1    3    3    0    0  0.20212128701E+03  0.22996156664E+03 -0.33219876797E+03  0.45176471557E+03  0.00000000000E+00 0. -1.
         22    1    1    2    0    0 -0.40302402565E+03 -0.36265951099E+03  0.10771963568E+04  0.12059445581E+04  0.00000000000E+00 0. -1.
<mgrwt>
<rscale>  0 0.18866771E+04</rscale>
<asrwt>0</asrwt>
<pdfrwt beam="1">  1        2 0.19373057E+00 0.18866771E+04</pdfrwt>
<pdfrwt beam="2">  1       -2 0.10872021E+00 0.18866771E+04</pdfrwt>
<totfact> 0.11070697E+01</totfact>
</mgrwt>
</event>
<event>
 6    1  0.2238133E-007  0.3076083E+04  0.7818608E-02  0.8222332E-01
         -2   -1    0    0    0  501 -0.00000000000E+00  0.00000000000E+00  0.26028373091E+04  0.26028373091E+04  0.00000000000E+00 0.  1.
          2   -1    0    0  501    0  0.00000000000E+00 -0.00000000000E+00 -0.90884371392E+03  0.90884371392E+03  0.00000000000E+00 0. -1.
         23    2    1    2    0    0  0.15361906070E+04  0.38845655853E+02  0.83704973032E+03  0.17522085584E+04  0.90509751423E+02 0.  0.
         13    1    3    3    0    0  0.11307010826E+04  0.42350708348E+02  0.65824743843E+03  0.13090333116E+04  0.00000000000E+00 0.  1.
        -13    1    3    3    0    0  0.40548952441E+03 -0.35050524946E+01  0.17880229189E+03  0.44317524681E+03  0.00000000000E+00 0. -1.
         22    1    1    2    0    0 -0.15361906070E+04 -0.38845655853E+02  0.85694386482E+03  0.17594724646E+04  0.00000000000E+00 0. -1.
<mgrwt>
<rscale>  0 0.30760834E+04</rscale>
<asrwt>0</asrwt>
<pdfrwt beam="1">  1        2 0.13982211E+00 0.30760834E+04</pdfrwt>
<pdfrwt beam="2">  1       -2 0.40043651E+00 0.30760834E+04</pdfrwt>
<totfact> 0.18126742E-01</totfact>
</mgrwt>
</event>
<event>
 6    1  0.2238133E-007  0.9554220E+03  0.7818608E-02  0.9358835E-01
          2   -1    0    0  501    0  0.00000000000E+00  0.00000000000E+00  0.14432416157E+04  0.14432416157E+04  0.00000000000E+00 0. -1.
         -2   -1    0    0    0  501 -0.00000000000E+00 -0.00000000000E+00 -0.15812169186E+03  0.15812169186E+03  0.00000000000E+00 0.  1.
         23    2    1    2    0    0 -0.43407968463E+03 -0.13288159641E+03  0.87511685110E+03  0.98965650613E+03  0.86647595247E+02 0.  0.
         11    1    3    3    0    0 -0.33385165064E+03 -0.11296720015E+03  0.74540183739E+03  0.82452556790E+03  0.00000000000E+00 0.  1.
        -11    1    3    3    0    0 -0.10022803399E+03 -0.19914396256E+02  0.12971501372E+03  0.16513093822E+03  0.00000000000E+00 0. -1.
         22    1    1    2    0    0  0.43407968463E+03  0.13288159641E+03  0.41000307274E+03  0.61170680144E+03  0.00000000000E+00 0.  1.
<mgrwt>
<rscale>  0 0.95542201E+03</rscale>
<asrwt>0</asrwt>
<pdfrwt beam="1">  1        2 0.22203716E+00 0.95542201E+03</pdfrwt>
<pdfrwt beam="2">  1       -2 0.24326415E-01 0.95542201E+03</pdfrwt>
<totfact> 0.20597497E+02</totfact>
</mgrwt>
</event>
<event>
 6    1  0.2238133E-007  0.2487432E+04  0.7818608E-02  0.8407477E-01
          1   -1    0    0  501    0  0.00000000000E+00  0.00000000000E+00  0.22323616643E+04  0.22323616643E+04  0.00000000000E+00 0. -1.
         -1   -1    0    0    0  501 -0.00000000000E+00 -0.00000000000E+00 -0.69291162887E+03  0.69291162887E+03  0.00000000000E+00 0.  1.
         23    2    1    2    0    0 -0.38305228590E+03 -0.11811504660E+04  0.73816240511E+03  0.14474683861E+04  0.91845061357E+02 0.  0.
         11    1    3    3    0    0 -0.73476194649E+02 -0.31036441506E+03  0.22562385840E+03  0.39068010801E+03  0.00000000000E+00 0.  1.
        -11    1    3    3    0    0 -0.30957609125E+03 -0.87078605091E+03  0.51253854671E+03  0.10567882780E+04  0.00000000000E+00 0. -1.
         22    1    1    2    0    0  0.38305228590E+03  0.11811504660E+04  0.80128763033E+03  0.14778049071E+04  0.00000000000E+00 0. -1.
<mgrwt>
<rscale>  0 0.24874319E+04</rscale>
<asrwt>0</asrwt>
<pdfrwt beam="1">  1        1 0.34344025E+00 0.24874319E+04</pdfrwt>
<pdfrwt beam="2">  1       -1 0.10660179E+00 0.24874319E+04</pdfrwt>
<totfact> 0.15127522E+00</totfact>
</mgrwt>
</event>
<event>
 6    1  0.2238133E-007  0.9028323E+03  0.7818608E-02  0.9422048E-01
          2   -1    0    0  501    0  0.00000000000E+00  0.00000000000E+00  0.17717278258E+04  0.17717278258E+04  0.00000000000E+00 0. -1.
         -2   -1    0    0    0  501 -0.00000000000E+00 -0.00000000000E+00 -0.11501572102E+03  0.11501572102E+03  0.00000000000E+00 0.  1.
         23    2    1    2    0    0  0.10913707455E+03  0.36986976421E+03  0.36565663341E+03  0.53932424546E+03  0.91931086522E+02 0.  0.
         13    1    3    3    0    0  0.78038933307E+01  0.15977061763E+03  0.11558732358E+03  0.19735242684E+03  0.00000000000E+00 0.  1.
        -13    1    3    3    0    0  0.10133318122E+03  0.21009914658E+03  0.25006930983E+03  0.34197181862E+03  0.00000000000E+00 0. -1.
         22    1    1    2    0    0 -0.10913707455E+03 -0.36986976421E+03  0.12910554713E+04  0.13474193013E+04  0.00000000000E+00 0. -1.
<mgrwt>
<rscale>  0 0.90283233E+03</rscale>
<asrwt>0</asrwt>
<pdfrwt beam="1">  1        2 0.27257349E+00 0.90283233E+03</pdfrwt>
<pdfrwt beam="2">  1       -2 0.17694728E-01 0.90283233E+03</pdfrwt>
<totfact> 0.23808519E+02</totfact>
</mgrwt>
</event>
<event>
 6    1  0.2238133E-007  0.4330514E+04  0.7818608E-02  0.7941000E-01
          2   -1    0    0  501    0  0.00000000000E+00  0.00000000000E+00  0.16209088750E+04  0.16209088750E+04  0.00000000000E+00 0. -1.
         -2   -1    0    0    0  501 -0.00000000000E+00 -0.00000000000E+00 -0.28924134321E+04  0.28924134321E+04  0.00000000000E+00 0.  1.
         23    2    1    2    0    0  0.10916432010E+04  0.12905262155E+03 -0.25790842305E+04  0.28050764057E+04  0.91862486640E+02 0.  0.
         11    1    3    3    0    0  0.21757923782E+03 -0.10819481241E+02 -0.49946931274E+03  0.54491043326E+03  0.00000000000E+00 0. -1.
        -11    1    3    3    0    0  0.87406396315E+03  0.13987210279E+03 -0.20796149177E+04  0.22601659724E+04  0.00000000000E+00 0.  1.
         22    1    1    2    0    0 -0.10916432010E+04 -0.12905262155E+03  0.13075796734E+04  0.17082459014E+04  0.00000000000E+00 0. -1.
<mgrwt>
<rscale>  0 0.43305143E+04</rscale>
<asrwt>0</asrwt>
<pdfrwt beam="1">  1        2 0.24937060E+00 0.43305143E+04</pdfrwt>
<pdfrwt beam="2">  1       -2 0.44498668E+00 0.43305143E+04</pdfrwt>
<totfact> 0.31260440E-02</totfact>
</mgrwt>
</event>
<event>
 6    1  0.2238133E-007  0.2726578E+04  0.7818608E-02  0.8326433E-01
         -2   -1    0    0    0  501 -0.00000000000E+00  0.00000000000E+00  0.59995553681E+03  0.59995553681E+03  0.00000000000E+00 0.  1.
          2   -1    0    0  501    0  0.00000000000E+00 -0.00000000000E+00 -0.30978232832E+04  0.30978232832E+04  0.00000000000E+00 0. -1.
         23    2    1    2    0    0 -0.82275213715E+02 -0.45336511043E+03 -0.29883380943E+04  0.30248224348E+04  0.84125279319E+02 0.  0.
         11    1    3    3    0    0 -0.83514782496E+02 -0.29559137236E+03 -0.17936602959E+04  0.18197709294E+04  0.00000000000E+00 0.  1.
        -11    1    3    3    0    0  0.12395687808E+01 -0.15777373807E+03 -0.11946777983E+04  0.12050515054E+04  0.00000000000E+00 0. -1.
         22    1    1    2    0    0  0.82275213715E+02  0.45336511043E+03  0.49047034789E+03  0.67295638514E+03  0.00000000000E+00 0.  1.
<mgrwt>
<rscale>  0 0.27265775E+04</rscale>
<asrwt>0</asrwt>
<pdfrwt beam="1">  1        2 0.47658818E+00 0.27265775E+04</pdfrwt>
<pdfrwt beam="2">  1       -2 0.92300854E-01 0.27265775E+04</pdfrwt>
<totfact> 0.13169432E+00</totfact>
</mgrwt>
</event>
<event>
 6    1  0.2238133E-007  0.1855199E+04  0.7818608E-02  0.8677484E-01
         -2   -1    0    0    0  501 -0.00000000000E+00  0.00000000000E+00  0.79780987799E+03  0.79780987799E+03  0.00000000000E+00 0.  1.
          2   -1    0    0  501    0  0.00000000000E+00 -0.00000000000E+00 -0.10785035634E+04  0.10785035634E+04  0.00000000000E+00 0. -1.
         23    2    1    2    0    0 -0.28913093746E+03  0.62076167357E+03  0.48892383334E+03  0.84614215487E+03  0.89265206327E+02 0.  0.
         13    1    3    3    0    0 -0.12448641773E+03  0.35502836812E+03  0.29698820422E+03  0.47931618355E+03  0.00000000000E+00 0.  1.
        -13    1    3    3    0    0 -0.16464451974E+03  0.26573330545E+03  0.19193562912E+03  0.36682597132E+03  0.00000000000E+00 0. -1.
         22    1    1    2    0    0  0.28913093746E+03 -0.62076167357E+03 -0.76961751874E+03  0.10301712865E+04  0.00000000000E+00 0. -1.
<mgrwt>
<rscale>  0 0.18551990E+04</rscale>
<asrwt>0</asrwt>
<pdfrwt beam="1">  1        2 0.16592362E+00 0.18551990E+04</pdfrwt>
<pdfrwt beam="2">  1       -2 0.12273998E+00 0.18551990E+04</pdfrwt>
<totfact> 0.10599535E+01</totfact>
</mgrwt>
</event>
<event>
 6    1  0.2238133E-007  0.3098243E+04  0.7818608E-02  0.8216220E-01
         -2   -1    0    0    0  501 -0.00000000000E+00  0.00000000000E+00  0.19377811542E+04  0.19377811542E+04  0.00000000000E+00 0.  1.
          2   -1    0    0  501    0  0.00000000000E+00 -0.00000000000E+00 -0.12384146955E+04  0.12384146955E+04  0.00000000000E+00 0. -1.
         23    2    1    2    0    0  0.95659735252E+03 -0.83848839454E+03 -0.55398312566E+03  0.13904112985E+04  0.90581415191E+02 0.  0.
         13    1    3    3    0    0  0.44564601732E+03 -0.33122358639E+03 -0.24627328660E+03  0.60742075090E+03  0.00000000000E+00 0.  1.
        -13    1    3    3    0    0  0.51095133521E+03 -0.50726480815E+03 -0.30770983906E+03  0.78299054757E+03  0.00000000000E+00 0. -1.
         22    1    1    2    0    0 -0.95659735252E+03  0.83848839454E+03  0.12533495844E+04  0.17857845512E+04  0.00000000000E+00 0.  1.
<mgrwt>
<rscale>  0 0.30982425E+04</rscale>
<asrwt>0</asrwt>
<pdfrwt beam="1">  1        2 0.19052534E+00 0.30982425E+04</pdfrwt>
<pdfrwt beam="2">  1       -2 0.29812018E+00 0.30982425E+04</pdfrwt>
<totfact> 0.49793937E-01</totfact>
</mgrwt>
</event>
<event>
 6    1  0.2238133E-007  0.7264294E+03  0.7818608E-02  0.9673072E-01
         -2   -1    0    0    0  501 -0.00000000000E+00  0.00000000000E+00  0.34022216557E+03  0.34022216557E+03  0.00000000000E+00 0.  1.
          2   -1    0    0  501    0  0.00000000000E+00 -0.00000000000E+00 -0.38776108907E+03  0.38776108907E+03  0.00000000000E+00 0. -1.
         23    2    1    2    0    0  0.25093705390E+03  0.15211501095E+03 -0.22834122550E+03  0.38331260897E+03  0.93168982789E+02 0.  0.
         11    1    3    3    0    0  0.24758427494E+03  0.12689625517E+03 -0.18854720739E+03  0.33608136245E+03  0.00000000000E+00 0.  1.
        -11    1    3    3    0    0  0.33527789635E+01  0.25218755787E+02 -0.39794018117E+02  0.47231246523E+02  0.00000000000E+00 0. -1.
         22    1    1    2    0    0 -0.25093705390E+03 -0.15211501095E+03  0.18080230200E+03  0.34467064567E+03  0.00000000000E+00 0.  1.
<mgrwt>
<rscale>  0 0.72642940E+03</rscale>
<asrwt>0</asrwt>
<pdfrwt beam="1">  1        2 0.59655552E-01 0.72642940E+03</pdfrwt>
<pdfrwt beam="2">  1       -2 0.52341872E-01 0.72642940E+03</pdfrwt>
<totfact> 0.28627680E+02</totfact>
</mgrwt>
</event>
<event>
 6    1  0.2238133E-007  0.1261875E+04  0.7818608E-02  0.9060358E-01
         -2   -1    0    0    0  501 -0.00000000000E+00  0.00000000000E+00  0.24589222989E+03  0.24589222989E+03  0.00000000000E+00 0.  1.
          2   -1    0    0  501    0  0.00000000000E+00 -0.00000000000E+00 -0.16189282336E+04  0.16189282336E+04  0.00000000000E+00 0. -1.
         23    2    1    2    0    0 -0.24964488374E+03 -0.29365104381E+03  0.42509412262E+02  0.39774094002E+03  0.88528536242E+02 0.  0.
         11    1    3    3    0    0 -0.21208791212E+03 -0.19040827864E+03  0.20995900233E+02  0.28579262213E+03  0.00000000000E+00 0.  1.
        -11    1    3    3    0    0 -0.37556971627E+02 -0.10324276517E+03  0.21513512028E+02  0.11194831789E+03  0.00000000000E+00 0. -1.
         22    1    1    2    0    0  0.24964488374E+03  0.29365104381E+03 -0.14155454160E+04  0.14670795235E+04  0.00000000000E+00 0. -1.
<mgrwt>
<rscale>  0 0.12618746E+04</rscale>
<asrwt>0</asrwt>
<pdfrwt beam="1">  1        2 0.24906588E+00 0.12618746E+04</pdfrwt>
<pdfrwt beam="2">  1       -2 0.37829574E-01 0.12618746E+04</pdfrwt>
<totfact> 0.70502833E+01</totfact>
</mgrwt>
</event>
<event>
 6    1  0.2238133E-007  0.3187039E+04  0.7818608E-02  0.8192249E-01
          2   -1    0    0  501    0  0.00000000000E+00  0.00000000000E+00  0.19709398407E+04  0.19709398407E+04  0.00000000000E+00 0. -1.
         -2   -1    0    0    0  501 -0.00000000000E+00 -0.00000000000E+00 -0.12883722454E+04  0.12883722454E+04  0.00000000000E+00 0.  1.
         23    2    1    2    0    0 -0.11336586412E+04  0.87504395115E+03 -0.37006121401E+03  0.14819794663E+04  0.91836840303E+02 0.  0.
         13    1    3    3    0    0 -0.42807044260E+03  0.37700537852E+03 -0.17377988848E+03  0.59630261520E+03  0.00000000000E+00 0. -1.
        -13    1    3    3    0    0 -0.70558819856E+03  0.49803857262E+03 -0.19628132553E+03  0.88567685107E+03  0.00000000000E+00 0.  1.
         22    1    1    2    0    0  0.11336586412E+04 -0.87504395115E+03  0.10526288093E+04  0.17773326198E+04  0.00000000000E+00 0.  1.
<mgrwt>
<rscale>  0 0.31870389E+04</rscale>
<asrwt>0</asrwt>
<pdfrwt beam="1">  1        2 0.30322151E+00 0.31870389E+04</pdfrwt>
<pdfrwt beam="2">  1       -2 0.19821111E+00 0.31870389E+04</pdfrwt>
<totfact> 0.79891221E-01</totfact>
</mgrwt>
</event>
<event>
 6    1  0.2238133E-007  0.5137824E+03  0.7818608E-02  0.1010243E+00
          2   -1    0    0  501    0  0.00000000000E+00  0.00000000000E+00  0.33346791747E+03  0.33346791747E+03  0.00000000000E+00 0. -1.
         -2   -1    0    0    0  501 -0.00000000000E+00 -0.00000000000E+00 -0.19789937589E+03  0.19789937589E+03  0.00000000000E+00 0.  1.
         23    2    1    2    0    0 -0.55301591685E+02 -0.72339464710E+02  0.30944821463E+03  0.33508839766E+03  0.90745647335E+02 0.  0.
         11    1    3    3    0    0  0.22661828170E+02 -0.26158182293E+02  0.12316454763E+03  0.12793480664E+03  0.00000000000E+00 0. -1.
        -11    1    3    3    0    0 -0.77963419855E+02 -0.46181282417E+02  0.18628366699E+03  0.20715359101E+03  0.00000000000E+00 0.  1.
         22    1    1    2    0    0  0.55301591685E+02  0.72339464710E+02 -0.17387967305E+03  0.19627889570E+03  0.00000000000E+00 0.  1.
<mgrwt>
<rscale>  0 0.51378242E+03</rscale>
<asrwt>0</asrwt>
<pdfrwt beam="1">  1        2 0.51302757E-01 0.51378242E+03</pdfrwt>
<pdfrwt beam="2">  1       -2 0.30446058E-01 0.51378242E+03</pdfrwt>
<totfact> 0.97494208E+02</totfact>
</mgrwt>
</event>
<event>
 6    1  0.2238133E-007  0.8013922E+03  0.7818608E-02  0.9558004E-01
          2   -1    0    0  501    0  0.00000000000E+00  0.00000000000E+00  0.14647735976E+04  0.14647735976E+04  0.00000000000E+00 0. -1.
         -2   -1    0    0    0  501 -0.00000000000E+00 -0.00000000000E+00 -0.10961239867E+03  0.10961239867E+03  0.00000000000E+00 0.  1.
         23    2    1    2    0    0  0.57480331768E+02 -0.39096326594E+03  0.70640878797E+03  0.81475716942E+03  0.93057001534E+02 0.  0.
         13    1    3    3    0    0  0.75270635740E+02 -0.37293933488E+03  0.66808093275E+03  0.76881828075E+03  0.00000000000E+00 0. -1.
        -13    1    3    3    0    0 -0.17790303971E+02 -0.18023931064E+02  0.38327855222E+02  0.45938888671E+02  0.00000000000E+00 0.  1.
         22    1    1    2    0    0 -0.57480331768E+02  0.39096326594E+03  0.64875241099E+03  0.75962882688E+03  0.00000000000E+00 0. -1.
<mgrwt>
<rscale>  0 0.80139216E+03</rscale>
<asrwt>0</asrwt>
<pdfrwt beam="1">  1        2 0.22534977E+00 0.80139216E+03</pdfrwt>
<pdfrwt beam="2">  1       -2 0.16863447E-01 0.80139216E+03</pdfrwt>
<totfact> 0.38484845E+02</totfact>
</mgrwt>
</event>
<event>
 6    1  0.2238133E-007  0.5004840E+04  0.7818608E-02  0.7827761E-01
          2   -1    0    0  501    0  0.00000000000E+00  0.00000000000E+00  0.40481185731E+04  0.40481185731E+04  0.00000000000E+00 0. -1.
         -2   -1    0    0    0  501 -0.00000000000E+00 -0.00000000000E+00 -0.15469175653E+04  0.15469175653E+04  0.00000000000E+00 0.  1.
         23    2    1    2    0    0 -0.16419306469E+04 -0.83839669854E+03 -0.63931730973E+03  0.19533743507E+04  0.89996988172E+02 0.  0.
         11    1    3    3    0    0 -0.56162191199E+03 -0.24488592362E+03 -0.23360862579E+03  0.65571432626E+03  0.00000000000E+00 0. -1.
        -11    1    3    3    0    0 -0.10803087349E+04 -0.59351077491E+03 -0.40570868393E+03  0.12976600244E+04  0.00000000000E+00 0.  1.
         22    1    1    2    0    0  0.16419306469E+04  0.83839669854E+03  0.31405183176E+04  0.36416617878E+04  0.00000000000E+00 0. -1.
<mgrwt>
<rscale>  0 0.50048399E+04</rscale>
<asrwt>0</asrwt>
<pdfrwt beam="1">  1        2 0.62278747E+00 0.50048399E+04</pdfrwt>
<pdfrwt beam="2">  1       -2 0.23798732E+00 0.50048399E+04</pdfrwt>
<totfact> 0.17251769E-02</totfact>
</mgrwt>
</event>
<event>
 6    1  0.2238133E-007  0.1314197E+04  0.7818608E-02  0.9018382E-01
         -2   -1    0    0    0  501 -0.00000000000E+00  0.00000000000E+00  0.16896554743E+03  0.16896554743E+03  0.00000000000E+00 0.  1.
          2   -1    0    0  501    0  0.00000000000E+00 -0.00000000000E+00 -0.25554246936E+04  0.25554246936E+04  0.00000000000E+00 0. -1.
         23    2    1    2    0    0 -0.43665326173E+03 -0.48573408155E+03 -0.11312474239E+04  0.13094131611E+04  0.90765761489E+02 0.  0.
         11    1    3    3    0    0 -0.15189244741E+03 -0.13046208913E+03 -0.41357195192E+03  0.45949258068E+03  0.00000000000E+00 0. -1.
        -11    1    3    3    0    0 -0.28476081431E+03 -0.35527199242E+03 -0.71767547196E+03  0.84992058042E+03  0.00000000000E+00 0.  1.
         22    1    1    2    0    0  0.43665326173E+03  0.48573408155E+03 -0.12552117223E+04  0.14149770799E+04  0.00000000000E+00 0. -1.
<mgrwt>
<rscale>  0 0.13141974E+04</rscale>
<asrwt>0</asrwt>
<pdfrwt beam="1">  1        2 0.39314229E+00 0.13141974E+04</pdfrwt>
<pdfrwt beam="2">  1       -2 0.25994698E-01 0.13141974E+04</pdfrwt>
<totfact> 0.42507238E+01</totfact>
</mgrwt>
</event>
<event>
 6    1  0.2238133E-007  0.2355174E+04  0.7818608E-02  0.8456479E-01
          2   -1    0    0  501    0  0.00000000000E+00  0.00000000000E+00  0.16614472381E+04  0.16614472381E+04  0.00000000000E+00 0. -1.
         -2   -1    0    0    0  501 -0.00000000000E+00 -0.00000000000E+00 -0.83464066223E+03  0.83464066223E+03  0.00000000000E+00 0.  1.
         23    2    1    2    0    0  0.44598749546E+03  0.76269637593E+03  0.12364568020E+04  0.15222173156E+04  0.87803898553E+02 0.  0.
         13    1    3    3    0    0  0.26711811099E+03  0.51457425966E+03  0.85969430544E+03  0.10369248057E+04  0.00000000000E+00 0.  1.
        -13    1    3    3    0    0  0.17886938447E+03  0.24812211627E+03  0.37676249658E+03  0.48529250984E+03  0.00000000000E+00 0. -1.
         22    1    1    2    0    0 -0.44598749546E+03 -0.76269637593E+03 -0.40965022619E+03  0.97387058472E+03  0.00000000000E+00 0.  1.
<mgrwt>
<rscale>  0 0.23551742E+04</rscale>
<asrwt>0</asrwt>
<pdfrwt beam="1">  1        2 0.25560727E+00 0.23551742E+04</pdfrwt>
<pdfrwt beam="2">  1       -2 0.12840626E+00 0.23551742E+04</pdfrwt>
<totfact> 0.41676500E+00</totfact>
</mgrwt>
</event>
<event>
 6    1  0.2238133E-007  0.1008070E+04  0.7818608E-02  0.9299738E-01
         -1   -1    0    0    0  501 -0.00000000000E+00  0.00000000000E+00  0.19516422840E+03  0.19516422840E+03  0.00000000000E+00 0.  1.
          1   -1    0    0  501    0  0.00000000000E+00 -0.00000000000E+00 -0.13017303601E+04  0.13017303601E+04  0.00000000000E+00 0. -1.
         23    2    1    2    0    0  0.36572788466E+03 -0.21680829405E+03 -0.17002519578E+03  0.46836571353E+03  0.98463965145E+02 0.  0.
         11    1    3    3    0    0  0.11056721062E+03 -0.16175494499E+02 -0.39696373156E+02  0.11858565145E+03  0.00000000000E+00 0. -1.
        -11    1    3    3    0    0  0.25516067403E+03 -0.20063279955E+03 -0.13032882262E+03  0.34978006209E+03  0.00000000000E+00 0.  1.
         22    1    1    2    0    0 -0.36572788466E+03  0.21680829405E+03 -0.93654093597E+03  0.10285288750E+04  0.00000000000E+00 0. -1.
<mgrwt>
<rscale>  0 0.10080698E+04</rscale>
<asrwt>0</asrwt>
<pdfrwt beam="1">  1        1 0.20026620E+00 0.10080698E+04</pdfrwt>
<pdfrwt beam="2">  1       -1 0.30025267E-01 0.10080698E+04</pdfrwt>
<totfact> 0.92019445E+01</totfact>
</mgrwt>
</event>
<event>
 6    1  0.2238133E-007  0.3217063E+04  0.7818608E-02  0.8184325E-01
         -2   -1    0    0    0  501 -0.00000000000E+00  0.00000000000E+00  0.14508227504E+04  0.14508227504E+04  0.00000000000E+00 0.  1.
          2   -1    0    0  501    0  0.00000000000E+00 -0.00000000000E+00 -0.17833840508E+04  0.17833840508E+04  0.00000000000E+00 0. -1.
         23    2    1    2    0    0  0.14876016689E+04  0.15449792496E+03  0.42519598537E+03  0.15575958033E+04  0.92112575061E+02 0.  0.
         13    1    3    3    0    0  0.12465048828E+04  0.16322836393E+03  0.36066040326E+03  0.13078584970E+04  0.00000000000E+00 0.  1.
        -13    1    3    3    0    0  0.24109678612E+03 -0.87304389697E+01  0.64535582113E+02  0.24973730638E+03  0.00000000000E+00 0. -1.
         22    1    1    2    0    0 -0.14876016689E+04 -0.15449792496E+03 -0.75775728577E+03  0.16766109979E+04  0.00000000000E+00 0. -1.
<mgrwt>
<rscale>  0 0.32170634E+04</rscale>
<asrwt>0</asrwt>
<pdfrwt beam="1">  1        2 0.27436678E+00 0.32170634E+04</pdfrwt>
<pdfrwt beam="2">  1       -2 0.22320350E+00 0.32170634E+04</pdfrwt>
<totfact> 0.69919489E-01</totfact>
</mgrwt>
</event>
<event>
 6    1  0.2238133E-007  0.3479145E+04  0.7818608E-02  0.8118750E-01
         -2   -1    0    0    0  501 -0.00000000000E+00  0.00000000000E+00  0.22770832347E+04  0.22770832347E+04  0.00000000000E+00 0.  1.
          2   -1    0    0  501    0  0.00000000000E+00 -0.00000000000E+00 -0.13289425072E+04  0.13289425072E+04  0.00000000000E+00 0. -1.
         23    2    1    2    0    0  0.13421594967E+04  0.62551451434E+02 -0.66880513194E+03  0.15036892534E+04  0.92066648165E+02 0.  0.
         13    1    3    3    0    0  0.84874777701E+03  0.29551368711E+02 -0.37398137236E+03  0.92795912585E+03  0.00000000000E+00 0.  1.
        -13    1    3    3    0    0  0.49341171964E+03  0.33000082723E+02 -0.29482375958E+03  0.57573012754E+03  0.00000000000E+00 0. -1.
         22    1    1    2    0    0 -0.13421594967E+04 -0.62551451434E+02  0.16169458595E+04  0.21023364885E+04  0.00000000000E+00 0. -1.
<mgrwt>
<rscale>  0 0.34791451E+04</rscale>
<asrwt>0</asrwt>
<pdfrwt beam="1">  1        2 0.20445269E+00 0.34791451E+04</pdfrwt>
<pdfrwt beam="2">  1       -2 0.35032050E+00 0.34791451E+04</pdfrwt>
<totfact> 0.20261330E-01</totfact>
</mgrwt>
</event>
<event>
 6    1  0.2238133E-007  0.2358692E+04  0.7818608E-02  0.8455132E-01
         -2   -1    0    0    0  501 -0.00000000000E+00  0.00000000000E+00  0.44882077219E+03  0.44882077219E+03  0.00000000000E+00 0.  1.
          2   -1    0    0  501    0  0.00000000000E+00 -0.00000000000E+00 -0.30989148776E+04  0.30989148776E+04  0.00000000000E+00 0. -1.
         23    2    1    2    0    0 -0.68870436223E+03  0.92967325781E+03 -0.99720695767E+03  0.15301524451E+04  0.91316613160E+02 0.  0.
         13    1    3    3    0    0 -0.41082214203E+03  0.61362554632E+03 -0.60022368021E+03  0.95161946689E+03  0.00000000000E+00 0.  1.
        -13    1    3    3    0    0 -0.27788222020E+03  0.31604771149E+03 -0.39698327746E+03  0.57853297817E+03  0.00000000000E+00 0. -1.
         22    1    1    2    0    0  0.68870436223E+03 -0.92967325781E+03 -0.16528871477E+04  0.20175832047E+04  0.00000000000E+00 0. -1.
<mgrwt>
<rscale>  0 0.23586923E+04</rscale>
<asrwt>0</asrwt>
<pdfrwt beam="1">  1        2 0.47675614E+00 0.23586923E+04</pdfrwt>
<pdfrwt beam="2">  1       -2 0.69049350E-01 0.23586923E+04</pdfrwt>
<totfact> 0.26068798E+00</totfact>
</mgrwt>
</event>
<event>
 6    1  0.2238133E-007  0.2205398E+04  0.7818608E-02  0.8516185E-01
         -2   -1    0    0    0  501 -0.00000000000E+00  0.00000000000E+00  0.34329549671E+03  0.34329549671E+03  0.00000000000E+00 0.  1.
          2   -1    0    0  501    0  0.00000000000E+00 -0.00000000000E+00 -0.35419782602E+04  0.35419782602E+04  0.00000000000E+00 0. -1.
         23    2    1    2    0    0  0.88211216334E+03 -0.35846849137E+02 -0.44342559999E+03  0.99203182054E+03  0.89966687905E+02 0.  0.
         11    1    3    3    0    0  0.33688665765E+03 -0.10295776886E+02 -0.21854561305E+03  0.40169740864E+03  0.00000000000E+00 0.  1.
        -11    1    3    3    0    0  0.54522550569E+03 -0.25551072251E+02 -0.22487998694E+03  0.59033441190E+03  0.00000000000E+00 0. -1.
         22    1    1    2    0    0 -0.88211216334E+03  0.35846849137E+02 -0.27552571635E+04  0.28932419363E+04  0.00000000000E+00 0. -1.
<mgrwt>
<rscale>  0 0.22053981E+04</rscale>
<asrwt>0</asrwt>
<pdfrwt beam="1">  1        2 0.54491975E+00 0.22053981E+04</pdfrwt>
<pdfrwt beam="2">  1       -2 0.52814691E-01 0.22053981E+04</pdfrwt>
<totfact> 0.23551520E+00</totfact>
</mgrwt>
</event>
<event>
 6    1  0.2238133E-007  0.3296069E+04  0.7818608E-02  0.8163896E-01
         -2   -1    0    0    0  501 -0.00000000000E+00  0.00000000000E+00  0.16227873805E+04  0.16227873805E+04  0.00000000000E+00 0.  1.
          2   -1    0    0  501    0  0.00000000000E+00 -0.00000000000E+00 -0.16736748170E+04  0.16736748170E+04  0.00000000000E+00 0. -1.
         23    2    1    2    0    0  0.88766818798E+03 -0.11667536918E+04  0.72535686916E+03  0.16375998731E+04  0.79509542735E+02 0.  0.
         11    1    3    3    0    0  0.41585977843E+03 -0.60403980672E+03  0.38392361633E+03  0.82776855859E+03  0.00000000000E+00 0. -1.
        -11    1    3    3    0    0  0.47180840956E+03 -0.56271388513E+03  0.34143325284E+03  0.80983131452E+03  0.00000000000E+00 0.  1.
         22    1    1    2    0    0 -0.88766818798E+03  0.11667536918E+04 -0.77624430560E+03  0.16588623244E+04  0.00000000000E+00 0. -1.
<mgrwt>
<rscale>  0 0.32960694E+04</rscale>
<asrwt>0</asrwt>
<pdfrwt beam="1">  1        2 0.25748843E+00 0.32960694E+04</pdfrwt>
<pdfrwt beam="2">  1       -2 0.24965960E+00 0.32960694E+04</pdfrwt>
<totfact> 0.54726263E-01</totfact>
</mgrwt>
</event>
<event>
 6    1  0.2238133E-007  0.6637838E+04  0.7818608E-02  0.7615984E-01
         -2   -1    0    0    0  501 -0.00000000000E+00  0.00000000000E+00  0.46591870428E+04  0.46591870428E+04  0.00000000000E+00 0.  1.
          2   -1    0    0  501    0  0.00000000000E+00 -0.00000000000E+00 -0.23641940183E+04  0.23641940183E+04  0.00000000000E+00 0. -1.
         23    2    1    2    0    0 -0.13489692976E+04 -0.30128065084E+04  0.78975987590E+03  0.33953722333E+04  0.90059523461E+02 0.  0.
         11    1    3    3    0    0 -0.89986520141E+03 -0.20042238621E+04  0.56914954959E+03  0.22694937497E+04  0.00000000000E+00 0. -1.
        -11    1    3    3    0    0 -0.44910409616E+03 -0.10085826463E+04  0.22061032631E+03  0.11258784836E+04  0.00000000000E+00 0.  1.
         22    1    1    2    0    0  0.13489692976E+04  0.30128065084E+04  0.15052331486E+04  0.36280088278E+04  0.00000000000E+00 0.  1.
<mgrwt>
<rscale>  0 0.66378376E+04</rscale>
<asrwt>0</asrwt>
<pdfrwt beam="1">  1        2 0.36372216E+00 0.66378376E+04</pdfrwt>
<pdfrwt beam="2">  1       -2 0.71679801E+00 0.66378376E+04</pdfrwt>
<totfact> 0.53801773E-04</totfact>
</mgrwt>
</event>
<event>
 6    1  0.2238133E-007  0.9051293E+03  0.7818608E-02  0.9419192E-01
          2   -1    0    0  501    0  0.00000000000E+00  0.00000000000E+00  0.36158293548E+03  0.36158293548E+03  0.00000000000E+00 0. -1.
         -2   -1    0    0    0  501 -0.00000000000E+00 -0.00000000000E+00 -0.56643926056E+03  0.56643926056E+03  0.00000000000E+00 0.  1.
         23    2    1    2    0    0 -0.44038745860E+02  0.25906003086E+03  0.26841569803E+03  0.38669242725E+03  0.91828838685E+02 0.  0.
         11    1    3    3    0    0  0.13320383935E+02  0.17663586692E+03  0.15697477528E+03  0.23668278810E+03  0.00000000000E+00 0.  1.
        -11    1    3    3    0    0 -0.57359129794E+02  0.82424163941E+02  0.11144092275E+03  0.15000963914E+03  0.00000000000E+00 0. -1.
         22    1    1    2    0    0  0.44038745860E+02 -0.25906003086E+03 -0.47327202311E+03  0.54132976879E+03  0.00000000000E+00 0.  1.
<mgrwt>
<rscale>  0 0.90512932E+03</rscale>
<asrwt>0</asrwt>
<pdfrwt beam="1">  1        2 0.55628144E-01 0.90512932E+03</pdfrwt>
<pdfrwt beam="2">  1       -2 0.87144502E-01 0.90512932E+03</pdfrwt>
<totfact> 0.10176719E+02</totfact>
</mgrwt>
</event>
<event>
 6    1  0.2238133E-007  0.2085906E+04  0.7818608E-02  0.8567477E-01
         -2   -1    0    0    0  501 -0.00000000000E+00  0.00000000000E+00  0.54493919081E+03  0.54493919081E+03  0.00000000000E+00 0.  1.
          2   -1    0    0  501    0  0.00000000000E+00 -0.00000000000E+00 -0.19960962097E+04  0.19960962097E+04  0.00000000000E+00 0. -1.
         23    2    1    2    0    0 -0.74355848544E+03 -0.14044856256E+03  0.14385134619E+03  0.77562986504E+03  0.91123310645E+02 0.  0.
         11    1    3    3    0    0 -0.35382874699E+03 -0.11007755099E+03  0.86689662380E+02  0.38056135772E+03  0.00000000000E+00 0. -1.
        -11    1    3    3    0    0 -0.38972973845E+03 -0.30371011572E+02  0.57161683812E+02  0.39506850732E+03  0.00000000000E+00 0.  1.
         22    1    1    2    0    0  0.74355848544E+03  0.14044856256E+03 -0.15950083651E+04  0.17654055355E+04  0.00000000000E+00 0. -1.
<mgrwt>
<rscale>  0 0.20859061E+04</rscale>
<asrwt>0</asrwt>
<pdfrwt beam="1">  1        2 0.30709172E+00 0.20859061E+04</pdfrwt>
<pdfrwt beam="2">  1       -2 0.83836799E-01 0.20859061E+04</pdfrwt>
<totfact> 0.77016007E+00</totfact>
</mgrwt>
</event>
<event>
 6    1  0.2238133E-007  0.1136924E+04  0.7818608E-02  0.9169932E-01
          2   -1    0    0  501    0  0.00000000000E+00  0.00000000000E+00  0.66725966371E+03  0.66725966371E+03  0.00000000000E+00 0. -1.
         -2   -1    0    0    0  501 -0.00000000000E+00 -0.00000000000E+00 -0.48429319045E+03  0.48429319045E+03  0.00000000000E+00 0.  1.
         23    2    1    2    0    0  0.26277111915E+03  0.10245072741E+03  0.58772059159E+03  0.65822668528E+03  0.91115656367E+02 0.  0.
         11    1    3    3    0    0  0.76511533739E+02  0.65037222421E+01  0.24283811573E+03  0.25468934734E+03  0.00000000000E+00 0.  1.
        -11    1    3    3    0    0  0.18625958541E+03  0.95947005170E+02  0.34488247586E+03  0.40353733794E+03  0.00000000000E+00 0. -1.
         22    1    1    2    0    0 -0.26277111915E+03 -0.10245072741E+03 -0.40475411832E+03  0.49332616888E+03  0.00000000000E+00 0.  1.
<mgrwt>
<rscale>  0 0.11369245E+04</rscale>
<asrwt>0</asrwt>
<pdfrwt beam="1">  1        2 0.10265533E+00 0.11369245E+04</pdfrwt>
<pdfrwt beam="2">  1       -2 0.74506644E-01 0.11369245E+04</pdfrwt>
<totfact> 0.69900540E+01</totfact>
</mgrwt>
</event>
<event>
 6    1  0.2238133E-007  0.5248463E+04  0.7818608E-02  0.7791282E-01
          2   -1    0    0  501    0  0.00000000000E+00  0.00000000000E+00  0.34803575387E+04  0.34803575387E+04  0.00000000000E+00 0. -1.
         -2   -1    0    0    0  501 -0.00000000000E+00 -0.00000000000E+00 -0.19787022935E+04  0.19787022935E+04  0.00000000000E+00 0.  1.
         23    2    1    2    0    0 -0.99033040756E+03  0.32481439533E+03  0.32552368791E+04  0.34191315848E+04  0.87378186052E+02 0.  0.
         13    1    3    3    0    0 -0.42941646998E+03  0.17616057121E+03  0.15372047339E+04  0.16057488738E+04  0.00000000000E+00 0. -1.
        -13    1    3    3    0    0 -0.56091393759E+03  0.14865382412E+03  0.17180321452E+04  0.18133827110E+04  0.00000000000E+00 0.  1.
         22    1    1    2    0    0  0.99033040756E+03 -0.32481439533E+03 -0.17535816339E+04  0.20399282474E+04  0.00000000000E+00 0.  1.
<mgrwt>
<rscale>  0 0.52484632E+04</rscale>
<asrwt>0</asrwt>
<pdfrwt beam="1">  1        2 0.53543962E+00 0.52484632E+04</pdfrwt>
<pdfrwt beam="2">  1       -2 0.30441574E+00 0.52484632E+04</pdfrwt>
<totfact> 0.17852705E-02</totfact>
</mgrwt>
</event>
<event>
 6    1  0.2238133E-007  0.1771373E+04  0.7818608E-02  0.8721673E-01
         -1   -1    0    0    0  501 -0.00000000000E+00  0.00000000000E+00  0.94890688935E+03  0.94890688935E+03  0.00000000000E+00 0.  1.
          1   -1    0    0  501    0  0.00000000000E+00 -0.00000000000E+00 -0.82667847829E+03  0.82667847829E+03  0.00000000000E+00 0. -1.
         23    2    1    2    0    0 -0.17125282911E+02  0.31875774485E+03 -0.76438384811E+03  0.83325789095E+03  0.90201277007E+02 0.  0.
         11    1    3    3    0    0  0.10025637479E+02  0.60133316925E+02 -0.76231695208E+02  0.97610453157E+02  0.00000000000E+00 0.  1.
        -11    1    3    3    0    0 -0.27150920390E+02  0.25862442792E+03 -0.68815215290E+03  0.73564743780E+03  0.00000000000E+00 0. -1.
         22    1    1    2    0    0  0.17125282911E+02 -0.31875774485E+03  0.88661225916E+03  0.94232747668E+03  0.00000000000E+00 0.  1.
<mgrwt>
<rscale>  0 0.17713734E+04</rscale>
<asrwt>0</asrwt>
<pdfrwt beam="1">  1        1 0.12718130E+00 0.17713734E+04</pdfrwt>
<pdfrwt beam="2">  1       -1 0.14598568E+00 0.17713734E+04</pdfrwt>
<totfact> 0.74421774E+00</totfact>
</mgrwt>
</event>
<event>
 6    1  0.2238133E-007  0.5771230E+04  0.7818608E-02  0.7719432E-01
         -2   -1    0    0    0  501 -0.00000000000E+00  0.00000000000E+00  0.22522163308E+04  0.22522163308E+04  0.00000000000E+00 0.  1.
          2   -1    0    0  501    0  0.00000000000E+00 -0.00000000000E+00 -0.36971468004E+04  0.36971468004E+04  0.00000000000E+00 0. -1.
         23    2    1    2    0    0 -0.77017268432E+03 -0.38635434698E+03  0.21154623913E+04  0.22861906032E+04  0.95135168784E+02 0.  0.
         11    1    3    3    0    0 -0.24592283849E+03 -0.14141284481E+03  0.80972819114E+03  0.85798332075E+03  0.00000000000E+00 0. -1.
        -11    1    3    3    0    0 -0.52424984583E+03 -0.24494150216E+03  0.13057342001E+04  0.14282072825E+04  0.00000000000E+00 0.  1.
         22    1    1    2    0    0  0.77017268432E+03  0.38635434698E+03 -0.35603928609E+04  0.36631725279E+04  0.00000000000E+00 0. -1.
<mgrwt>
<rscale>  0 0.57712302E+04</rscale>
<asrwt>0</asrwt>
<pdfrwt beam="1">  1        2 0.56879181E+00 0.57712302E+04</pdfrwt>
<pdfrwt beam="2">  1       -2 0.34649482E+00 0.57712302E+04</pdfrwt>
<totfact> 0.65578814E-03</totfact>
</mgrwt>
</event>
<event>
 6    1  0.2238133E-007  0.3344908E+04  0.7818608E-02  0.8151562E-01
         -2   -1    0    0    0  501 -0.00000000000E+00  0.00000000000E+00  0.11465755996E+04  0.11465755996E+04  0.00000000000E+00 0.  1.
          2   -1    0    0  501    0  0.00000000000E+00 -0.00000000000E+00 -0.24395276340E+04  0.24395276340E+04  0.00000000000E+00 0. -1.
         23    2    1    2    0    0  0.11257304569E+04 -0.20482410650E+03 -0.19528420364E+04  0.22652410943E+04  0.92212905679E+02 0.  0.
         13    1    3    3    0    0  0.31751307539E+03 -0.91741525822E+02 -0.51445440003E+03  0.61146904282E+03  0.00000000000E+00 0. -1.
        -13    1    3    3    0    0  0.80821738153E+03 -0.11308258068E+03 -0.14383876364E+04  0.16537720515E+04  0.00000000000E+00 0.  1.
         22    1    1    2    0    0 -0.11257304569E+04  0.20482410650E+03  0.65989000202E+03  0.13208621393E+04  0.00000000000E+00 0.  1.
<mgrwt>
<rscale>  0 0.33449083E+04</rscale>
<asrwt>0</asrwt>
<pdfrwt beam="1">  1        2 0.37531194E+00 0.33449083E+04</pdfrwt>
<pdfrwt beam="2">  1       -2 0.17639625E+00 0.33449083E+04</pdfrwt>
<totfact> 0.60305950E-01</totfact>
</mgrwt>
</event>
<event>
 6    1  0.2238133E-007  0.2775131E+04  0.7818608E-02  0.8311031E-01
         -2   -1    0    0    0  501 -0.00000000000E+00  0.00000000000E+00  0.17767263348E+04  0.17767263348E+04  0.00000000000E+00 0.  1.
          2   -1    0    0  501    0  0.00000000000E+00 -0.00000000000E+00 -0.10836433509E+04  0.10836433509E+04  0.00000000000E+00 0. -1.
         23    2    1    2    0    0  0.92295334387E+03 -0.10074593782E+04  0.10623648604E+03  0.13733572158E+04  0.89479480821E+02 0.  0.
         13    1    3    3    0    0  0.48591393326E+03 -0.46617509500E+03  0.41326759510E+02  0.67464025286E+03  0.00000000000E+00 0.  1.
        -13    1    3    3    0    0  0.43703941061E+03 -0.54128428325E+03  0.64909726530E+02  0.69871696295E+03  0.00000000000E+00 0. -1.
         22    1    1    2    0    0 -0.92295334387E+03  0.10074593782E+04  0.58684649783E+03  0.14870124700E+04  0.00000000000E+00 0. -1.
<mgrwt>
<rscale>  0 0.27751308E+04</rscale>
<asrwt>0</asrwt>
<pdfrwt beam="1">  1        2 0.16671436E+00 0.27751308E+04</pdfrwt>
<pdfrwt beam="2">  1       -2 0.27334251E+00 0.27751308E+04</pdfrwt>
<totfact> 0.89912543E-01</totfact>
</mgrwt>
</event>
<event>
 6    1  0.2238133E-007  0.3833473E+04  0.7818608E-02  0.8039010E-01
         -2   -1    0    0    0  501 -0.00000000000E+00  0.00000000000E+00  0.20963029238E+04  0.20963029238E+04  0.00000000000E+00 0.  1.
          2   -1    0    0  501    0  0.00000000000E+00 -0.00000000000E+00 -0.17525512315E+04  0.17525512315E+04  0.00000000000E+00 0. -1.
         23    2    1    2    0    0 -0.21291018152E+03 -0.34886759216E+03 -0.17070767560E+04  0.17576973781E+04  0.91376582327E+02 0.  0.
         11    1    3    3    0    0 -0.75529179943E+02 -0.52308414085E+02 -0.38951912941E+03  0.40020742045E+03  0.00000000000E+00 0.  1.
        -11    1    3    3    0    0 -0.13738100158E+03 -0.29655917808E+03 -0.13175576266E+04  0.13574899576E+04  0.00000000000E+00 0. -1.
         22    1    1    2    0    0  0.21291018152E+03  0.34886759216E+03  0.20508284483E+04  0.20911567772E+04  0.00000000000E+00 0.  1.
<mgrwt>
<rscale>  0 0.38334727E+04</rscale>
<asrwt>0</asrwt>
<pdfrwt beam="1">  1        2 0.26962327E+00 0.38334727E+04</pdfrwt>
<pdfrwt beam="2">  1       -2 0.32250814E+00 0.38334727E+04</pdfrwt>
<totfact> 0.16936103E-01</totfact>
</mgrwt>
</event>
<event>
 6    1  0.2238133E-007  0.6788488E+04  0.7818608E-02  0.7599651E-01
          2   -1    0    0  501    0  0.00000000000E+00  0.00000000000E+00  0.31535459972E+04  0.31535459972E+04  0.00000000000E+00 0. -1.
         -2   -1    0    0    0  501 -0.00000000000E+00 -0.00000000000E+00 -0.36533134623E+04  0.36533134623E+04  0.00000000000E+00 0.  1.
         23    2    1    2    0    0 -0.36010942742E+03 -0.79832407938E+03 -0.35374586420E+04  0.36454408189E+04  0.92870794870E+02 0.  0.
         13    1    3    3    0    0 -0.64791090310E+02 -0.14379616525E+03 -0.79792415403E+03  0.81336226745E+03  0.00000000000E+00 0.  1.
        -13    1    3    3    0    0 -0.29531833711E+03 -0.65452791413E+03 -0.27395344880E+04  0.28320785514E+04  0.00000000000E+00 0. -1.
         22    1    1    2    0    0  0.36010942742E+03  0.79832407938E+03  0.30376911769E+04  0.31614186407E+04  0.00000000000E+00 0. -1.
<mgrwt>
<rscale>  0 0.67884879E+04</rscale>
<asrwt>0</asrwt>
<pdfrwt beam="1">  1        2 0.48516092E+00 0.67884879E+04</pdfrwt>
<pdfrwt beam="2">  1       -2 0.56204823E+00 0.67884879E+04</pdfrwt>
<totfact> 0.67061530E-04</totfact>
</mgrwt>
</event>
<event>
 6    1  0.2238133E-007  0.2004840E+04  0.7818608E-02  0.8604361E-01
          1   -1    0    0  501    0  0.00000000000E+00  0.00000000000E+00  0.12818971998E+04  0.12818971998E+04  0.00000000000E+00 0. -1.
         -1   -1    0    0    0  501 -0.00000000000E+00 -0.00000000000E+00 -0.78387401015E+03  0.78387401015E+03  0.00000000000E+00 0.  1.
         23    2    1    2    0    0  0.33662092651E+03 -0.54737404846E+03 -0.54034101447E+03  0.84465196209E+03  0.92393333397E+02 0.  0.
         13    1    3    3    0    0  0.11494376354E+03 -0.18641498052E+03 -0.12885488098E+03  0.25409878806E+03  0.00000000000E+00 0. -1.
        -13    1    3    3    0    0  0.22167716296E+03 -0.36095906794E+03 -0.41148613348E+03  0.59055317403E+03  0.00000000000E+00 0.  1.
         22    1    1    2    0    0 -0.33662092651E+03  0.54737404846E+03  0.10383642041E+04  0.12211192478E+04  0.00000000000E+00 0. -1.
<mgrwt>
<rscale>  0 0.20048400E+04</rscale>
<asrwt>0</asrwt>
<pdfrwt beam="1">  1        1 0.19721495E+00 0.20048400E+04</pdfrwt>
<pdfrwt beam="2">  1       -1 0.12059600E+00 0.20048400E+04</pdfrwt>
<totfact> 0.52858532E+00</totfact>
</mgrwt>
</event>
<event>
 6    1  0.2238133E-007  0.2337656E+04  0.7818608E-02  0.8463220E-01
         -2   -1    0    0    0  501 -0.00000000000E+00  0.00000000000E+00  0.24513340417E+04  0.24513340417E+04  0.00000000000E+00 0.  1.
          2   -1    0    0  501    0  0.00000000000E+00 -0.00000000000E+00 -0.55731252459E+03  0.55731252459E+03  0.00000000000E+00 0. -1.
         23    2    1    2    0    0  0.15704130475E+03 -0.89320764483E+03  0.30690535389E+01  0.91146200414E+03  0.90948874233E+02 0.  0.
         13    1    3    3    0    0  0.52904038291E+02 -0.19912722819E+03  0.34527535283E+02  0.20890821182E+03  0.00000000000E+00 0.  1.
        -13    1    3    3    0    0  0.10413726646E+03 -0.69408041664E+03 -0.31458481744E+02  0.70255379232E+03  0.00000000000E+00 0. -1.
         22    1    1    2    0    0 -0.15704130475E+03  0.89320764483E+03  0.18909524635E+04  0.20971845621E+04  0.00000000000E+00 0.  1.
<mgrwt>
<rscale>  0 0.23376562E+04</rscale>
<asrwt>0</asrwt>
<pdfrwt beam="1">  1        2 0.85740389E-01 0.23376562E+04</pdfrwt>
<pdfrwt beam="2">  1       -2 0.37712831E+00 0.23376562E+04</pdfrwt>
<totfact> 0.51232439E-01</totfact>
</mgrwt>
</event>
<event>
 6    1  0.2238133E-007  0.2407508E+04  0.7818608E-02  0.8436698E-01
         -2   -1    0    0    0  501 -0.00000000000E+00  0.00000000000E+00  0.15039898330E+04  0.15039898330E+04  0.00000000000E+00 0.  1.
          2   -1    0    0  501    0  0.00000000000E+00 -0.00000000000E+00 -0.96345350971E+03  0.96345350971E+03  0.00000000000E+00 0. -1.
         23    2    1    2    0    0 -0.11158421977E+04  0.41332132238E+03  0.44369903582E+03  0.12735774432E+04  0.95876710972E+02 0.  0.
         11    1    3    3    0    0 -0.41580240681E+03  0.16480952717E+03  0.11873195485E+03  0.46276462576E+03  0.00000000000E+00 0. -1.
        -11    1    3    3    0    0 -0.70003979091E+03  0.24851179522E+03  0.32496708096E+03  0.81081281745E+03  0.00000000000E+00 0.  1.
         22    1    1    2    0    0  0.11158421977E+04 -0.41332132238E+03  0.96837287475E+02  0.11938658995E+04  0.00000000000E+00 0. -1.
<mgrwt>
<rscale>  0 0.24075085E+04</rscale>
<asrwt>0</asrwt>
<pdfrwt beam="1">  1        2 0.14822362E+00 0.24075085E+04</pdfrwt>
<pdfrwt beam="2">  1       -2 0.23138305E+00 0.24075085E+04</pdfrwt>
<totfact> 0.20033153E+00</totfact>
</mgrwt>
</event>
<event>
 6    1  0.2238133E-007  0.2626255E+04  0.7818608E-02  0.8359337E-01
         -2   -1    0    0    0  501 -0.00000000000E+00  0.00000000000E+00  0.63676883678E+03  0.63676883678E+03  0.00000000000E+00 0.  1.
          2   -1    0    0  501    0  0.00000000000E+00 -0.00000000000E+00 -0.27078967195E+04  0.27078967195E+04  0.00000000000E+00 0. -1.
         23    2    1    2    0    0  0.81300696545E+03 -0.74077495174E+03 -0.12699794016E+03  0.11109759878E+04  0.91713213709E+02 0.  0.
         11    1    3    3    0    0  0.48836297485E+03 -0.38836285592E+03 -0.53950803052E+02  0.62628650968E+03  0.00000000000E+00 0. -1.
        -11    1    3    3    0    0  0.32464399060E+03 -0.35241209582E+03 -0.73047137107E+02  0.48468947807E+03  0.00000000000E+00 0.  1.
         22    1    1    2    0    0 -0.81300696545E+03  0.74077495174E+03 -0.19441299425E+04  0.22336895685E+04  0.00000000000E+00 0. -1.
<mgrwt>
<rscale>  0 0.26262553E+04</rscale>
<asrwt>0</asrwt>
<pdfrwt beam="1">  1        2 0.41659950E+00 0.26262553E+04</pdfrwt>
<pdfrwt beam="2">  1       -2 0.97964436E-01 0.26262553E+04</pdfrwt>
<totfact> 0.20100446E+00</totfact>
</mgrwt>
</event>
<event>
 6    1  0.2238133E-007  0.1364044E+04  0.7818608E-02  0.8980265E-01
          2   -1    0    0  501    0  0.00000000000E+00  0.00000000000E+00  0.15256491939E+04  0.15256491939E+04  0.00000000000E+00 0. -1.
         -2   -1    0    0    0  501 -0.00000000000E+00 -0.00000000000E+00 -0.30488904699E+03  0.30488904699E+03  0.00000000000E+00 0.  1.
         23    2    1    2    0    0  0.66387123671E+03 -0.12189079373E+03  0.51495142442E+03  0.85393784295E+03  0.91937400330E+02 0.  0.
         13    1    3    3    0    0  0.37954848486E+03 -0.11295165098E+03  0.31920076693E+03  0.50862978426E+03  0.00000000000E+00 0.  1.
        -13    1    3    3    0    0  0.28432275185E+03 -0.89391427475E+01  0.19575065749E+03  0.34530805869E+03  0.00000000000E+00 0. -1.
         22    1    1    2    0    0 -0.66387123671E+03  0.12189079373E+03  0.70580872249E+03  0.97660039795E+03  0.00000000000E+00 0. -1.
<mgrwt>
<rscale>  0 0.13640436E+04</rscale>
<asrwt>0</asrwt>
<pdfrwt beam="1">  1        2 0.23471526E+00 0.13640436E+04</pdfrwt>
<pdfrwt beam="2">  1       -2 0.46906008E-01 0.13640436E+04</pdfrwt>
<totfact> 0.51603416E+01</totfact>
</mgrwt>
</event>
<event>
 6    1  0.2238133E-007  0.1074620E+04  0.7818608E-02  0.9230288E-01
          2   -1    0    0  501    0  0.00000000000E+00  0.00000000000E+00  0.25861653897E+04  0.25861653897E+04  0.00000000000E+00 0. -1.
         -2   -1    0    0    0  501 -0.00000000000E+00 -0.00000000000E+00 -0.11163318115E+03  0.11163318115E+03  0.00000000000E+00 0.  1.
         23    2    1    2    0    0 -0.45551313199E+03  0.17505006597E+03  0.17965028445E+04  0.18624192812E+04  0.55212043983E+02 0.  0.
         13    1    3    3    0    0 -0.32892625275E+03  0.10183155989E+03  0.12202740581E+04  0.12679238634E+04  0.00000000000E+00 0. -1.
        -13    1    3    3    0    0 -0.12658687924E+03  0.73218506079E+02  0.57622878636E+03  0.59449541786E+03  0.00000000000E+00 0.  1.
         22    1    1    2    0    0  0.45551313199E+03 -0.17505006597E+03  0.67802936403E+03  0.83537928960E+03  0.00000000000E+00 0.  1.
<mgrwt>
<rscale>  0 0.10746197E+04</rscale>
<asrwt>0</asrwt>
<pdfrwt beam="1">  1        2 0.39787155E+00 0.10746197E+04</pdfrwt>
<pdfrwt beam="2">  1       -2 0.17174338E-01 0.10746197E+04</pdfrwt>
<totfact> 0.86871140E+01</totfact>
</mgrwt>
</event>
<event>
 6    1  0.2238133E-007  0.2805389E+04  0.7818608E-02  0.8301597E-01
          2   -1    0    0  501    0  0.00000000000E+00  0.00000000000E+00  0.56660163598E+03  0.56660163598E+03  0.00000000000E+00 0. -1.
         -2   -1    0    0    0  501 -0.00000000000E+00 -0.00000000000E+00 -0.34725478457E+04  0.34725478457E+04  0.00000000000E+00 0.  1.
         23    2    1    2    0    0 -0.11373671424E+03 -0.13736084694E+04 -0.18178533929E+04  0.22831078406E+04  0.90852551510E+02 0.  0.
         11    1    3    3    0    0 -0.70761228075E+02 -0.11462186239E+04 -0.15512414953E+04  0.19300711029E+04  0.00000000000E+00 0.  1.
        -11    1    3    3    0    0 -0.42975486163E+02 -0.22738984551E+03 -0.26661189760E+03  0.35303673774E+03  0.00000000000E+00 0. -1.
         22    1    1    2    0    0  0.11373671424E+03  0.13736084694E+04 -0.10880928168E+04  0.17560416411E+04  0.00000000000E+00 0. -1.
<mgrwt>
<rscale>  0 0.28053886E+04</rscale>
<asrwt>0</asrwt>
<pdfrwt beam="1">  1        2 0.87169482E-01 0.28053886E+04</pdfrwt>
<pdfrwt beam="2">  1       -2 0.53423813E+00 0.28053886E+04</pdfrwt>
<totfact> 0.47560861E-02</totfact>
</mgrwt>
</event>
<event>
 6    1  0.2238133E-007  0.2656253E+04  0.7818608E-02  0.8349341E-01
          2   -1    0    0  501    0  0.00000000000E+00  0.00000000000E+00  0.22319318520E+04  0.22319318520E+04  0.00000000000E+00 0. -1.
         -2   -1    0    0    0  501 -0.00000000000E+00 -0.00000000000E+00 -0.79031076857E+03  0.79031076857E+03  0.00000000000E+00 0.  1.
         23    2    1    2    0    0  0.40572592177E+02  0.12886228623E+04  0.36671819119E+03  0.13436684506E+04  0.93635768095E+02 0.  0.
         13    1    3    3    0    0  0.26475705496E+02  0.10128927078E+04  0.32722994428E+03  0.10647685368E+04  0.00000000000E+00 0. -1.
        -13    1    3    3    0    0  0.14096886682E+02  0.27573015447E+03  0.39488246912E+02  0.27889991384E+03  0.00000000000E+00 0.  1.
         22    1    1    2    0    0 -0.40572592177E+02 -0.12886228623E+04  0.10749028923E+04  0.16785741700E+04  0.00000000000E+00 0. -1.
<mgrwt>
<rscale>  0 0.26562528E+04</rscale>
<asrwt>0</asrwt>
<pdfrwt beam="1">  1        2 0.34337413E+00 0.26562528E+04</pdfrwt>
<pdfrwt beam="2">  1       -2 0.12158627E+00 0.26562528E+04</pdfrwt>
<totfact> 0.22414091E+00</totfact>
</mgrwt>
</event>
<event>
 6    1  0.2238133E-007  0.2318714E+04  0.7818608E-02  0.8470579E-01
         -2   -1    0    0    0  501 -0.00000000000E+00  0.00000000000E+00  0.11116516004E+04  0.11116516004E+04  0.00000000000E+00 0.  1.
          2   -1    0    0  501    0  0.00000000000E+00 -0.00000000000E+00 -0.12091094686E+04  0.12091094686E+04  0.00000000000E+00 0. -1.
         23    2    1    2    0    0  0.10451597975E+04 -0.98086752099E+02  0.43933639262E+03  0.11417241350E+04  0.92398709116E+02 0.  0.
         11    1    3    3    0    0  0.41858672988E+03 -0.83208605793E+02  0.19101500292E+03  0.46757379509E+03  0.00000000000E+00 0. -1.
        -11    1    3    3    0    0  0.62657306758E+03 -0.14878146306E+02  0.24832138970E+03  0.67415033994E+03  0.00000000000E+00 0.  1.
         22    1    1    2    0    0 -0.10451597975E+04  0.98086752099E+02 -0.53679426086E+03  0.11790369340E+04  0.00000000000E+00 0. -1.
<mgrwt>
<rscale>  0 0.23187138E+04</rscale>
<asrwt>0</asrwt>
<pdfrwt beam="1">  1        2 0.18601684E+00 0.23187138E+04</pdfrwt>
<pdfrwt beam="2">  1       -2 0.17102332E+00 0.23187138E+04</pdfrwt>
<totfact> 0.35489731E+00</totfact>
</mgrwt>
</event>
<event>
 6    1  0.2238133E-007  0.4038695E+04  0.7818608E-02  0.7996786E-01
         -2   -1    0    0    0  501 -0.00000000000E+00  0.00000000000E+00  0.21957359450E+04  0.21957359450E+04  0.00000000000E+00 0.  1.
          2   -1    0    0  501    0  0.00000000000E+00 -0.00000000000E+00 -0.18571288154E+04  0.18571288154E+04  0.00000000000E+00 0. -1.
         23    2    1    2    0    0 -0.56748284517E+03  0.17789102514E+04 -0.59945081412E+03  0.19632448983E+04  0.91819333517E+02 0.  0.
         11    1    3    3    0    0 -0.30694784753E+03  0.81167896391E+03 -0.27611663810E+03  0.91064818640E+03  0.00000000000E+00 0.  1.
        -11    1    3    3    0    0 -0.26053499764E+03  0.96723128753E+03 -0.32333417602E+03  0.10525967119E+04  0.00000000000E+00 0. -1.
         22    1    1    2    0    0  0.56748284517E+03 -0.17789102514E+04  0.93805794365E+03  0.20896198621E+04  0.00000000000E+00 0.  1.
<mgrwt>
<rscale>  0 0.40386951E+04</rscale>
<asrwt>0</asrwt>
<pdfrwt beam="1">  1        2 0.28571213E+00 0.40386951E+04</pdfrwt>
<pdfrwt beam="2">  1       -2 0.33780553E+00 0.40386951E+04</pdfrwt>
<totfact> 0.11704912E-01</totfact>
</mgrwt>
</event>
<event>
 6    1  0.2238133E-007  0.9582871E+03  0.7818608E-02  0.9355516E-01
         -2   -1    0    0    0  501 -0.00000000000E+00  0.00000000000E+00  0.16866387870E+03  0.16866387870E+03  0.00000000000E+00 0.  1.
          2   -1    0    0  501    0  0.00000000000E+00 -0.00000000000E+00 -0.13611599976E+04  0.13611599976E+04  0.00000000000E+00 0. -1.
         23    2    1    2    0    0  0.15536370847E+03 -0.36247836203E+03 -0.18123876399E+03  0.44438853382E+03  0.95421352787E+02 0.  0.
         13    1    3    3    0    0  0.76714399769E+02 -0.11759776202E+03 -0.10747366537E+03  0.17681889467E+03  0.00000000000E+00 0.  1.
        -13    1    3    3    0    0  0.78649308698E+02 -0.24488060001E+03 -0.73765098619E+02  0.26756963915E+03  0.00000000000E+00 0. -1.
         22    1    1    2    0    0 -0.15536370847E+03  0.36247836203E+03 -0.10112573549E+04  0.10854353425E+04  0.00000000000E+00 0.  1.
<mgrwt>
<rscale>  0 0.95828706E+03</rscale>
<asrwt>0</asrwt>
<pdfrwt beam="1">  1        2 0.20940922E+00 0.95828706E+03</pdfrwt>
<pdfrwt beam="2">  1       -2 0.25948290E-01 0.95828706E+03</pdfrwt>
<totfact> 0.20403421E+02</totfact>
</mgrwt>
</event>
<event>
 6    1  0.2238133E-007  0.5725813E+03  0.7818608E-02  0.9963983E-01
         -2   -1    0    0    0  501 -0.00000000000E+00  0.00000000000E+00  0.15759104282E+03  0.15759104282E+03  0.00000000000E+00 0.  1.
          2   -1    0    0  501    0  0.00000000000E+00 -0.00000000000E+00 -0.52009510229E+03  0.52009510229E+03  0.00000000000E+00 0. -1.
         23    2    1    2    0    0 -0.77506998511E+02  0.26543353260E+03 -0.13994502129E+03  0.32272865395E+03  0.90038214402E+02 0.  0.
         13    1    3    3    0    0  0.40377721125E+01  0.14646080361E+03 -0.73665471347E+02  0.16399290310E+03  0.00000000000E+00 0.  1.
        -13    1    3    3    0    0 -0.81544770624E+02  0.11897272899E+03 -0.66279549938E+02  0.15873575086E+03  0.00000000000E+00 0. -1.
         22    1    1    2    0    0  0.77506998511E+02 -0.26543353260E+03 -0.22255903819E+03  0.35495749115E+03  0.00000000000E+00 0. -1.
<mgrwt>
<rscale>  0 0.57258128E+03</rscale>
<asrwt>0</asrwt>
<pdfrwt beam="1">  1        2 0.80014632E-01 0.57258128E+03</pdfrwt>
<pdfrwt beam="2">  1       -2 0.24244776E-01 0.57258128E+03</pdfrwt>
<totfact> 0.89443686E+02</totfact>
</mgrwt>
</event>
<event>
 6    1  0.2238133E-007  0.4301104E+04  0.7818608E-02  0.7946414E-01
         -2   -1    0    0    0  501 -0.00000000000E+00  0.00000000000E+00  0.18037802933E+04  0.18037802933E+04  0.00000000000E+00 0.  1.
          2   -1    0    0  501    0  0.00000000000E+00 -0.00000000000E+00 -0.25639897103E+04  0.25639897103E+04  0.00000000000E+00 0. -1.
         23    2    1    2    0    0  0.53715529436E+03  0.69383917405E+03 -0.23729792976E+04  0.25317484086E+04  0.93651736258E+02 0.  0.
         11    1    3    3    0    0  0.37876354138E+03  0.45707096315E+03 -0.17121747441E+04  0.18121583926E+04  0.00000000000E+00 0. -1.
        -11    1    3    3    0    0  0.15839175298E+03  0.23676821090E+03 -0.66080455349E+03  0.71959001592E+03  0.00000000000E+00 0.  1.
         22    1    1    2    0    0 -0.53715529436E+03 -0.69383917405E+03  0.16127698806E+04  0.18360215951E+04  0.00000000000E+00 0.  1.
<mgrwt>
<rscale>  0 0.43011041E+04</rscale>
<asrwt>0</asrwt>
<pdfrwt beam="1">  1        2 0.39445995E+00 0.43011041E+04</pdfrwt>
<pdfrwt beam="2">  1       -2 0.27750466E+00 0.43011041E+04</pdfrwt>
<totfact> 0.10728567E-01</totfact>
</mgrwt>
</event>
<event>
 6    1  0.2238133E-007  0.2442840E+04  0.7818608E-02  0.8423637E-01
         -2   -1    0    0    0  501 -0.00000000000E+00  0.00000000000E+00  0.16343577177E+04  0.16343577177E+04  0.00000000000E+00 0.  1.
          2   -1    0    0  501    0  0.00000000000E+00 -0.00000000000E+00 -0.91281542691E+03  0.91281542691E+03  0.00000000000E+00 0. -1.
         23    2    1    2    0    0  0.11209246459E+04 -0.10390564711E+03 -0.12836239257E+03  0.11366390557E+04  0.90570381044E+02 0.  0.
         11    1    3    3    0    0  0.66143705008E+03 -0.91045948283E+02 -0.10942817019E+03  0.67658174699E+03  0.00000000000E+00 0.  1.
        -11    1    3    3    0    0  0.45948759578E+03 -0.12859698825E+02 -0.18934222381E+02  0.46005730872E+03  0.00000000000E+00 0. -1.
         22    1    1    2    0    0 -0.11209246459E+04  0.10390564711E+03  0.84990468341E+03  0.14105340889E+04  0.00000000000E+00 0.  1.
<mgrwt>
<rscale>  0 0.24428401E+04</rscale>
<asrwt>0</asrwt>
<pdfrwt beam="1">  1        2 0.14043314E+00 0.24428401E+04</pdfrwt>
<pdfrwt beam="2">  1       -2 0.25143965E+00 0.24428401E+04</pdfrwt>
<totfact> 0.16214915E+00</totfact>
</mgrwt>
</event>
<event>
 6    1  0.2238133E-007  0.1256262E+04  0.7818608E-02  0.9064988E-01
          2   -1    0    0  501    0  0.00000000000E+00  0.00000000000E+00  0.17330999159E+04  0.17330999159E+04  0.00000000000E+00 0. -1.
         -2   -1    0    0    0  501 -0.00000000000E+00 -0.00000000000E+00 -0.22765473790E+03  0.22765473790E+03  0.00000000000E+00 0.  1.
         23    2    1    2    0    0  0.35418617250E+03 -0.21109869977E+03  0.14894351496E+04  0.15481206430E+04  0.90829261222E+02 0.  0.
         13    1    3    3    0    0  0.15526420179E+02 -0.39237206700E+02  0.13396420906E+03  0.14045297228E+03  0.00000000000E+00 0. -1.
        -13    1    3    3    0    0  0.33865975232E+03 -0.17186149307E+03  0.13554709405E+04  0.14076676708E+04  0.00000000000E+00 0.  1.
         22    1    1    2    0    0 -0.35418617250E+03  0.21109869977E+03  0.16010028400E+02  0.41263401077E+03  0.00000000000E+00 0. -1.
<mgrwt>
<rscale>  0 0.12562618E+04</rscale>
<asrwt>0</asrwt>
<pdfrwt beam="1">  1        2 0.26663075E+00 0.12562618E+04</pdfrwt>
<pdfrwt beam="2">  1       -2 0.35023807E-01 0.12562618E+04</pdfrwt>
<totfact> 0.70693770E+01</totfact>
</mgrwt>
</event>
<event>
 6    1  0.2238133E-007  0.2059042E+04  0.7818608E-02  0.8579503E-01
         -2   -1    0    0    0  501 -0.00000000000E+00  0.00000000000E+00  0.98889850320E+03  0.98889850320E+03  0.00000000000E+00 0.  1.
          2   -1    0    0  501    0  0.00000000000E+00 -0.00000000000E+00 -0.10718125996E+04  0.10718125996E+04  0.00000000000E+00 0. -1.
         23    2    1    2    0    0 -0.88281627782E+03 -0.21122619075E+03 -0.52325427700E+03  0.10518104344E+04  0.92352950582E+02 0.  0.
         13    1    3    3    0    0 -0.71791739004E+03 -0.15339172375E+03 -0.45802092808E+03  0.86528467593E+03  0.00000000000E+00 0.  1.
        -13    1    3    3    0    0 -0.16489888778E+03 -0.57834467006E+02 -0.65233348928E+02  0.18652575848E+03  0.00000000000E+00 0. -1.
         22    1    1    2    0    0  0.88281627782E+03  0.21122619075E+03  0.44034018060E+03  0.10089006684E+04  0.00000000000E+00 0.  1.
<mgrwt>
<rscale>  0 0.20590424E+04</rscale>
<asrwt>0</asrwt>
<pdfrwt beam="1">  1        2 0.16489425E+00 0.20590424E+04</pdfrwt>
<pdfrwt beam="2">  1       -2 0.15213823E+00 0.20590424E+04</pdfrwt>
<totfact> 0.60514570E+00</totfact>
</mgrwt>
</event>
<event>
 6    1  0.2238133E-007  0.2283067E+04  0.7818608E-02  0.8484628E-01
         -2   -1    0    0    0  501 -0.00000000000E+00  0.00000000000E+00  0.29494546383E+03  0.29494546383E+03  0.00000000000E+00 0.  1.
          2   -1    0    0  501    0  0.00000000000E+00 -0.00000000000E+00 -0.44180999739E+04  0.44180999739E+04  0.00000000000E+00 0. -1.
         23    2    1    2    0    0 -0.26973010988E+03 -0.10266706198E+04 -0.12096281987E+04  0.16121677457E+04  0.95276269058E+02 0.  0.
         13    1    3    3    0    0 -0.21607091157E+03 -0.86904867839E+03 -0.10664443366E+04  0.13925644572E+04  0.00000000000E+00 0.  1.
        -13    1    3    3    0    0 -0.53659198311E+02 -0.15762194144E+03 -0.14318386211E+03  0.21960328858E+03  0.00000000000E+00 0. -1.
         22    1    1    2    0    0  0.26973010988E+03  0.10266706198E+04 -0.29135263113E+04  0.31008776920E+04  0.00000000000E+00 0.  1.
<mgrwt>
<rscale>  0 0.22830668E+04</rscale>
<asrwt>0</asrwt>
<pdfrwt beam="1">  1        2 0.67970764E+00 0.22830668E+04</pdfrwt>
<pdfrwt beam="2">  1       -2 0.45376229E-01 0.22830668E+04</pdfrwt>
<totfact> 0.62272133E-01</totfact>
</mgrwt>
</event>
<event>
 6    1  0.2238133E-007  0.7856640E+03  0.7818608E-02  0.9581003E-01
         -1   -1    0    0    0  501 -0.00000000000E+00  0.00000000000E+00  0.39265648177E+03  0.39265648177E+03  0.00000000000E+00 0.  1.
          1   -1    0    0  501    0  0.00000000000E+00 -0.00000000000E+00 -0.39300757693E+03  0.39300757693E+03  0.00000000000E+00 0. -1.
         23    2    1    2    0    0 -0.91057489836E+02  0.28688147751E+03 -0.24481787679E+03  0.39790581454E+03  0.88322114167E+02 0.  0.
         11    1    3    3    0    0 -0.55607319482E+02  0.12695827840E+03 -0.60248474960E+02  0.15113059640E+03  0.00000000000E+00 0.  1.
        -11    1    3    3    0    0 -0.35450170354E+02  0.15992319911E+03 -0.18456940183E+03  0.24677521813E+03  0.00000000000E+00 0. -1.
         22    1    1    2    0    0  0.91057489836E+02 -0.28688147751E+03  0.24446678164E+03  0.38775824417E+03  0.00000000000E+00 0.  1.
<mgrwt>
<rscale>  0 0.78566398E+03</rscale>
<asrwt>0</asrwt>
<pdfrwt beam="1">  1        1 0.60462704E-01 0.78566398E+03</pdfrwt>
<pdfrwt beam="2">  1       -1 0.60408690E-01 0.78566398E+03</pdfrwt>
<totfact> 0.17283112E+02</totfact>
</mgrwt>
</event>
<event>
 6    1  0.2238133E-007  0.2866523E+04  0.7818608E-02  0.8282908E-01
         -2   -1    0    0    0  501 -0.00000000000E+00  0.00000000000E+00  0.57655272749E+03  0.57655272749E+03  0.00000000000E+00 0.  1.
          2   -1    0    0  501    0  0.00000000000E+00 -0.00000000000E+00 -0.35629681659E+04  0.35629681659E+04  0.00000000000E+00 0. -1.
         23    2    1    2    0    0  0.43179708854E+03  0.11686156691E+04 -0.47570052123E+03  0.13367007595E+04  0.91469267057E+02 0.  0.
         11    1    3    3    0    0  0.27267916862E+03  0.73808322928E+03 -0.25288288785E+03  0.82648081484E+03  0.00000000000E+00 0. -1.
        -11    1    3    3    0    0  0.15911791993E+03  0.43053243980E+03 -0.22281763338E+03  0.51021994464E+03  0.00000000000E+00 0.  1.
         22    1    1    2    0    0 -0.43179708854E+03 -0.11686156691E+04 -0.25107149171E+04  0.28028201339E+04  0.00000000000E+00 0. -1.
<mgrwt>
<rscale>  0 0.28665233E+04</rscale>
<asrwt>0</asrwt>
<pdfrwt beam="1">  1        2 0.54814894E+00 0.28665233E+04</pdfrwt>
<pdfrwt beam="2">  1       -2 0.88700421E-01 0.28665233E+04</pdfrwt>
<totfact> 0.69381804E-01</totfact>
</mgrwt>
</event>
<event>
 6    1  0.2238133E-007  0.1144690E+04  0.7818608E-02  0.9162697E-01
         -2   -1    0    0    0  501 -0.00000000000E+00  0.00000000000E+00  0.34441711766E+03  0.34441711766E+03  0.00000000000E+00 0.  1.
          2   -1    0    0  501    0  0.00000000000E+00 -0.00000000000E+00 -0.95111005328E+03  0.95111005328E+03  0.00000000000E+00 0. -1.
         23    2    1    2    0    0 -0.86268181024E+02 -0.40233539797E+03  0.13912740152E+03  0.44372675605E+03  0.90669888420E+02 0.  0.
         13    1    3    3    0    0  0.11389765482E+02 -0.58351473142E+02  0.43244195442E+02  0.73516539737E+02  0.00000000000E+00 0.  1.
        -13    1    3    3    0    0 -0.97657946506E+02 -0.34398392483E+03  0.95883206075E+02  0.37021021631E+03  0.00000000000E+00 0. -1.
         22    1    1    2    0    0  0.86268181024E+02  0.40233539797E+03 -0.74582033714E+03  0.85180041489E+03  0.00000000000E+00 0. -1.
<mgrwt>
<rscale>  0 0.11446896E+04</rscale>
<asrwt>0</asrwt>
<pdfrwt beam="1">  1        2 0.14632462E+00 0.11446896E+04</pdfrwt>
<pdfrwt beam="2">  1       -2 0.52987250E-01 0.11446896E+04</pdfrwt>
<totfact> 0.90144848E+01</totfact>
</mgrwt>
</event>
<event>
 6    1  0.2238133E-007  0.5250383E+04  0.7818608E-02  0.7791003E-01
          2   -1    0    0  501    0  0.00000000000E+00  0.00000000000E+00  0.38164477424E+04  0.38164477424E+04  0.00000000000E+00 0. -1.
         -2   -1    0    0    0  501 -0.00000000000E+00 -0.00000000000E+00 -0.18057710160E+04  0.18057710160E+04  0.00000000000E+00 0.  1.
         23    2    1    2    0    0  0.24259972905E+04  0.77779999647E+03  0.33097063909E+03  0.25706866468E+04  0.91937936033E+02 0.  0.
         11    1    3    3    0    0  0.86512973443E+03  0.31281671557E+03  0.14819772245E+03  0.93180809176E+03  0.00000000000E+00 0. -1.
        -11    1    3    3    0    0  0.15608675561E+04  0.46498328090E+03  0.18277291664E+03  0.16388785550E+04  0.00000000000E+00 0.  1.
         22    1    1    2    0    0 -0.24259972905E+04 -0.77779999647E+03  0.16797060874E+04  0.30515321116E+04  0.00000000000E+00 0. -1.
<mgrwt>
<rscale>  0 0.52503831E+04</rscale>
<asrwt>0</asrwt>
<pdfrwt beam="1">  1        2 0.58714580E+00 0.52503831E+04</pdfrwt>
<pdfrwt beam="2">  1       -2 0.27781093E+00 0.52503831E+04</pdfrwt>
<totfact> 0.14735388E-02</totfact>
</mgrwt>
</event>
<event>
 6    1  0.2238133E-007  0.1684538E+04  0.7818608E-02  0.8770232E-01
         -2   -1    0    0    0  501 -0.00000000000E+00  0.00000000000E+00  0.39421699882E+03  0.39421699882E+03  0.00000000000E+00 0.  1.
          2   -1    0    0  501    0  0.00000000000E+00 -0.00000000000E+00 -0.17995607440E+04  0.17995607440E+04  0.00000000000E+00 0. -1.
         23    2    1    2    0    0 -0.26227459039E+03 -0.77808280718E+03 -0.47581192322E+03  0.95352364643E+03  0.92787620023E+02 0.  0.
         13    1    3    3    0    0 -0.16243810013E+03 -0.34434460666E+03 -0.20272455086E+03  0.43134277325E+03  0.00000000000E+00 0.  1.
        -13    1    3    3    0    0 -0.99836490261E+02 -0.43373820052E+03 -0.27308737236E+03  0.52218087318E+03  0.00000000000E+00 0. -1.
         22    1    1    2    0    0  0.26227459039E+03  0.77808280718E+03 -0.92953182197E+03  0.12402540964E+04  0.00000000000E+00 0.  1.
<mgrwt>
<rscale>  0 0.16845384E+04</rscale>
<asrwt>0</asrwt>
<pdfrwt beam="1">  1        2 0.27685550E+00 0.16845384E+04</pdfrwt>
<pdfrwt beam="2">  1       -2 0.60648769E-01 0.16845384E+04</pdfrwt>
<totfact> 0.20821126E+01</totfact>
</mgrwt>
</event>
<event>
 6    1  0.2238133E-007  0.2985464E+04  0.7818608E-02  0.8247894E-01
         -2   -1    0    0    0  501 -0.00000000000E+00  0.00000000000E+00  0.10893882541E+04  0.10893882541E+04  0.00000000000E+00 0.  1.
          2   -1    0    0  501    0  0.00000000000E+00 -0.00000000000E+00 -0.20454128099E+04  0.20454128099E+04  0.00000000000E+00 0. -1.
         23    2    1    2    0    0  0.24339056998E+03  0.28110787594E+03 -0.19952774425E+04  0.20310315364E+04  0.75474643566E+02 0.  0.
         11    1    3    3    0    0  0.10289102817E+03  0.17290546208E+03 -0.99135652151E+03  0.10115683938E+04  0.00000000000E+00 0.  1.
        -11    1    3    3    0    0  0.14049954182E+03  0.10820241387E+03 -0.10039209210E+04  0.10194631427E+04  0.00000000000E+00 0. -1.
         22    1    1    2    0    0 -0.24339056998E+03 -0.28110787594E+03  0.10392528867E+04  0.11037695276E+04  0.00000000000E+00 0.  1.
<mgrwt>
<rscale>  0 0.29854639E+04</rscale>
<asrwt>0</asrwt>
<pdfrwt beam="1">  1        2 0.31467889E+00 0.29854639E+04</pdfrwt>
<pdfrwt beam="2">  1       -2 0.16759820E+00 0.29854639E+04</pdfrwt>
<totfact> 0.11978754E+00</totfact>
</mgrwt>
</event>
<event>
 6    1  0.2238133E-007  0.4466167E+04  0.7818608E-02  0.7916587E-01
          2   -1    0    0  501    0  0.00000000000E+00  0.00000000000E+00  0.47680595050E+04  0.47680595050E+04  0.00000000000E+00 0. -1.
         -2   -1    0    0    0  501 -0.00000000000E+00 -0.00000000000E+00 -0.10458474682E+04  0.10458474682E+04  0.00000000000E+00 0.  1.
         23    2    1    2    0    0 -0.15167690342E+04  0.15638386032E+04  0.12292644684E+04  0.25031718496E+04  0.92729152378E+02 0.  0.
         11    1    3    3    0    0 -0.30017641863E+03  0.26520813161E+03  0.24715989131E+03  0.47066893592E+03  0.00000000000E+00 0. -1.
        -11    1    3    3    0    0 -0.12165926156E+04  0.12986304716E+04  0.98210457706E+03  0.20325029137E+04  0.00000000000E+00 0.  1.
         22    1    1    2    0    0  0.15167690342E+04 -0.15638386032E+04  0.24929475684E+04  0.33107351236E+04  0.00000000000E+00 0. -1.
<mgrwt>
<rscale>  0 0.44661675E+04</rscale>
<asrwt>0</asrwt>
<pdfrwt beam="1">  1        2 0.73354761E+00 0.44661675E+04</pdfrwt>
<pdfrwt beam="2">  1       -2 0.16089961E+00 0.44661675E+04</pdfrwt>
<totfact> 0.12043726E-02</totfact>
</mgrwt>
</event>
<event>
 6    1  0.2238133E-007  0.2298792E+04  0.7818608E-02  0.8478398E-01
         -2   -1    0    0    0  501 -0.00000000000E+00  0.00000000000E+00  0.24747028668E+04  0.24747028668E+04  0.00000000000E+00 0.  1.
          2   -1    0    0  501    0  0.00000000000E+00 -0.00000000000E+00 -0.53384640483E+03  0.53384640483E+03  0.00000000000E+00 0. -1.
         23    2    1    2    0    0  0.10974991336E+04 -0.25650212899E+03  0.68913212102E+03  0.13241765349E+04  0.90789453998E+02 0.  0.
         13    1    3    3    0    0  0.98256337239E+03 -0.23863282547E+03  0.58562879979E+03  0.11684765711E+04  0.00000000000E+00 0. -1.
        -13    1    3    3    0    0  0.11493576121E+03 -0.17869303517E+02  0.10350332123E+03  0.15569996377E+03  0.00000000000E+00 0.  1.
         22    1    1    2    0    0 -0.10974991336E+04  0.25650212899E+03  0.12517243409E+04  0.16843727367E+04  0.00000000000E+00 0. -1.
<mgrwt>
<rscale>  0 0.22987921E+04</rscale>
<asrwt>0</asrwt>
<pdfrwt beam="1">  1        2 0.82130217E-01 0.22987921E+04</pdfrwt>
<pdfrwt beam="2">  1       -2 0.38072351E+00 0.22987921E+04</pdfrwt>
<totfact> 0.51279246E-01</totfact>
</mgrwt>
</event>
<event>
 6    1  0.2238133E-007  0.1036596E+04  0.7818608E-02  0.9269293E-01
         -2   -1    0    0    0  501 -0.00000000000E+00  0.00000000000E+00  0.16162246789E+03  0.16162246789E+03  0.00000000000E+00 0.  1.
          2   -1    0    0  501    0  0.00000000000E+00 -0.00000000000E+00 -0.16621007604E+04  0.16621007604E+04  0.00000000000E+00 0. -1.
         23    2    1    2    0    0 -0.86926055277E+02 -0.24944957814E+03  0.20193055012E+02  0.28027819257E+03  0.91470621723E+02 0.  0.
         13    1    3    3    0    0 -0.47912945272E+02 -0.10879296087E+03  0.53813909554E+02  0.13048944601E+03  0.00000000000E+00 0. -1.
        -13    1    3    3    0    0 -0.39013110006E+02 -0.14065661728E+03 -0.33620854542E+02  0.14978874656E+03  0.00000000000E+00 0.  1.
         22    1    1    2    0    0  0.86926055277E+02  0.24944957814E+03 -0.15206713475E+04  0.15434450357E+04  0.00000000000E+00 0. -1.
<mgrwt>
<rscale>  0 0.10365960E+04</rscale>
<asrwt>0</asrwt>
<pdfrwt beam="1">  1        2 0.25570781E+00 0.10365960E+04</pdfrwt>
<pdfrwt beam="2">  1       -2 0.24864995E-01 0.10365960E+04</pdfrwt>
<totfact> 0.14862164E+02</totfact>
</mgrwt>
</event>
<event>
 6    1  0.2238133E-007  0.1830467E+04  0.7818608E-02  0.8690263E-01
         -2   -1    0    0    0  501 -0.00000000000E+00  0.00000000000E+00  0.51680968934E+03  0.51680968934E+03  0.00000000000E+00 0.  1.
          2   -1    0    0  501    0  0.00000000000E+00 -0.00000000000E+00 -0.16208135524E+04  0.16208135524E+04  0.00000000000E+00 0. -1.
         23    2    1    2    0    0  0.40670438409E+03  0.58603087984E+03 -0.12187866550E+04  0.14151166761E+04  0.90959596672E+02 0.  0.
         13    1    3    3    0    0  0.39297507102E+03  0.56699065752E+03 -0.11359522862E+04  0.13290204696E+04  0.00000000000E+00 0. -1.
        -13    1    3    3    0    0  0.13729313070E+02  0.19040222318E+02 -0.82834368834E+02  0.86096206440E+02  0.00000000000E+00 0.  1.
         22    1    1    2    0    0 -0.40670438409E+03 -0.58603087984E+03  0.11478279193E+03  0.72250656571E+03  0.00000000000E+00 0.  1.
<mgrwt>
<rscale>  0 0.18304668E+04</rscale>
<asrwt>0</asrwt>
<pdfrwt beam="1">  1        2 0.24935593E+00 0.18304668E+04</pdfrwt>
<pdfrwt beam="2">  1       -2 0.79509182E-01 0.18304668E+04</pdfrwt>
<totfact> 0.14329829E+01</totfact>
</mgrwt>
</event>
<event>
 6    1  0.2419241E-007  0.3642482E+04  0.7818608E-02  0.8080829E-01
         -2   -1    0    0    0  501 -0.00000000000E+00  0.00000000000E+00  0.19662491084E+04  0.19662491084E+04  0.00000000000E+00 0.  1.
          2   -1    0    0  501    0  0.00000000000E+00 -0.00000000000E+00 -0.16869269690E+04  0.16869269690E+04  0.00000000000E+00 0. -1.
         23    2    1    2    0    0  0.11464414378E+04 -0.99285739960E+03  0.11490982099E+04  0.19048614035E+04  0.89311163694E+02 0.  0.
         13    1    3    3    0    0  0.27667345677E+03 -0.24223386567E+03  0.32759714697E+03  0.49248892177E+03  0.00000000000E+00 0.  1.
        -13    1    3    3    0    0  0.86976798106E+03 -0.75062353393E+03  0.82150106298E+03  0.14123724817E+04  0.00000000000E+00 0. -1.
         22    1    1    2    0    0 -0.11464414378E+04  0.99285739960E+03 -0.86977607055E+03  0.17483146740E+04  0.00000000000E+00 0. -1.
<mgrwt>
<rscale>  0 0.36424819E+04</rscale>
<asrwt>0</asrwt>
<pdfrwt beam="1">  1        2 0.25952722E+00 0.36424819E+04</pdfrwt>
<pdfrwt beam="2">  1       -2 0.30249986E+00 0.36424819E+04</pdfrwt>
<totfact> 0.24850613E-01</totfact>
</mgrwt>
</event>
<event>
 6    1  0.2238133E-007  0.2880912E+04  0.7818608E-02  0.8278579E-01
         -2   -1    0    0    0  501 -0.00000000000E+00  0.00000000000E+00  0.15682467467E+04  0.15682467467E+04  0.00000000000E+00 0.  1.
          2   -1    0    0  501    0  0.00000000000E+00 -0.00000000000E+00 -0.13230783499E+04  0.13230783499E+04  0.00000000000E+00 0. -1.
         23    2    1    2    0    0  0.58053224504E+03  0.12111285105E+04  0.64113931050E+03  0.14910955007E+04  0.91957710200E+02 0.  0.
         13    1    3    3    0    0  0.95244618928E+02  0.22677076309E+03  0.15529676249E+03  0.29088417088E+03  0.00000000000E+00 0. -1.
        -13    1    3    3    0    0  0.48528762611E+03  0.98435774738E+03  0.48584254802E+03  0.12002113299E+04  0.00000000000E+00 0.  1.
         22    1    1    2    0    0 -0.58053224504E+03 -0.12111285105E+04 -0.39597091370E+03  0.14002295958E+04  0.00000000000E+00 0. -1.
<mgrwt>
<rscale>  0 0.28809119E+04</rscale>
<asrwt>0</asrwt>
<pdfrwt beam="1">  1        2 0.20355052E+00 0.28809119E+04</pdfrwt>
<pdfrwt beam="2">  1       -2 0.24126873E+00 0.28809119E+04</pdfrwt>
<totfact> 0.10078887E+00</totfact>
</mgrwt>
</event>
<event>
 6    1  0.2238133E-007  0.9376575E+03  0.7818608E-02  0.9379695E-01
         -2   -1    0    0    0  501 -0.00000000000E+00  0.00000000000E+00  0.38044177097E+03  0.38044177097E+03  0.00000000000E+00 0.  1.
          2   -1    0    0  501    0  0.00000000000E+00 -0.00000000000E+00 -0.57775044069E+03  0.57775044069E+03  0.00000000000E+00 0. -1.
         23    2    1    2    0    0 -0.33236641197E+03 -0.10823885096E+02  0.23143563457E+03  0.41560003815E+03  0.92608587427E+02 0.  0.
         13    1    3    3    0    0 -0.90162500041E+02 -0.32373591811E+02  0.10277351830E+03  0.14049812071E+03  0.00000000000E+00 0.  1.
        -13    1    3    3    0    0 -0.24220391193E+03  0.21549706715E+02  0.12866211627E+03  0.27510191744E+03  0.00000000000E+00 0. -1.
         22    1    1    2    0    0  0.33236641197E+03  0.10823885096E+02 -0.42874430429E+03  0.54259217351E+03  0.00000000000E+00 0.  1.
<mgrwt>
<rscale>  0 0.93765751E+03</rscale>
<asrwt>0</asrwt>
<pdfrwt beam="1">  1        2 0.88884683E-01 0.93765751E+03</pdfrwt>
<pdfrwt beam="2">  1       -2 0.58529503E-01 0.93765751E+03</pdfrwt>
<totfact> 0.14197110E+02</totfact>
</mgrwt>
</event>
<event>
 6    1  0.2238133E-007  0.2458350E+04  0.7818608E-02  0.8417975E-01
          2   -1    0    0  501    0  0.00000000000E+00  0.00000000000E+00  0.22876256140E+04  0.22876256140E+04  0.00000000000E+00 0. -1.
         -2   -1    0    0    0  501 -0.00000000000E+00 -0.00000000000E+00 -0.66045412634E+03  0.66045412634E+03  0.00000000000E+00 0.  1.
         23    2    1    2    0    0 -0.76090541489E+03  0.84068139822E+03  0.13784895677E+04  0.17872330833E+04  0.90809372639E+02 0.  0.
         13    1    3    3    0    0 -0.48323042740E+02  0.90226415091E+02  0.13622486687E+03  0.17039112886E+03  0.00000000000E+00 0. -1.
        -13    1    3    3    0    0 -0.71258237215E+03  0.75045498313E+03  0.12422647008E+04  0.16168419545E+04  0.00000000000E+00 0.  1.
         22    1    1    2    0    0  0.76090541489E+03 -0.84068139822E+03  0.24868191994E+03  0.11608466570E+04  0.00000000000E+00 0.  1.
<mgrwt>
<rscale>  0 0.24583505E+04</rscale>
<asrwt>0</asrwt>
<pdfrwt beam="1">  1        2 0.35194240E+00 0.24583505E+04</pdfrwt>
<pdfrwt beam="2">  1       -2 0.10160833E+00 0.24583505E+04</pdfrwt>
<totfact> 0.32785136E+00</totfact>
</mgrwt>
</event>
<event>
 6    1  0.2238133E-007  0.2302164E+04  0.7818608E-02  0.8477068E-01
          2   -1    0    0  501    0  0.00000000000E+00  0.00000000000E+00  0.22388168909E+04  0.22388168909E+04  0.00000000000E+00 0. -1.
         -2   -1    0    0    0  501 -0.00000000000E+00 -0.00000000000E+00 -0.59182591424E+03  0.59182591424E+03  0.00000000000E+00 0.  1.
         23    2    1    2    0    0  0.71278918246E+03  0.40767699054E+03  0.18134704065E+04  0.19927977432E+04  0.91098752757E+02 0.  0.
         13    1    3    3    0    0  0.43574031949E+03  0.23236172248E+03  0.11895644639E+04  0.12879927057E+04  0.00000000000E+00 0. -1.
        -13    1    3    3    0    0  0.27704886296E+03  0.17531526806E+03  0.62390594257E+03  0.70480503748E+03  0.00000000000E+00 0.  1.
         22    1    1    2    0    0 -0.71278918246E+03 -0.40767699054E+03 -0.16647942985E+03  0.83784506193E+03  0.00000000000E+00 0.  1.
<mgrwt>
<rscale>  0 0.23021641E+04</rscale>
<asrwt>0</asrwt>
<pdfrwt beam="1">  1        2 0.34443336E+00 0.23021641E+04</pdfrwt>
<pdfrwt beam="2">  1       -2 0.91050142E-01 0.23021641E+04</pdfrwt>
<totfact> 0.45784453E+00</totfact>
</mgrwt>
</event>
<event>
 6    1  0.2238133E-007  0.3821631E+04  0.7818608E-02  0.8041529E-01
          2   -1    0    0  501    0  0.00000000000E+00  0.00000000000E+00  0.31508973461E+04  0.31508973461E+04  0.00000000000E+00 0. -1.
         -2   -1    0    0    0  501 -0.00000000000E+00 -0.00000000000E+00 -0.11587857757E+04  0.11587857757E+04  0.00000000000E+00 0.  1.
         23    2    1    2    0    0  0.28121488008E+03  0.18706985436E+04  0.12917733354E+04  0.22924899003E+04  0.90756503624E+02 0.  0.
         13    1    3    3    0    0  0.23194813278E+03  0.13442559619E+04  0.89670075143E+03  0.16324509993E+04  0.00000000000E+00 0.  1.
        -13    1    3    3    0    0  0.49266747303E+02  0.52644258169E+03  0.39507258401E+03  0.66003890101E+03  0.00000000000E+00 0. -1.
         22    1    1    2    0    0 -0.28121488008E+03 -0.18706985436E+04  0.70033823494E+03  0.20171932216E+04  0.00000000000E+00 0. -1.
<mgrwt>
<rscale>  0 0.38216306E+04</rscale>
<asrwt>0</asrwt>
<pdfrwt beam="1">  1        2 0.48475344E+00 0.38216306E+04</pdfrwt>
<pdfrwt beam="2">  1       -2 0.17827474E+00 0.38216306E+04</pdfrwt>
<totfact> 0.20801360E-01</totfact>
</mgrwt>
</event>
<event>
 6    1  0.2238133E-007  0.1058419E+04  0.7818608E-02  0.9246694E-01
          2   -1    0    0  501    0  0.00000000000E+00  0.00000000000E+00  0.19490468764E+03  0.19490468764E+03  0.00000000000E+00 0. -1.
         -2   -1    0    0    0  501 -0.00000000000E+00 -0.00000000000E+00 -0.14369224081E+04  0.14369224081E+04  0.00000000000E+00 0.  1.
         23    2    1    2    0    0  0.25587347815E+03 -0.26596634303E+03 -0.49103745911E+02  0.38312653791E+03  0.90362789603E+02 0.  0.
         11    1    3    3    0    0  0.61323214435E+02 -0.12648572736E+03 -0.16492536600E+02  0.14153154990E+03  0.00000000000E+00 0. -1.
        -11    1    3    3    0    0  0.19455026371E+03 -0.13948061567E+03 -0.32611209311E+02  0.24159498801E+03  0.00000000000E+00 0.  1.
         22    1    1    2    0    0 -0.25587347815E+03  0.26596634303E+03 -0.11929139746E+04  0.12487005579E+04  0.00000000000E+00 0.  1.
<mgrwt>
<rscale>  0 0.10584194E+04</rscale>
<asrwt>0</asrwt>
<pdfrwt beam="1">  1        2 0.29985336E-01 0.10584194E+04</pdfrwt>
<pdfrwt beam="2">  1       -2 0.22106499E+00 0.10584194E+04</pdfrwt>
<totfact> 0.17291497E+01</totfact>
</mgrwt>
</event>
<event>
 6    1  0.2238133E-007  0.1688966E+04  0.7818608E-02  0.8767682E-01
          2   -1    0    0  501    0  0.00000000000E+00  0.00000000000E+00  0.17133125662E+04  0.17133125662E+04  0.00000000000E+00 0. -1.
         -2   -1    0    0    0  501 -0.00000000000E+00 -0.00000000000E+00 -0.41624150935E+03  0.41624150935E+03  0.00000000000E+00 0.  1.
         23    2    1    2    0    0  0.24497031520E+03  0.39460674834E+03 -0.23517270378E+03  0.52846198476E+03  0.90779554801E+02 0.  0.
         11    1    3    3    0    0  0.19904015571E+03  0.24319907696E+03 -0.14212723328E+03  0.34491002459E+03  0.00000000000E+00 0. -1.
        -11    1    3    3    0    0  0.45930159483E+02  0.15140767138E+03 -0.93045470498E+02  0.18355196017E+03  0.00000000000E+00 0.  1.
         22    1    1    2    0    0 -0.24497031520E+03 -0.39460674834E+03  0.15322437606E+04  0.16010920908E+04  0.00000000000E+00 0. -1.
<mgrwt>
<rscale>  0 0.16889663E+04</rscale>
<asrwt>0</asrwt>
<pdfrwt beam="1">  1        2 0.26358654E+00 0.16889663E+04</pdfrwt>
<pdfrwt beam="2">  1       -2 0.64037156E-01 0.16889663E+04</pdfrwt>
<totfact> 0.20696338E+01</totfact>
</mgrwt>
</event>
<event>
 6    1  0.2238133E-007  0.1515441E+04  0.7818608E-02  0.8874249E-01
          2   -1    0    0  501    0  0.00000000000E+00  0.00000000000E+00  0.15114681678E+04  0.15114681678E+04  0.00000000000E+00 0. -1.
         -2   -1    0    0    0  501 -0.00000000000E+00 -0.00000000000E+00 -0.37985613711E+03  0.37985613711E+03  0.00000000000E+00 0.  1.
         23    2    1    2    0    0 -0.26075980853E+03  0.43665586114E+03 -0.12876233706E+03  0.53220416095E+03  0.89428802295E+02 0.  0.
         13    1    3    3    0    0 -0.10889618781E+03  0.17747240235E+03 -0.77919306703E+01  0.20836397841E+03  0.00000000000E+00 0.  1.
        -13    1    3    3    0    0 -0.15186362072E+03  0.25918345879E+03 -0.12097040639E+03  0.32384018255E+03  0.00000000000E+00 0. -1.
         22    1    1    2    0    0  0.26075980853E+03 -0.43665586114E+03  0.12603743678E+04  0.13591201440E+04  0.00000000000E+00 0. -1.
<mgrwt>
<rscale>  0 0.15154411E+04</rscale>
<asrwt>0</asrwt>
<pdfrwt beam="1">  1        2 0.23253356E+00 0.15154411E+04</pdfrwt>
<pdfrwt beam="2">  1       -2 0.58439406E-01 0.15154411E+04</pdfrwt>
<totfact> 0.33042261E+01</totfact>
</mgrwt>
</event>
<event>
 6    1  0.2238133E-007  0.1161954E+04  0.7818608E-02  0.9146826E-01
          2   -1    0    0  501    0  0.00000000000E+00  0.00000000000E+00  0.29595804303E+04  0.29595804303E+04  0.00000000000E+00 0. -1.
         -2   -1    0    0    0  501 -0.00000000000E+00 -0.00000000000E+00 -0.11404794195E+03  0.11404794195E+03  0.00000000000E+00 0.  1.
         23    2    1    2    0    0  0.29335984774E+03 -0.47694715749E+03  0.18020175193E+04  0.18893724532E+04  0.94459173845E+02 0.  0.
         13    1    3    3    0    0  0.83208707731E+02 -0.16621235933E+03  0.74231651979E+03  0.76523463917E+03  0.00000000000E+00 0. -1.
        -13    1    3    3    0    0  0.21015114001E+03 -0.31073479816E+03  0.10597009995E+04  0.11241378140E+04  0.00000000000E+00 0.  1.
         22    1    1    2    0    0 -0.29335984774E+03  0.47694715749E+03  0.10435149691E+04  0.11842559191E+04  0.00000000000E+00 0.  1.
<mgrwt>
<rscale>  0 0.11619536E+04</rscale>
<asrwt>0</asrwt>
<pdfrwt beam="1">  1        2 0.45532001E+00 0.11619536E+04</pdfrwt>
<pdfrwt beam="2">  1       -2 0.17545839E-01 0.11619536E+04</pdfrwt>
<totfact> 0.49769885E+01</totfact>
</mgrwt>
</event>
<event>
 6    1  0.2238133E-007  0.1802427E+04  0.7818608E-02  0.8705010E-01
          2   -1    0    0  501    0  0.00000000000E+00  0.00000000000E+00  0.16436129086E+04  0.16436129086E+04  0.00000000000E+00 0. -1.
         -2   -1    0    0    0  501 -0.00000000000E+00 -0.00000000000E+00 -0.49414661702E+03  0.49414661702E+03  0.00000000000E+00 0.  1.
         23    2    1    2    0    0 -0.36876543376E+03  0.64089500340E+03  0.11833110760E+04  0.13975704822E+04  0.79017716702E+02 0.  0.
         13    1    3    3    0    0 -0.27024951969E+03  0.47580260420E+03  0.80748038060E+03  0.97542169655E+03  0.00000000000E+00 0.  1.
        -13    1    3    3    0    0 -0.98515914075E+02  0.16509239920E+03  0.37583069540E+03  0.42214878563E+03  0.00000000000E+00 0. -1.
         22    1    1    2    0    0  0.36876543376E+03 -0.64089500340E+03 -0.33844784463E+02  0.74018904339E+03  0.00000000000E+00 0.  1.
<mgrwt>
<rscale>  0 0.18024270E+04</rscale>
<asrwt>0</asrwt>
<pdfrwt beam="1">  1        2 0.25286352E+00 0.18024270E+04</pdfrwt>
<pdfrwt beam="2">  1       -2 0.76022557E-01 0.18024270E+04</pdfrwt>
<totfact> 0.15418157E+01</totfact>
</mgrwt>
</event>
<event>
 6    1  0.2238133E-007  0.2026883E+04  0.7818608E-02  0.8594154E-01
         -2   -1    0    0    0  501 -0.00000000000E+00  0.00000000000E+00  0.88403336425E+03  0.88403336425E+03  0.00000000000E+00 0.  1.
          2   -1    0    0  501    0  0.00000000000E+00 -0.00000000000E+00 -0.11617925553E+04  0.11617925553E+04  0.00000000000E+00 0. -1.
         23    2    1    2    0    0 -0.69489127164E+03  0.42016262304E+02  0.60134595155E+03  0.92445840733E+03  0.91472114593E+02 0.  0.
         11    1    3    3    0    0 -0.29964503028E+03 -0.26306375434E+02  0.24580568765E+03  0.38845798440E+03  0.00000000000E+00 0.  1.
        -11    1    3    3    0    0 -0.39524624135E+03  0.68322637738E+02  0.35554026391E+03  0.53600042294E+03  0.00000000000E+00 0. -1.
         22    1    1    2    0    0  0.69489127164E+03 -0.42016262304E+02 -0.87910514261E+03  0.11213675122E+04  0.00000000000E+00 0. -1.
<mgrwt>
<rscale>  0 0.20268827E+04</rscale>
<asrwt>0</asrwt>
<pdfrwt beam="1">  1        2 0.17873732E+00 0.20268827E+04</pdfrwt>
<pdfrwt beam="2">  1       -2 0.13600513E+00 0.20268827E+04</pdfrwt>
<totfact> 0.71672533E+00</totfact>
</mgrwt>
</event>
<event>
 6    1  0.2238133E-007  0.9710636E+03  0.7818608E-02  0.9340864E-01
          2   -1    0    0  501    0  0.00000000000E+00  0.00000000000E+00  0.56687471867E+03  0.56687471867E+03  0.00000000000E+00 0. -1.
         -2   -1    0    0    0  501 -0.00000000000E+00 -0.00000000000E+00 -0.41586109466E+03  0.41586109466E+03  0.00000000000E+00 0.  1.
         23    2    1    2    0    0 -0.15464267997E+03  0.14701449943E+03  0.51314564471E+03  0.56241781236E+03  0.86415979227E+02 0.  0.
         11    1    3    3    0    0 -0.34097409010E+02 -0.55051571580E+00  0.13150348359E+03  0.13585323907E+03  0.00000000000E+00 0.  1.
        -11    1    3    3    0    0 -0.12054527096E+03  0.14756501514E+03  0.38164216113E+03  0.42656457330E+03  0.00000000000E+00 0. -1.
         22    1    1    2    0    0  0.15464267997E+03 -0.14701449943E+03 -0.36213202070E+03  0.42031800096E+03  0.00000000000E+00 0.  1.
<mgrwt>
<rscale>  0 0.97106363E+03</rscale>
<asrwt>0</asrwt>
<pdfrwt beam="1">  1        2 0.87211495E-01 0.97106363E+03</pdfrwt>
<pdfrwt beam="2">  1       -2 0.63978630E-01 0.97106363E+03</pdfrwt>
<totfact> 0.12002136E+02</totfact>
</mgrwt>
</event>
<event>
 6    1  0.2238133E-007  0.1156106E+04  0.7818608E-02  0.9152169E-01
          2   -1    0    0  501    0  0.00000000000E+00  0.00000000000E+00  0.90099339502E+03  0.90099339502E+03  0.00000000000E+00 0. -1.
         -2   -1    0    0    0  501 -0.00000000000E+00 -0.00000000000E+00 -0.37086318513E+03  0.37086318513E+03  0.00000000000E+00 0.  1.
         23    2    1    2    0    0 -0.56817218852E+03 -0.65028039650E+01  0.35802532970E+03  0.67815462456E+03  0.94072503100E+02 0.  0.
         11    1    3    3    0    0 -0.22152873635E+03  0.12352678996E+02  0.19167256436E+03  0.29319949120E+03  0.00000000000E+00 0.  1.
        -11    1    3    3    0    0 -0.34664345217E+03 -0.18855482961E+02  0.16635276534E+03  0.38495513337E+03  0.00000000000E+00 0. -1.
         22    1    1    2    0    0  0.56817218852E+03  0.65028039650E+01  0.17210488019E+03  0.59370195558E+03  0.00000000000E+00 0. -1.
<mgrwt>
<rscale>  0 0.11561060E+04</rscale>
<asrwt>0</asrwt>
<pdfrwt beam="1">  1        2 0.13861437E+00 0.11561060E+04</pdfrwt>
<pdfrwt beam="2">  1       -2 0.57055875E-01 0.11561060E+04</pdfrwt>
<totfact> 0.83427567E+01</totfact>
</mgrwt>
</event>
<event>
 6    1  0.2238133E-007  0.3205249E+04  0.7818608E-02  0.8187432E-01
          2   -1    0    0  501    0  0.00000000000E+00  0.00000000000E+00  0.25226429113E+04  0.25226429113E+04  0.00000000000E+00 0. -1.
         -2   -1    0    0    0  501 -0.00000000000E+00 -0.00000000000E+00 -0.10181404024E+04  0.10181404024E+04  0.00000000000E+00 0.  1.
         23    2    1    2    0    0  0.56827350201E+03  0.47369982388E+03  0.23216796751E+04  0.24384653844E+04  0.92685603429E+02 0.  0.
         13    1    3    3    0    0  0.73319490889E+02  0.64460987899E+02  0.42264046118E+03  0.43376943891E+03  0.00000000000E+00 0. -1.
        -13    1    3    3    0    0  0.49495401112E+03  0.40923883598E+03  0.18990392139E+04  0.20046959455E+04  0.00000000000E+00 0.  1.
         22    1    1    2    0    0 -0.56827350201E+03 -0.47369982388E+03 -0.81717716621E+03  0.11023179293E+04  0.00000000000E+00 0.  1.
<mgrwt>
<rscale>  0 0.32052486E+04</rscale>
<asrwt>0</asrwt>
<pdfrwt beam="1">  1        2 0.38809891E+00 0.32052486E+04</pdfrwt>
<pdfrwt beam="2">  1       -2 0.15663699E+00 0.32052486E+04</pdfrwt>
<totfact> 0.75839545E-01</totfact>
</mgrwt>
</event>
<event>
 6    1  0.2238133E-007  0.1665956E+04  0.7818608E-02  0.8781023E-01
          2   -1    0    0  501    0  0.00000000000E+00  0.00000000000E+00  0.15222036719E+04  0.15222036719E+04  0.00000000000E+00 0. -1.
         -2   -1    0    0    0  501 -0.00000000000E+00 -0.00000000000E+00 -0.45582086089E+03  0.45582086089E+03  0.00000000000E+00 0.  1.
         23    2    1    2    0    0  0.42168909748E+03 -0.71269697100E+03  0.45969404745E+03  0.95146234605E+03  0.90572133087E+02 0.  0.
         11    1    3    3    0    0  0.35441538833E+03 -0.55305699372E+03  0.39530359819E+03  0.76664675082E+03  0.00000000000E+00 0.  1.
        -11    1    3    3    0    0  0.67273709147E+02 -0.15963997728E+03  0.64390449254E+02  0.18481559524E+03  0.00000000000E+00 0. -1.
         22    1    1    2    0    0 -0.42168909748E+03  0.71269697100E+03  0.60668876355E+03  0.10265621867E+04  0.00000000000E+00 0.  1.
<mgrwt>
<rscale>  0 0.16659558E+04</rscale>
<asrwt>0</asrwt>
<pdfrwt beam="1">  1        2 0.23418518E+00 0.16659558E+04</pdfrwt>
<pdfrwt beam="2">  1       -2 0.70126287E-01 0.16659558E+04</pdfrwt>
<totfact> 0.21784986E+01</totfact>
</mgrwt>
</event>
<event>
 6    1  0.2238133E-007  0.1465967E+04  0.7818608E-02  0.8907405E-01
          2   -1    0    0  501    0  0.00000000000E+00  0.00000000000E+00  0.79125492778E+03  0.79125492778E+03  0.00000000000E+00 0. -1.
         -2   -1    0    0    0  501 -0.00000000000E+00 -0.00000000000E+00 -0.67900324329E+03  0.67900324329E+03  0.00000000000E+00 0.  1.
         23    2    1    2    0    0  0.39732742069E+03 -0.19253024221E+03 -0.52665302205E+03  0.69363973359E+03  0.93998409444E+02 0.  0.
         13    1    3    3    0    0  0.27652508681E+03 -0.14522113354E+03 -0.43182166124E+03  0.53294019212E+03  0.00000000000E+00 0.  1.
        -13    1    3    3    0    0  0.12080233388E+03 -0.47309108673E+02 -0.94831360805E+02  0.16069954146E+03  0.00000000000E+00 0. -1.
         22    1    1    2    0    0 -0.39732742069E+03  0.19253024221E+03  0.63890470654E+03  0.77661843748E+03  0.00000000000E+00 0. -1.
<mgrwt>
<rscale>  0 0.14659668E+04</rscale>
<asrwt>0</asrwt>
<pdfrwt beam="1">  1        2 0.12173153E+00 0.14659668E+04</pdfrwt>
<pdfrwt beam="2">  1       -2 0.10446204E+00 0.14659668E+04</pdfrwt>
<totfact> 0.25201049E+01</totfact>
</mgrwt>
</event>
<event>
 6    1  0.2238133E-007  0.4000002E+04  0.7818608E-02  0.8004546E-01
         -2   -1    0    0    0  501 -0.00000000000E+00  0.00000000000E+00  0.25563819310E+04  0.25563819310E+04  0.00000000000E+00 0.  1.
          2   -1    0    0  501    0  0.00000000000E+00 -0.00000000000E+00 -0.15647129466E+04  0.15647129466E+04  0.00000000000E+00 0. -1.
         23    2    1    2    0    0 -0.14552840222E+03  0.12410558944E+04  0.21035512437E+04  0.24484680789E+04  0.93112027610E+02 0.  0.
         13    1    3    3    0    0 -0.72728450360E+02  0.81677400325E+03  0.14520642992E+04  0.16676030489E+04  0.00000000000E+00 0.  1.
        -13    1    3    3    0    0 -0.72799951858E+02  0.42428189120E+03  0.65148694454E+03  0.78086503001E+03  0.00000000000E+00 0. -1.
         22    1    1    2    0    0  0.14552840222E+03 -0.12410558944E+04 -0.11118822593E+04  0.16726267986E+04  0.00000000000E+00 0. -1.
<mgrwt>
<rscale>  0 0.40000020E+04</rscale>
<asrwt>0</asrwt>
<pdfrwt beam="1">  1        2 0.24072507E+00 0.40000020E+04</pdfrwt>
<pdfrwt beam="2">  1       -2 0.39328953E+00 0.40000020E+04</pdfrwt>
<totfact> 0.75561711E-02</totfact>
</mgrwt>
</event>
<event>
 6    1  0.2238133E-007  0.7861573E+03  0.7818608E-02  0.9580273E-01
         -2   -1    0    0    0  501 -0.00000000000E+00  0.00000000000E+00  0.73787612346E+02  0.73787612346E+02  0.00000000000E+00 0.  1.
          2   -1    0    0  501    0  0.00000000000E+00 -0.00000000000E+00 -0.20939943666E+04  0.20939943666E+04  0.00000000000E+00 0. -1.
         23    2    1    2    0    0 -0.14454609699E+03 -0.78424464889E+02 -0.19922714941E+04  0.20009756553E+04  0.87828789635E+02 0.  0.
         11    1    3    3    0    0 -0.11047693658E+03 -0.18588152624E+02 -0.98425509154E+03  0.99061029580E+03  0.00000000000E+00 0. -1.
        -11    1    3    3    0    0 -0.34069160417E+02 -0.59836312265E+02 -0.10080164025E+04  0.10103653595E+04  0.00000000000E+00 0.  1.
         22    1    1    2    0    0  0.14454609699E+03  0.78424464889E+02 -0.27935260227E+02  0.16680632366E+03  0.00000000000E+00 0.  1.
<mgrwt>
<rscale>  0 0.78615735E+03</rscale>
<asrwt>0</asrwt>
<pdfrwt beam="1">  1        2 0.32215292E+00 0.78615735E+03</pdfrwt>
<pdfrwt beam="2">  1       -2 0.11351942E-01 0.78615735E+03</pdfrwt>
<totfact> 0.33791640E+02</totfact>
</mgrwt>
</event>
<event>
 6    1  0.2351416E-007  0.2921054E+04  0.7818608E-02  0.8266641E-01
          2   -1    0    0  501    0  0.00000000000E+00  0.00000000000E+00  0.19005986020E+04  0.19005986020E+04  0.00000000000E+00 0. -1.
         -2   -1    0    0    0  501 -0.00000000000E+00 -0.00000000000E+00 -0.11223511589E+04  0.11223511589E+04  0.00000000000E+00 0.  1.
         23    2    1    2    0    0  0.77696808056E+03  0.23922447758E+03  0.16433854213E+04  0.18357802405E+04  0.92009236092E+02 0.  0.
         13    1    3    3    0    0  0.26473178953E+03  0.46846134961E+02  0.48054309474E+03  0.55063522104E+03  0.00000000000E+00 0. -1.
        -13    1    3    3    0    0  0.51223629103E+03  0.19237834262E+03  0.11628423266E+04  0.12851450195E+04  0.00000000000E+00 0.  1.
         22    1    1    2    0    0 -0.77696808056E+03 -0.23922447758E+03 -0.86513797815E+03  0.11871695204E+04  0.00000000000E+00 0.  1.
<mgrwt>
<rscale>  0 0.29210539E+04</rscale>
<asrwt>0</asrwt>
<pdfrwt beam="1">  1        2 0.29239978E+00 0.29210539E+04</pdfrwt>
<pdfrwt beam="2">  1       -2 0.17266941E+00 0.29210539E+04</pdfrwt>
<totfact> 0.13340838E+00</totfact>
</mgrwt>
</event>
<event>
 6    1  0.2238133E-007  0.2997344E+04  0.7818608E-02  0.8244490E-01
          2   -1    0    0  501    0  0.00000000000E+00  0.00000000000E+00  0.19906883646E+04  0.19906883646E+04  0.00000000000E+00 0. -1.
         -2   -1    0    0    0  501 -0.00000000000E+00 -0.00000000000E+00 -0.11282617324E+04  0.11282617324E+04  0.00000000000E+00 0.  1.
         23    2    1    2    0    0  0.11895321186E+04 -0.29996164039E+03 -0.46168952401E+03  0.13138885352E+04  0.90455621379E+02 0.  0.
         11    1    3    3    0    0  0.37580290359E+03 -0.51810781180E+02 -0.14555230298E+03  0.40632210412E+03  0.00000000000E+00 0.  1.
        -11    1    3    3    0    0  0.81372921504E+03 -0.24815085921E+03 -0.31613722104E+03  0.90756643110E+03  0.00000000000E+00 0. -1.
         22    1    1    2    0    0 -0.11895321186E+04  0.29996164039E+03  0.13241161562E+04  0.18050615619E+04  0.00000000000E+00 0. -1.
<mgrwt>
<rscale>  0 0.29973438E+04</rscale>
<asrwt>0</asrwt>
<pdfrwt beam="1">  1        2 0.30625975E+00 0.29973438E+04</pdfrwt>
<pdfrwt beam="2">  1       -2 0.17357873E+00 0.29973438E+04</pdfrwt>
<totfact> 0.11640657E+00</totfact>
</mgrwt>
</event>
<event>
 6    1  0.2238133E-007  0.4429908E+04  0.7818608E-02  0.7923024E-01
          2   -1    0    0  501    0  0.00000000000E+00  0.00000000000E+00  0.21691123009E+04  0.21691123009E+04  0.00000000000E+00 0. -1.
         -2   -1    0    0    0  501 -0.00000000000E+00 -0.00000000000E+00 -0.22617648768E+04  0.22617648768E+04  0.00000000000E+00 0.  1.
         23    2    1    2    0    0  0.90542450168E+02 -0.56245015807E+03  0.20935971124E+04  0.21716215891E+04  0.90792849543E+02 0.  0.
         13    1    3    3    0    0  0.85394147879E+02 -0.25638681400E+03  0.93487485892E+03  0.97314816997E+03  0.00000000000E+00 0.  1.
        -13    1    3    3    0    0  0.51483022897E+01 -0.30606334408E+03  0.11587222535E+04  0.11984734191E+04  0.00000000000E+00 0. -1.
         22    1    1    2    0    0 -0.90542450168E+02  0.56245015807E+03 -0.21862496882E+04  0.22592555887E+04  0.00000000000E+00 0.  1.
<mgrwt>
<rscale>  0 0.44299084E+04</rscale>
<asrwt>0</asrwt>
<pdfrwt beam="1">  1        2 0.33370959E+00 0.44299084E+04</pdfrwt>
<pdfrwt beam="2">  1       -2 0.34796383E+00 0.44299084E+04</pdfrwt>
<totfact> 0.65625360E-02</totfact>
</mgrwt>
</event>
<event>
 6    1  0.2238133E-007  0.1716342E+04  0.7818608E-02  0.8752099E-01
          3   -1    0    0  501    0  0.00000000000E+00  0.00000000000E+00  0.55811536756E+03  0.55811536756E+03  0.00000000000E+00 0. -1.
         -3   -1    0    0    0  501 -0.00000000000E+00 -0.00000000000E+00 -0.13195430441E+04  0.13195430441E+04  0.00000000000E+00 0.  1.
         23    2    1    2    0    0 -0.36438853093E+03  0.59516776354E+03 -0.92334014254E+03  0.11612651434E+04  0.94741997979E+02 0.  0.
         11    1    3    3    0    0 -0.14915855322E+03  0.29720648335E+03 -0.37592976904E+03  0.50189955070E+03  0.00000000000E+00 0.  1.
        -11    1    3    3    0    0 -0.21522997772E+03  0.29796128019E+03 -0.54741037350E+03  0.65936559269E+03  0.00000000000E+00 0. -1.
         22    1    1    2    0    0  0.36438853093E+03 -0.59516776354E+03  0.16191246598E+03  0.71639326830E+03  0.00000000000E+00 0. -1.
<mgrwt>
<rscale>  0 0.17163418E+04</rscale>
<asrwt>0</asrwt>
<pdfrwt beam="1">  1        3 0.85863904E-01 0.17163418E+04</pdfrwt>
<pdfrwt beam="2">  1       -3 0.20300662E+00 0.17163418E+04</pdfrwt>
<totfact> 0.43275386E-01</totfact>
</mgrwt>
</event>
<event>
 6    1  0.2238133E-007  0.1390583E+04  0.7818608E-02  0.8960664E-01
          2   -1    0    0  501    0  0.00000000000E+00  0.00000000000E+00  0.35670036999E+03  0.35670036999E+03  0.00000000000E+00 0. -1.
         -2   -1    0    0    0  501 -0.00000000000E+00 -0.00000000000E+00 -0.13552830394E+04  0.13552830394E+04  0.00000000000E+00 0.  1.
         23    2    1    2    0    0 -0.54483966822E+02 -0.44896168183E+03 -0.11468428589E+04  0.12360462515E+04  0.89591844775E+02 0.  0.
         13    1    3    3    0    0  0.13660383302E+02 -0.19937082831E+03 -0.56406271651E+03  0.59841631112E+03  0.00000000000E+00 0.  1.
        -13    1    3    3    0    0 -0.68144350124E+02 -0.24959085353E+03 -0.58278014234E+03  0.63762994042E+03  0.00000000000E+00 0. -1.
         22    1    1    2    0    0  0.54483966822E+02  0.44896168183E+03  0.14826018949E+03  0.47593715781E+03  0.00000000000E+00 0.  1.
<mgrwt>
<rscale>  0 0.13905826E+04</rscale>
<asrwt>0</asrwt>
<pdfrwt beam="1">  1        2 0.54876980E-01 0.13905826E+04</pdfrwt>
<pdfrwt beam="2">  1       -2 0.20850508E+00 0.13905826E+04</pdfrwt>
<totfact> 0.10307917E+01</totfact>
</mgrwt>
</event>
<event>
 6    1  0.2238133E-007  0.2022795E+04  0.7818608E-02  0.8596037E-01
          2   -1    0    0  501    0  0.00000000000E+00  0.00000000000E+00  0.18737140668E+04  0.18737140668E+04  0.00000000000E+00 0. -1.
         -2   -1    0    0    0  501 -0.00000000000E+00 -0.00000000000E+00 -0.54593436397E+03  0.54593436397E+03  0.00000000000E+00 0.  1.
         23    2    1    2    0    0  0.40790530973E+03 -0.35103864779E+03 -0.35627499678E+03  0.65169619577E+03  0.90339273317E+02 0.  0.
         13    1    3    3    0    0  0.85287253753E+02 -0.12581048227E+03 -0.90764921985E+02  0.17703238169E+03  0.00000000000E+00 0. -1.
        -13    1    3    3    0    0  0.32261805597E+03 -0.22522816552E+03 -0.26551007479E+03  0.47466381408E+03  0.00000000000E+00 0.  1.
         22    1    1    2    0    0 -0.40790530973E+03  0.35103864779E+03  0.16840546996E+04  0.17679522350E+04  0.00000000000E+00 0. -1.
<mgrwt>
<rscale>  0 0.20227950E+04</rscale>
<asrwt>0</asrwt>
<pdfrwt beam="1">  1        2 0.28826370E+00 0.20227950E+04</pdfrwt>
<pdfrwt beam="2">  1       -2 0.83989903E-01 0.20227950E+04</pdfrwt>
<totfact> 0.90160598E+00</totfact>
</mgrwt>
</event>
<event>
 6    1  0.2238133E-007  0.6746866E+03  0.7818608E-02  0.9761528E-01
          2   -1    0    0  501    0  0.00000000000E+00  0.00000000000E+00  0.11094396784E+04  0.11094396784E+04  0.00000000000E+00 0. -1.
         -2   -1    0    0    0  501 -0.00000000000E+00 -0.00000000000E+00 -0.10257475770E+03  0.10257475770E+03  0.00000000000E+00 0.  1.
         23    2    1    2    0    0 -0.21668378065E+03  0.11421006143E+03  0.91316765971E+03  0.94976460167E+03  0.90453440610E+02 0.  0.
         13    1    3    3    0    0 -0.16366413903E+03  0.68686109863E+02  0.49638402598E+03  0.52716300453E+03  0.00000000000E+00 0.  1.
        -13    1    3    3    0    0 -0.53019641616E+02  0.45523951565E+02  0.41678363373E+03  0.42260159714E+03  0.00000000000E+00 0. -1.
         22    1    1    2    0    0  0.21668378065E+03 -0.11421006143E+03  0.93697260958E+02  0.26224983439E+03  0.00000000000E+00 0.  1.
<mgrwt>
<rscale>  0 0.67468661E+03</rscale>
<asrwt>0</asrwt>
<pdfrwt beam="1">  1        2 0.17068302E+00 0.67468661E+03</pdfrwt>
<pdfrwt beam="2">  1       -2 0.15780733E-01 0.67468661E+03</pdfrwt>
<totfact> 0.69700653E+02</totfact>
</mgrwt>
</event>
<event>
 6    1  0.2238133E-007  0.1520095E+04  0.7818608E-02  0.8871199E-01
         -2   -1    0    0    0  501 -0.00000000000E+00  0.00000000000E+00  0.76142445095E+03  0.76142445095E+03  0.00000000000E+00 0.  1.
          2   -1    0    0  501    0  0.00000000000E+00 -0.00000000000E+00 -0.75867286177E+03  0.75867286177E+03  0.00000000000E+00 0. -1.
         23    2    1    2    0    0  0.60038787047E+03  0.24548842652E+03  0.39228553383E+03  0.76348191729E+03  0.91030409309E+02 0.  0.
         11    1    3    3    0    0  0.47917024874E+03  0.20724159062E+03  0.27286207151E+03  0.58907292777E+03  0.00000000000E+00 0.  1.
        -11    1    3    3    0    0  0.12121762173E+03  0.38246835894E+02  0.11942346233E+03  0.17440898953E+03  0.00000000000E+00 0. -1.
         22    1    1    2    0    0 -0.60038787047E+03 -0.24548842652E+03 -0.38953394465E+03  0.75661539543E+03  0.00000000000E+00 0. -1.
<mgrwt>
<rscale>  0 0.15200948E+04</rscale>
<asrwt>0</asrwt>
<pdfrwt beam="1">  1        2 0.11671890E+00 0.15200948E+04</pdfrwt>
<pdfrwt beam="2">  1       -2 0.11714222E+00 0.15200948E+04</pdfrwt>
<totfact> 0.20085748E+01</totfact>
</mgrwt>
</event>
<event>
 6    1  0.2238133E-007  0.2300035E+04  0.7818608E-02  0.8477907E-01
          2   -1    0    0  501    0  0.00000000000E+00  0.00000000000E+00  0.22352441265E+04  0.22352441265E+04  0.00000000000E+00 0. -1.
         -2   -1    0    0    0  501 -0.00000000000E+00 -0.00000000000E+00 -0.59167592907E+03  0.59167592907E+03  0.00000000000E+00 0.  1.
         23    2    1    2    0    0  0.10677062421E+03  0.52105180107E+03  0.20737521731E+04  0.21428490078E+04  0.91972001707E+02 0.  0.
         13    1    3    3    0    0  0.72217507821E+02  0.27993041011E+03  0.12956418424E+04  0.13275029893E+04  0.00000000000E+00 0. -1.
        -13    1    3    3    0    0  0.34553116389E+02  0.24112139096E+03  0.77811033068E+03  0.81534601842E+03  0.00000000000E+00 0.  1.
         22    1    1    2    0    0 -0.10677062421E+03 -0.52105180107E+03 -0.43018397563E+03  0.68407104783E+03  0.00000000000E+00 0.  1.
<mgrwt>
<rscale>  0 0.23000349E+04</rscale>
<asrwt>0</asrwt>
<pdfrwt beam="1">  1        2 0.34388371E+00 0.23000349E+04</pdfrwt>
<pdfrwt beam="2">  1       -2 0.91027067E-01 0.23000349E+04</pdfrwt>
<totfact> 0.46032620E+00</totfact>
</mgrwt>
</event>
<event>
 6    1  0.2238133E-007  0.2875165E+04  0.7818608E-02  0.8280305E-01
         -2   -1    0    0    0  501 -0.00000000000E+00  0.00000000000E+00  0.11476876507E+04  0.11476876507E+04  0.00000000000E+00 0.  1.
          2   -1    0    0  501    0  0.00000000000E+00 -0.00000000000E+00 -0.18007020319E+04  0.18007020319E+04  0.00000000000E+00 0. -1.
         23    2    1    2    0    0  0.10229620564E+04  0.87985732372E+03 -0.83109205934E+03  0.15873930117E+04  0.92207827710E+02 0.  0.
         11    1    3    3    0    0  0.70443154098E+03  0.55042250831E+03 -0.53572708836E+03  0.10422054724E+04  0.00000000000E+00 0. -1.
        -11    1    3    3    0    0  0.31853051540E+03  0.32943481541E+03 -0.29536497097E+03  0.54518753922E+03  0.00000000000E+00 0.  1.
         22    1    1    2    0    0 -0.10229620564E+04 -0.87985732372E+03  0.17807767814E+03  0.13609966710E+04  0.00000000000E+00 0. -1.
<mgrwt>
<rscale>  0 0.28751650E+04</rscale>
<asrwt>0</asrwt>
<pdfrwt beam="1">  1        2 0.27703108E+00 0.28751650E+04</pdfrwt>
<pdfrwt beam="2">  1       -2 0.17656733E+00 0.28751650E+04</pdfrwt>
<totfact> 0.14284893E+00</totfact>
</mgrwt>
</event>
<event>
 6    1  0.2238133E-007  0.2860532E+04  0.7818608E-02  0.8284718E-01
          2   -1    0    0  501    0  0.00000000000E+00  0.00000000000E+00  0.18272039041E+04  0.18272039041E+04  0.00000000000E+00 0. -1.
         -2   -1    0    0    0  501 -0.00000000000E+00 -0.00000000000E+00 -0.11195581726E+04  0.11195581726E+04  0.00000000000E+00 0.  1.
         23    2    1    2    0    0  0.23944691816E+02  0.24938372724E+03  0.18032622679E+04  0.18228665361E+04  0.91225050982E+02 0.  0.
         13    1    3    3    0    0 -0.20517065671E+02  0.19634075244E+03  0.13351078784E+04  0.13496235356E+04  0.00000000000E+00 0. -1.
        -13    1    3    3    0    0  0.44461757487E+02  0.53042974799E+02  0.46815438950E+03  0.47324300044E+03  0.00000000000E+00 0.  1.
         22    1    1    2    0    0 -0.23944691816E+02 -0.24938372724E+03 -0.10956165363E+04  0.11238955406E+04  0.00000000000E+00 0.  1.
<mgrwt>
<rscale>  0 0.28605322E+04</rscale>
<asrwt>0</asrwt>
<pdfrwt beam="1">  1        2 0.28110829E+00 0.28605322E+04</pdfrwt>
<pdfrwt beam="2">  1       -2 0.17223972E+00 0.28605322E+04</pdfrwt>
<totfact> 0.14829231E+00</totfact>
</mgrwt>
</event>
<event>
 6    1  0.2238133E-007  0.8413785E+04  0.7818608E-02  0.7446952E-01
          2   -1    0    0  501    0  0.00000000000E+00  0.00000000000E+00  0.42540579983E+04  0.42540579983E+04  0.00000000000E+00 0. -1.
         -2   -1    0    0    0  501 -0.00000000000E+00 -0.00000000000E+00 -0.41602503398E+04  0.41602503398E+04  0.00000000000E+00 0.  1.
         23    2    1    2    0    0 -0.36842707857E+04  0.17508607411E+04  0.10739287067E+04  0.42190727278E+04  0.88810241022E+02 0.  0.
         11    1    3    3    0    0 -0.28012785821E+04  0.12969359880E+04  0.83548074624E+03  0.31980044916E+04  0.00000000000E+00 0.  1.
        -11    1    3    3    0    0 -0.88299220360E+03  0.45392475317E+03  0.23844796041E+03  0.10210682362E+04  0.00000000000E+00 0. -1.
         22    1    1    2    0    0  0.36842707857E+04 -0.17508607411E+04 -0.98012104820E+03  0.41952356103E+04  0.00000000000E+00 0.  1.
<mgrwt>
<rscale>  0 0.84137854E+04</rscale>
<asrwt>0</asrwt>
<pdfrwt beam="1">  1        2 0.65447046E+00 0.84137854E+04</pdfrwt>
<pdfrwt beam="2">  1       -2 0.64003852E+00 0.84137854E+04</pdfrwt>
<totfact> 0.43798024E-05</totfact>
</mgrwt>
</event>
<event>
 6    1  0.2238133E-007  0.2679321E+04  0.7818608E-02  0.8341746E-01
          2   -1    0    0  501    0  0.00000000000E+00  0.00000000000E+00  0.14379330953E+04  0.14379330953E+04  0.00000000000E+00 0. -1.
         -2   -1    0    0    0  501 -0.00000000000E+00 -0.00000000000E+00 -0.12481037420E+04  0.12481037420E+04  0.00000000000E+00 0.  1.
         23    2    1    2    0    0 -0.35917449422E+03  0.43887924450E+03 -0.11199731284E+04  0.12587303356E+04  0.91874593804E+02 0.  0.
         13    1    3    3    0    0 -0.11950753807E+03  0.15553866254E+03 -0.48655271099E+03  0.52460258079E+03  0.00000000000E+00 0.  1.
        -13    1    3    3    0    0 -0.23966695615E+03  0.28334058197E+03 -0.63342041739E+03  0.73412775484E+03  0.00000000000E+00 0. -1.
         22    1    1    2    0    0  0.35917449422E+03 -0.43887924450E+03  0.13098024817E+04  0.14273065016E+04  0.00000000000E+00 0. -1.
<mgrwt>
<rscale>  0 0.26793206E+04</rscale>
<asrwt>0</asrwt>
<pdfrwt beam="1">  1        2 0.22122048E+00 0.26793206E+04</pdfrwt>
<pdfrwt beam="2">  1       -2 0.19201596E+00 0.26793206E+04</pdfrwt>
<totfact> 0.18178939E+00</totfact>
</mgrwt>
</event>
<event>
 6    1  0.2238133E-007  0.3046436E+04  0.7818608E-02  0.8230594E-01
         -2   -1    0    0    0  501 -0.00000000000E+00  0.00000000000E+00  0.67740601848E+03  0.67740601848E+03  0.00000000000E+00 0.  1.
          2   -1    0    0  501    0  0.00000000000E+00 -0.00000000000E+00 -0.34251149501E+04  0.34251149501E+04  0.00000000000E+00 0. -1.
         23    2    1    2    0    0  0.79172836253E+03  0.86246091971E+03 -0.65788530996E+02  0.11761973923E+04  0.91866951010E+02 0.  0.
         11    1    3    3    0    0  0.16703379116E+03  0.22693847171E+03 -0.40672195039E+02  0.28470262517E+03  0.00000000000E+00 0.  1.
        -11    1    3    3    0    0  0.62469457137E+03  0.63552244801E+03 -0.25116335957E+02  0.89149476709E+03  0.00000000000E+00 0. -1.
         22    1    1    2    0    0 -0.79172836253E+03 -0.86246091971E+03 -0.26819204006E+04  0.29263235763E+04  0.00000000000E+00 0. -1.
<mgrwt>
<rscale>  0 0.30464363E+04</rscale>
<asrwt>0</asrwt>
<pdfrwt beam="1">  1        2 0.52694076E+00 0.30464363E+04</pdfrwt>
<pdfrwt beam="2">  1       -2 0.10421631E+00 0.30464363E+04</pdfrwt>
<totfact> 0.58430747E-01</totfact>
</mgrwt>
</event>
<event>
 6    1  0.2238133E-007  0.2377726E+04  0.7818608E-02  0.8447890E-01
         -2   -1    0    0    0  501 -0.00000000000E+00  0.00000000000E+00  0.85553557236E+03  0.85553557236E+03  0.00000000000E+00 0.  1.
          2   -1    0    0  501    0  0.00000000000E+00 -0.00000000000E+00 -0.16520593361E+04  0.16520593361E+04  0.00000000000E+00 0. -1.
         23    2    1    2    0    0 -0.26472626249E+03  0.49323915941E+03  0.70539272392E+03  0.90474806663E+03  0.87323002065E+02 0.  0.
         11    1    3    3    0    0 -0.16563503524E+03  0.24402226836E+03  0.31952555677E+03  0.43483147745E+03  0.00000000000E+00 0. -1.
        -11    1    3    3    0    0 -0.99091227253E+02  0.24921689104E+03  0.38586716715E+03  0.46991658918E+03  0.00000000000E+00 0.  1.
         22    1    1    2    0    0  0.26472626249E+03 -0.49323915941E+03 -0.15019164876E+04  0.16028468418E+04  0.00000000000E+00 0. -1.
<mgrwt>
<rscale>  0 0.23777262E+04</rscale>
<asrwt>0</asrwt>
<pdfrwt beam="1">  1        2 0.25416297E+00 0.23777262E+04</pdfrwt>
<pdfrwt beam="2">  1       -2 0.13162086E+00 0.23777262E+04</pdfrwt>
<totfact> 0.39546880E+00</totfact>
</mgrwt>
</event>
<event>
 6    1  0.2238133E-007  0.3798142E+04  0.7818608E-02  0.8046554E-01
         -2   -1    0    0    0  501 -0.00000000000E+00  0.00000000000E+00  0.11856120709E+04  0.11856120709E+04  0.00000000000E+00 0.  1.
          2   -1    0    0  501    0  0.00000000000E+00 -0.00000000000E+00 -0.30418645781E+04  0.30418645781E+04  0.00000000000E+00 0. -1.
         23    2    1    2    0    0 -0.12394844527E+04 -0.11846133088E+04 -0.18347349218E+04  0.25128065914E+04  0.91182961816E+02 0.  0.
         11    1    3    3    0    0 -0.11989903481E+03 -0.94986274055E+02 -0.19704441176E+03  0.24944873424E+03  0.00000000000E+00 0.  1.
        -11    1    3    3    0    0 -0.11195854179E+04 -0.10896270347E+04 -0.16376905101E+04  0.22633578572E+04  0.00000000000E+00 0. -1.
         22    1    1    2    0    0  0.12394844527E+04  0.11846133088E+04 -0.21517585391E+02  0.17146700576E+04  0.00000000000E+00 0.  1.
<mgrwt>
<rscale>  0 0.37981424E+04</rscale>
<asrwt>0</asrwt>
<pdfrwt beam="1">  1        2 0.46797916E+00 0.37981424E+04</pdfrwt>
<pdfrwt beam="2">  1       -2 0.18240186E+00 0.37981424E+04</pdfrwt>
<totfact> 0.22919703E-01</totfact>
</mgrwt>
</event>
<event>
 6    1  0.2238133E-007  0.1011489E+04  0.7818608E-02  0.9296033E-01
          2   -1    0    0  501    0  0.00000000000E+00  0.00000000000E+00  0.80668533726E+03  0.80668533726E+03  0.00000000000E+00 0. -1.
         -2   -1    0    0    0  501 -0.00000000000E+00 -0.00000000000E+00 -0.31707229809E+03  0.31707229809E+03  0.00000000000E+00 0.  1.
         23    2    1    2    0    0  0.12947042391E+03  0.28062855298E+02 -0.29102197137E+03  0.33196149101E+03  0.89188167250E+02 0.  0.
         13    1    3    3    0    0  0.12119434282E+03 -0.43962157993E+01 -0.18883124274E+03  0.22442066233E+03  0.00000000000E+00 0. -1.
        -13    1    3    3    0    0  0.82760810825E+01  0.32459071097E+02 -0.10219072863E+03  0.10754082868E+03  0.00000000000E+00 0.  1.
         22    1    1    2    0    0 -0.12947042391E+03 -0.28062855298E+02  0.78063501054E+03  0.79179614434E+03  0.00000000000E+00 0. -1.
<mgrwt>
<rscale>  0 0.10114891E+04</rscale>
<asrwt>0</asrwt>
<pdfrwt beam="1">  1        2 0.12410544E+00 0.10114891E+04</pdfrwt>
<pdfrwt beam="2">  1       -2 0.48780354E-01 0.10114891E+04</pdfrwt>
<totfact> 0.13525579E+02</totfact>
</mgrwt>
</event>
<event>
 6    1  0.2238133E-007  0.8934804E+03  0.7818608E-02  0.9433768E-01
          2   -1    0    0  501    0  0.00000000000E+00  0.00000000000E+00  0.34419649794E+04  0.34419649794E+04  0.00000000000E+00 0. -1.
         -2   -1    0    0    0  501 -0.00000000000E+00 -0.00000000000E+00 -0.57983398168E+02  0.57983398168E+02  0.00000000000E+00 0.  1.
         23    2    1    2    0    0 -0.39491401763E+03  0.10409587805E+03  0.23722711425E+04  0.24089162767E+04  0.91729067205E+02 0.  0.
         13    1    3    3    0    0 -0.26469044155E+03  0.11345170804E+03  0.16473590610E+04  0.16723409329E+04  0.00000000000E+00 0. -1.
        -13    1    3    3    0    0 -0.13022357609E+03 -0.93558299912E+01  0.72491208143E+03  0.73657534382E+03  0.00000000000E+00 0.  1.
         22    1    1    2    0    0  0.39491401763E+03 -0.10409587805E+03  0.10117104388E+04  0.10910321009E+04  0.00000000000E+00 0.  1.
<mgrwt>
<rscale>  0 0.89348044E+03</rscale>
<asrwt>0</asrwt>
<pdfrwt beam="1">  1        2 0.52953292E+00 0.89348044E+03</pdfrwt>
<pdfrwt beam="2">  1       -2 0.89205255E-02 0.89348044E+03</pdfrwt>
<totfact> 0.77628160E+01</totfact>
</mgrwt>
</event>
<event>
 6    1  0.2238133E-007  0.1351308E+04  0.7818608E-02  0.8989839E-01
         -2   -1    0    0    0  501 -0.00000000000E+00  0.00000000000E+00  0.66710983989E+03  0.66710983989E+03  0.00000000000E+00 0.  1.
          2   -1    0    0  501    0  0.00000000000E+00 -0.00000000000E+00 -0.68430759495E+03  0.68430759495E+03  0.00000000000E+00 0. -1.
         23    2    1    2    0    0  0.47904777539E+03  0.31236896263E+03  0.34539637568E+03  0.67426483492E+03  0.90957525015E+02 0.  0.
         11    1    3    3    0    0  0.35509793890E+03  0.18423669632E+03  0.22279989023E+03  0.45790555529E+03  0.00000000000E+00 0.  1.
        -11    1    3    3    0    0  0.12394983649E+03  0.12813226631E+03  0.12259648546E+03  0.21635927963E+03  0.00000000000E+00 0. -1.
         22    1    1    2    0    0 -0.47904777539E+03 -0.31236896263E+03 -0.36259413075E+03  0.67715259992E+03  0.00000000000E+00 0. -1.
<mgrwt>
<rscale>  0 0.13513080E+04</rscale>
<asrwt>0</asrwt>
<pdfrwt beam="1">  1        2 0.10527809E+00 0.13513080E+04</pdfrwt>
<pdfrwt beam="2">  1       -2 0.10263228E+00 0.13513080E+04</pdfrwt>
<totfact> 0.31978883E+01</totfact>
</mgrwt>
</event>
<event>
 6    1  0.2238133E-007  0.4311129E+04  0.7818608E-02  0.7944564E-01
         -2   -1    0    0    0  501 -0.00000000000E+00  0.00000000000E+00  0.12667186316E+04  0.12667186316E+04  0.00000000000E+00 0.  1.
          2   -1    0    0  501    0  0.00000000000E+00 -0.00000000000E+00 -0.36681054790E+04  0.36681054790E+04  0.00000000000E+00 0. -1.
         23    2    1    2    0    0  0.11895412049E+04  0.44424122948E+03 -0.31937039336E+04  0.34381194259E+04  0.92530120629E+02 0.  0.
         13    1    3    3    0    0  0.27036418850E+03  0.88862123405E+02 -0.81957421761E+03  0.86758006522E+03  0.00000000000E+00 0. -1.
        -13    1    3    3    0    0  0.91917701644E+03  0.35537910607E+03 -0.23741297160E+04  0.25705393607E+04  0.00000000000E+00 0.  1.
         22    1    1    2    0    0 -0.11895412049E+04 -0.44424122948E+03  0.79231708618E+03  0.14967046847E+04  0.00000000000E+00 0.  1.
<mgrwt>
<rscale>  0 0.43111286E+04</rscale>
<asrwt>0</asrwt>
<pdfrwt beam="1">  1        2 0.56432393E+00 0.43111286E+04</pdfrwt>
<pdfrwt beam="2">  1       -2 0.19487979E+00 0.43111286E+04</pdfrwt>
<totfact> 0.67983983E-02</totfact>
</mgrwt>
</event>
<event>
 6    1  0.2238133E-007  0.2325454E+04  0.7818608E-02  0.8467952E-01
         -2   -1    0    0    0  501 -0.00000000000E+00  0.00000000000E+00  0.59015105572E+03  0.59015105572E+03  0.00000000000E+00 0.  1.
          2   -1    0    0  501    0  0.00000000000E+00 -0.00000000000E+00 -0.22908281428E+04  0.22908281428E+04  0.00000000000E+00 0. -1.
         23    2    1    2    0    0 -0.65722532326E+03  0.42942623853E+03  0.20809244599E+03  0.81706225489E+03  0.89085590359E+02 0.  0.
         13    1    3    3    0    0 -0.20685047615E+03  0.10101557815E+03  0.90796733127E+02  0.24745769994E+03  0.00000000000E+00 0.  1.
        -13    1    3    3    0    0 -0.45037484711E+03  0.32841066038E+03  0.11729571286E+03  0.56960455495E+03  0.00000000000E+00 0. -1.
         22    1    1    2    0    0  0.65722532326E+03 -0.42942623853E+03 -0.19087695331E+04  0.20639169437E+04  0.00000000000E+00 0. -1.
<mgrwt>
<rscale>  0 0.23254545E+04</rscale>
<asrwt>0</asrwt>
<pdfrwt beam="1">  1        2 0.35243511E+00 0.23254545E+04</pdfrwt>
<pdfrwt beam="2">  1       -2 0.90792468E-01 0.23254545E+04</pdfrwt>
<totfact> 0.42983805E+00</totfact>
</mgrwt>
</event>
<event>
 6    1  0.2238133E-007  0.1960198E+04  0.7818608E-02  0.8625459E-01
          2   -1    0    0  501    0  0.00000000000E+00  0.00000000000E+00  0.12195551514E+04  0.12195551514E+04  0.00000000000E+00 0. -1.
         -2   -1    0    0    0  501 -0.00000000000E+00 -0.00000000000E+00 -0.78765954733E+03  0.78765954733E+03  0.00000000000E+00 0.  1.
         23    2    1    2    0    0 -0.75223646584E+03  0.62386083699E+03  0.26014755747E+03  0.10149650144E+04  0.86111465108E+02 0.  0.
         11    1    3    3    0    0 -0.16645163075E+03  0.11679958505E+03  0.86534872017E+02  0.22098998285E+03  0.00000000000E+00 0. -1.
        -11    1    3    3    0    0 -0.58578483509E+03  0.50706125194E+03  0.17361268545E+03  0.79397503159E+03  0.00000000000E+00 0.  1.
         22    1    1    2    0    0  0.75223646584E+03 -0.62386083699E+03  0.17174804661E+03  0.99224968430E+03  0.00000000000E+00 0.  1.
<mgrwt>
<rscale>  0 0.19601982E+04</rscale>
<asrwt>0</asrwt>
<pdfrwt beam="1">  1        2 0.18762387E+00 0.19601982E+04</pdfrwt>
<pdfrwt beam="2">  1       -2 0.12117839E+00 0.19601982E+04</pdfrwt>
<totfact> 0.89075844E+00</totfact>
</mgrwt>
</event>
<event>
 6    1  0.2238133E-007  0.1551509E+04  0.7818608E-02  0.8850904E-01
         -2   -1    0    0    0  501 -0.00000000000E+00  0.00000000000E+00  0.30984292177E+03  0.30984292177E+03  0.00000000000E+00 0.  1.
          2   -1    0    0  501    0  0.00000000000E+00 -0.00000000000E+00 -0.19422594048E+04  0.19422594048E+04  0.00000000000E+00 0. -1.
         23    2    1    2    0    0  0.64927032478E+03  0.30119615431E+03 -0.39530239917E+03  0.82286395089E+03  0.92574385664E+02 0.  0.
         13    1    3    3    0    0  0.43027818665E+03  0.18494110654E+03 -0.20965351159E+03  0.51312486367E+03  0.00000000000E+00 0. -1.
        -13    1    3    3    0    0  0.21899213813E+03  0.11625504776E+03 -0.18564888758E+03  0.30973908722E+03  0.00000000000E+00 0.  1.
         22    1    1    2    0    0 -0.64927032478E+03 -0.30119615431E+03 -0.12371140838E+04  0.14292383756E+04  0.00000000000E+00 0. -1.
<mgrwt>
<rscale>  0 0.15515094E+04</rscale>
<asrwt>0</asrwt>
<pdfrwt beam="1">  1        2 0.29880914E+00 0.15515094E+04</pdfrwt>
<pdfrwt beam="2">  1       -2 0.47668142E-01 0.15515094E+04</pdfrwt>
<totfact> 0.28879443E+01</totfact>
</mgrwt>
</event>
<event>
 6    1  0.2238133E-007  0.2386689E+04  0.7818608E-02  0.8444504E-01
         -2   -1    0    0    0  501 -0.00000000000E+00  0.00000000000E+00  0.96213418523E+03  0.96213418523E+03  0.00000000000E+00 0.  1.
          2   -1    0    0  501    0  0.00000000000E+00 -0.00000000000E+00 -0.14801165753E+04  0.14801165753E+04  0.00000000000E+00 0. -1.
         23    2    1    2    0    0 -0.65308339918E+03  0.64664785602E+02 -0.12762769889E+04  0.14393997450E+04  0.11085672175E+03 0.  0.
         11    1    3    3    0    0 -0.35187987947E+03  0.46590759861E+02 -0.57168901600E+03  0.67291788466E+03  0.00000000000E+00 0. -1.
        -11    1    3    3    0    0 -0.30120351970E+03  0.18074025741E+02 -0.70458797285E+03  0.76648186031E+03  0.00000000000E+00 0.  1.
         22    1    1    2    0    0  0.65308339918E+03 -0.64664785602E+02  0.75829459881E+03  0.10028510155E+04  0.00000000000E+00 0.  1.
<mgrwt>
<rscale>  0 0.23866887E+04</rscale>
<asrwt>0</asrwt>
<pdfrwt beam="1">  1        2 0.22771024E+00 0.23866887E+04</pdfrwt>
<pdfrwt beam="2">  1       -2 0.14802064E+00 0.23866887E+04</pdfrwt>
<totfact> 0.36400810E+00</totfact>
</mgrwt>
</event>
<event>
 6    1  0.2238133E-007  0.1332385E+04  0.7818608E-02  0.9004271E-01
          2   -1    0    0  501    0  0.00000000000E+00  0.00000000000E+00  0.18655290254E+04  0.18655290254E+04  0.00000000000E+00 0. -1.
         -2   -1    0    0    0  501 -0.00000000000E+00 -0.00000000000E+00 -0.23790157630E+03  0.23790157630E+03  0.00000000000E+00 0.  1.
         23    2    1    2    0    0  0.24389644261E+03  0.56418935288E+03  0.12100595419E+04  0.13603572152E+04  0.92371842654E+02 0.  0.
         11    1    3    3    0    0  0.31910417324E+02  0.24317815730E+02  0.10358702114E+03  0.11108511081E+03  0.00000000000E+00 0.  1.
        -11    1    3    3    0    0  0.21198602528E+03  0.53987153715E+03  0.11064725208E+04  0.12492721044E+04  0.00000000000E+00 0. -1.
         22    1    1    2    0    0 -0.24389644261E+03 -0.56418935288E+03  0.41756790715E+03  0.74307338648E+03  0.00000000000E+00 0.  1.
<mgrwt>
<rscale>  0 0.13323848E+04</rscale>
<asrwt>0</asrwt>
<pdfrwt beam="1">  1        2 0.28700446E+00 0.13323848E+04</pdfrwt>
<pdfrwt beam="2">  1       -2 0.36600244E-01 0.13323848E+04</pdfrwt>
<totfact> 0.54570807E+01</totfact>
</mgrwt>
</event>
<event>
 6    1  0.2238133E-007  0.9629575E+03  0.7818608E-02  0.9350132E-01
         -2   -1    0    0    0  501 -0.00000000000E+00  0.00000000000E+00  0.23867541885E+03  0.23867541885E+03  0.00000000000E+00 0.  1.
          2   -1    0    0  501    0  0.00000000000E+00 -0.00000000000E+00 -0.97128469818E+03  0.97128469818E+03  0.00000000000E+00 0. -1.
         23    2    1    2    0    0 -0.22090837366E+03  0.36818315287E+03 -0.63090950022E+03  0.76870940747E+03  0.92238885826E+02 0.  0.
         13    1    3    3    0    0 -0.13252124335E+03  0.14150960310E+03 -0.24373657949E+03  0.31143918811E+03  0.00000000000E+00 0.  1.
        -13    1    3    3    0    0 -0.88387130311E+02  0.22667354977E+03 -0.38717292073E+03  0.45727021936E+03  0.00000000000E+00 0. -1.
         22    1    1    2    0    0  0.22090837366E+03 -0.36818315287E+03 -0.10169977911E+03  0.44125070955E+03  0.00000000000E+00 0.  1.
<mgrwt>
<rscale>  0 0.96295749E+03</rscale>
<asrwt>0</asrwt>
<pdfrwt beam="1">  1        2 0.14942842E+00 0.96295749E+03</pdfrwt>
<pdfrwt beam="2">  1       -2 0.36719295E-01 0.96295749E+03</pdfrwt>
<totfact> 0.18348759E+02</totfact>
</mgrwt>
</event>
<event>
 6    1  0.2668002E-007  0.4683805E+04  0.7818608E-02  0.7879225E-01
         -2   -1    0    0    0  501 -0.00000000000E+00  0.00000000000E+00  0.20487856428E+04  0.20487856428E+04  0.00000000000E+00 0.  1.
          2   -1    0    0  501    0  0.00000000000E+00 -0.00000000000E+00 -0.26769552610E+04  0.26769552610E+04  0.00000000000E+00 0. -1.
         23    2    1    2    0    0 -0.21960514146E+03 -0.18877948930E+04  0.10649543295E+04  0.21804187870E+04  0.90013257455E+02 0.  0.
         13    1    3    3    0    0 -0.17134304819E+03 -0.11577746122E+04  0.62735393576E+03  0.13279207256E+04  0.00000000000E+00 0.  1.
        -13    1    3    3    0    0 -0.48262093273E+02 -0.73002028080E+03  0.43760039377E+03  0.85249806138E+03  0.00000000000E+00 0. -1.
         22    1    1    2    0    0  0.21960514146E+03  0.18877948930E+04 -0.16931239477E+04  0.25453221168E+04  0.00000000000E+00 0. -1.
<mgrwt>
<rscale>  0 0.46838051E+04</rscale>
<asrwt>0</asrwt>
<pdfrwt beam="1">  1        2 0.41183927E+00 0.46838051E+04</pdfrwt>
<pdfrwt beam="2">  1       -2 0.31519779E+00 0.46838051E+04</pdfrwt>
<totfact> 0.52446923E-02</totfact>
</mgrwt>
</event>
<event>
 6    1  0.2238133E-007  0.7479237E+04  0.7818608E-02  0.7529934E-01
         -2   -1    0    0    0  501 -0.00000000000E+00  0.00000000000E+00  0.37781741339E+04  0.37781741339E+04  0.00000000000E+00 0.  1.
          2   -1    0    0  501    0  0.00000000000E+00 -0.00000000000E+00 -0.37014566783E+04  0.37014566783E+04  0.00000000000E+00 0. -1.
         23    2    1    2    0    0 -0.18773394326E+04  0.26094682136E+04 -0.18713710841E+04  0.37208043117E+04  0.92883196320E+02 0.  0.
         13    1    3    3    0    0 -0.13236286960E+04  0.17851468916E+04 -0.12601135061E+04  0.25547266777E+04  0.00000000000E+00 0. -1.
        -13    1    3    3    0    0 -0.55371073654E+03  0.82432132202E+03 -0.61125757805E+03  0.11660776340E+04  0.00000000000E+00 0.  1.
         22    1    1    2    0    0  0.18773394326E+04 -0.26094682136E+04  0.19480885397E+04  0.37588265006E+04  0.00000000000E+00 0.  1.
<mgrwt>
<rscale>  0 0.74792374E+04</rscale>
<asrwt>0</asrwt>
<pdfrwt beam="1">  1        2 0.56945487E+00 0.74792374E+04</pdfrwt>
<pdfrwt beam="2">  1       -2 0.58125756E+00 0.74792374E+04</pdfrwt>
<totfact> 0.21860939E-04</totfact>
</mgrwt>
</event>
<event>
 6    1  0.2238133E-007  0.1208440E+04  0.7818608E-02  0.9105501E-01
         -2   -1    0    0    0  501 -0.00000000000E+00  0.00000000000E+00  0.25482210286E+03  0.25482210286E+03  0.00000000000E+00 0.  1.
          2   -1    0    0  501    0  0.00000000000E+00 -0.00000000000E+00 -0.14326918030E+04  0.14326918030E+04  0.00000000000E+00 0. -1.
         23    2    1    2    0    0 -0.36995985914E+03 -0.45629639222E+03 -0.41654623276E+03  0.72590581682E+03  0.91388160910E+02 0.  0.
         13    1    3    3    0    0 -0.74093601620E+02 -0.11361882002E+03 -0.54374162379E+02  0.14613571637E+03  0.00000000000E+00 0. -1.
        -13    1    3    3    0    0 -0.29586625752E+03 -0.34267757220E+03 -0.36217207038E+03  0.57977010046E+03  0.00000000000E+00 0.  1.
         22    1    1    2    0    0  0.36995985914E+03  0.45629639222E+03 -0.76132346743E+03  0.96160808908E+03  0.00000000000E+00 0. -1.
<mgrwt>
<rscale>  0 0.12084396E+04</rscale>
<asrwt>0</asrwt>
<pdfrwt beam="1">  1        2 0.22041413E+00 0.12084396E+04</pdfrwt>
<pdfrwt beam="2">  1       -2 0.39203399E-01 0.12084396E+04</pdfrwt>
<totfact> 0.84044631E+01</totfact>
</mgrwt>
</event>
<event>
 6    1  0.2238133E-007  0.1984953E+04  0.7818608E-02  0.8613688E-01
          2   -1    0    0  501    0  0.00000000000E+00  0.00000000000E+00  0.21074346141E+04  0.21074346141E+04  0.00000000000E+00 0. -1.
         -2   -1    0    0    0  501 -0.00000000000E+00 -0.00000000000E+00 -0.46739726848E+03  0.46739726848E+03  0.00000000000E+00 0.  1.
         23    2    1    2    0    0  0.78347662891E+03 -0.30725572855E+03  0.14495753321E+03  0.85916718450E+03  0.94413207342E+02 0.  0.
         11    1    3    3    0    0  0.66211447417E+03 -0.26562039851E+03  0.15640938130E+03  0.73035174235E+03  0.00000000000E+00 0. -1.
        -11    1    3    3    0    0  0.12136215474E+03 -0.41635330043E+02 -0.11451848084E+02  0.12881544215E+03  0.00000000000E+00 0.  1.
         22    1    1    2    0    0 -0.78347662891E+03  0.30725572855E+03  0.14950798124E+04  0.17156646981E+04  0.00000000000E+00 0. -1.
<mgrwt>
<rscale>  0 0.19849526E+04</rscale>
<asrwt>0</asrwt>
<pdfrwt beam="1">  1        2 0.32422070E+00 0.19849526E+04</pdfrwt>
<pdfrwt beam="2">  1       -2 0.71907273E-01 0.19849526E+04</pdfrwt>
<totfact> 0.94869871E+00</totfact>
</mgrwt>
</event>
<event>
 6    1  0.2238133E-007  0.3510150E+04  0.7818608E-02  0.8111389E-01
         -2   -1    0    0    0  501 -0.00000000000E+00  0.00000000000E+00  0.12728605368E+04  0.12728605368E+04  0.00000000000E+00 0.  1.
          2   -1    0    0  501    0  0.00000000000E+00 -0.00000000000E+00 -0.24199725648E+04  0.24199725648E+04  0.00000000000E+00 0. -1.
         23    2    1    2    0    0 -0.87997790294E+03 -0.15034463528E+04 -0.78895129022E+03  0.19143530879E+04  0.87129566723E+02 0.  0.
         13    1    3    3    0    0 -0.58242296894E+03 -0.10739512757E+04 -0.55494189542E+03  0.13418451344E+04  0.00000000000E+00 0. -1.
        -13    1    3    3    0    0 -0.29755493400E+03 -0.42949507702E+03 -0.23400939480E+03  0.57250795347E+03  0.00000000000E+00 0.  1.
         22    1    1    2    0    0  0.87997790294E+03  0.15034463528E+04 -0.35816073772E+03  0.17784800138E+04  0.00000000000E+00 0. -1.
<mgrwt>
<rscale>  0 0.35101496E+04</rscale>
<asrwt>0</asrwt>
<pdfrwt beam="1">  1        2 0.37230347E+00 0.35101496E+04</pdfrwt>
<pdfrwt beam="2">  1       -2 0.19582470E+00 0.35101496E+04</pdfrwt>
<totfact> 0.45049114E-01</totfact>
</mgrwt>
</event>
<event>
 6    1  0.2238133E-007  0.2070302E+04  0.7818608E-02  0.8574440E-01
         -2   -1    0    0    0  501 -0.00000000000E+00  0.00000000000E+00  0.61480253375E+03  0.61480253375E+03  0.00000000000E+00 0.  1.
          2   -1    0    0  501    0  0.00000000000E+00 -0.00000000000E+00 -0.17428966957E+04  0.17428966957E+04  0.00000000000E+00 0. -1.
         23    2    1    2    0    0  0.72991089078E+03 -0.20000081903E+03 -0.13657174304E+04  0.15644558532E+04  0.97815034603E+02 0.  0.
         13    1    3    3    0    0  0.34861094081E+03 -0.14566481120E+03 -0.66137384779E+03  0.76168444373E+03  0.00000000000E+00 0. -1.
        -13    1    3    3    0    0  0.38129994997E+03 -0.54336007837E+02 -0.70434358259E+03  0.80277140952E+03  0.00000000000E+00 0.  1.
         22    1    1    2    0    0 -0.72991089078E+03  0.20000081903E+03  0.23762326848E+03  0.79324337616E+03  0.00000000000E+00 0.  1.
<mgrwt>
<rscale>  0 0.20703017E+04</rscale>
<asrwt>0</asrwt>
<pdfrwt beam="1">  1        2 0.26813795E+00 0.20703017E+04</pdfrwt>
<pdfrwt beam="2">  1       -2 0.94585006E-01 0.20703017E+04</pdfrwt>
<totfact> 0.80743066E+00</totfact>
</mgrwt>
</event>
<event>
 6    1  0.2238133E-007  0.4033811E+04  0.7818608E-02  0.7997760E-01
          2   -1    0    0  501    0  0.00000000000E+00  0.00000000000E+00  0.12840946290E+04  0.12840946290E+04  0.00000000000E+00 0. -1.
         -2   -1    0    0    0  501 -0.00000000000E+00 -0.00000000000E+00 -0.31679188323E+04  0.31679188323E+04  0.00000000000E+00 0.  1.
         23    2    1    2    0    0 -0.41913004746E+03  0.88214724039E+03  0.10039394619E+04  0.14035658667E+04  0.90823723056E+02 0.  0.
         11    1    3    3    0    0 -0.34355271312E+03  0.72088022216E+03  0.86844473375E+03  0.11797851571E+04  0.00000000000E+00 0.  1.
        -11    1    3    3    0    0 -0.75577334342E+02  0.16126701823E+03  0.13549472818E+03  0.22378070962E+03  0.00000000000E+00 0. -1.
         22    1    1    2    0    0  0.41913004746E+03 -0.88214724039E+03 -0.28877636652E+04  0.30484475945E+04  0.00000000000E+00 0.  1.
<mgrwt>
<rscale>  0 0.40338109E+04</rscale>
<asrwt>0</asrwt>
<pdfrwt beam="1">  1        2 0.19755302E+00 0.40338109E+04</pdfrwt>
<pdfrwt beam="2">  1       -2 0.48737212E+00 0.40338109E+04</pdfrwt>
<totfact> 0.26345529E-02</totfact>
</mgrwt>
</event>
<event>
 6    1  0.2238133E-007  0.4829768E+03  0.7818608E-02  0.1018320E+00
          1   -1    0    0  501    0  0.00000000000E+00  0.00000000000E+00  0.50584226021E+03  0.50584226021E+03  0.00000000000E+00 0. -1.
         -1   -1    0    0    0  501 -0.00000000000E+00 -0.00000000000E+00 -0.11528623569E+03  0.11528623569E+03  0.00000000000E+00 0.  1.
         23    2    1    2    0    0 -0.12028563849E+02  0.16693617294E+03 -0.10343679473E+02  0.18669444470E+03  0.82069798305E+02 0.  0.
         11    1    3    3    0    0  0.26199316149E+02  0.67132490234E+02 -0.29944480699E+02  0.78037473921E+02  0.00000000000E+00 0.  1.
        -11    1    3    3    0    0 -0.38227879998E+02  0.99803682705E+02  0.19600801226E+02  0.10865697078E+03  0.00000000000E+00 0. -1.
         22    1    1    2    0    0  0.12028563849E+02 -0.16693617294E+03  0.40089970399E+03  0.43443405120E+03  0.00000000000E+00 0.  1.
<mgrwt>
<rscale>  0 0.48297681E+03</rscale>
<asrwt>0</asrwt>
<pdfrwt beam="1">  1        1 0.77821885E-01 0.48297681E+03</pdfrwt>
<pdfrwt beam="2">  1       -1 0.17736344E-01 0.48297681E+03</pdfrwt>
<totfact> 0.10926397E+03</totfact>
</mgrwt>
</event>
<event>
 6    1  0.2238133E-007  0.4260136E+04  0.7818608E-02  0.7954031E-01
          2   -1    0    0  501    0  0.00000000000E+00  0.00000000000E+00  0.25072740681E+04  0.25072740681E+04  0.00000000000E+00 0. -1.
         -2   -1    0    0    0  501 -0.00000000000E+00 -0.00000000000E+00 -0.18096104159E+04  0.18096104159E+04  0.00000000000E+00 0.  1.
         23    2    1    2    0    0  0.62995679289E+03 -0.19875514070E+04 -0.87899742185E+02  0.20888099784E+04  0.90524056838E+02 0.  0.
         11    1    3    3    0    0  0.42009729493E+03 -0.12111284302E+04 -0.26621526799E+02  0.12821944148E+04  0.00000000000E+00 0.  1.
        -11    1    3    3    0    0  0.20985949796E+03 -0.77642297680E+03 -0.61278215386E+02  0.80661556362E+03  0.00000000000E+00 0. -1.
         22    1    1    2    0    0 -0.62995679289E+03  0.19875514070E+04  0.78556339431E+03  0.22280745056E+04  0.00000000000E+00 0. -1.
<mgrwt>
<rscale>  0 0.42601358E+04</rscale>
<asrwt>0</asrwt>
<pdfrwt beam="1">  1        2 0.38573447E+00 0.42601358E+04</pdfrwt>
<pdfrwt beam="2">  1       -2 0.27840160E+00 0.42601358E+04</pdfrwt>
<totfact> 0.11470096E-01</totfact>
</mgrwt>
</event>
<event>
 6    1  0.2238133E-007  0.1637884E+04  0.7818608E-02  0.8797607E-01
          2   -1    0    0  501    0  0.00000000000E+00  0.00000000000E+00  0.25472133608E+04  0.25472133608E+04  0.00000000000E+00 0. -1.
         -2   -1    0    0    0  501 -0.00000000000E+00 -0.00000000000E+00 -0.26329395384E+03  0.26329395384E+03  0.00000000000E+00 0.  1.
         23    2    1    2    0    0  0.65463413663E+03 -0.47510639899E+03  0.13345118075E+04  0.15632516339E+04  0.92530877815E+02 0.  0.
         13    1    3    3    0    0  0.25565664944E+03 -0.24218130804E+03  0.57741906041E+03  0.67633193011E+03  0.00000000000E+00 0. -1.
        -13    1    3    3    0    0  0.39897748719E+03 -0.23292509096E+03  0.75709274712E+03  0.88691970382E+03  0.00000000000E+00 0.  1.
         22    1    1    2    0    0 -0.65463413663E+03  0.47510639899E+03  0.94940759942E+03  0.12472556807E+04  0.00000000000E+00 0. -1.
<mgrwt>
<rscale>  0 0.16378839E+04</rscale>
<asrwt>0</asrwt>
<pdfrwt beam="1">  1        2 0.39187896E+00 0.16378839E+04</pdfrwt>
<pdfrwt beam="2">  1       -2 0.40506764E-01 0.16378839E+04</pdfrwt>
<totfact> 0.18067623E+01</totfact>
</mgrwt>
</event>
<event>
 6    1  0.2238133E-007  0.1809158E+04  0.7818608E-02  0.8701445E-01
          1   -1    0    0  501    0  0.00000000000E+00  0.00000000000E+00  0.12143058895E+04  0.12143058895E+04  0.00000000000E+00 0. -1.
         -1   -1    0    0    0  501 -0.00000000000E+00 -0.00000000000E+00 -0.67385236682E+03  0.67385236682E+03  0.00000000000E+00 0.  1.
         23    2    1    2    0    0 -0.24350445148E+03 -0.25514587017E+03  0.11376799449E+04  0.11945638270E+04  0.90957389918E+02 0.  0.
         13    1    3    3    0    0 -0.17195524983E+03 -0.22623823419E+03  0.82768945973E+03  0.87511267177E+03  0.00000000000E+00 0. -1.
        -13    1    3    3    0    0 -0.71549201654E+02 -0.28907635978E+02  0.30999048517E+03  0.31945115522E+03  0.00000000000E+00 0.  1.
         22    1    1    2    0    0  0.24350445148E+03  0.25514587017E+03 -0.59722642223E+03  0.69359442931E+03  0.00000000000E+00 0.  1.
<mgrwt>
<rscale>  0 0.18091577E+04</rscale>
<asrwt>0</asrwt>
<pdfrwt beam="1">  1        1 0.18681629E+00 0.18091577E+04</pdfrwt>
<pdfrwt beam="2">  1       -1 0.10366960E+00 0.18091577E+04</pdfrwt>
<totfact> 0.86267414E+00</totfact>
</mgrwt>
</event>
<event>
 6    1  0.2238133E-007  0.5149939E+04  0.7818608E-02  0.7805785E-01
          2   -1    0    0  501    0  0.00000000000E+00  0.00000000000E+00  0.28196268315E+04  0.28196268315E+04  0.00000000000E+00 0. -1.
         -2   -1    0    0    0  501 -0.00000000000E+00 -0.00000000000E+00 -0.23515409886E+04  0.23515409886E+04  0.00000000000E+00 0.  1.
         23    2    1    2    0    0 -0.22921910391E+04  0.15940615322E+03 -0.93115833600E+03  0.24809198104E+04  0.91417601205E+02 0.  0.
         13    1    3    3    0    0 -0.12418255718E+04  0.98486519356E+02 -0.45737243753E+03  0.13270342467E+04  0.00000000000E+00 0. -1.
        -13    1    3    3    0    0 -0.10503654672E+04  0.60919633864E+02 -0.47378589847E+03  0.11538855637E+04  0.00000000000E+00 0.  1.
         22    1    1    2    0    0  0.22921910391E+04 -0.15940615322E+03  0.13992441789E+04  0.26902480097E+04  0.00000000000E+00 0. -1.
<mgrwt>
<rscale>  0 0.51499391E+04</rscale>
<asrwt>0</asrwt>
<pdfrwt beam="1">  1        2 0.43378874E+00 0.51499391E+04</pdfrwt>
<pdfrwt beam="2">  1       -2 0.36177554E+00 0.51499391E+04</pdfrwt>
<totfact> 0.21207630E-02</totfact>
</mgrwt>
</event>
<event>
 6    1  0.2238133E-007  0.5274189E+04  0.7818608E-02  0.7787549E-01
          2   -1    0    0  501    0  0.00000000000E+00  0.00000000000E+00  0.29261992282E+04  0.29261992282E+04  0.00000000000E+00 0. -1.
         -2   -1    0    0    0  501 -0.00000000000E+00 -0.00000000000E+00 -0.23765531851E+04  0.23765531851E+04  0.00000000000E+00 0.  1.
         23    2    1    2    0    0 -0.17210954236E+04 -0.10346879683E+04 -0.14422633283E+04  0.24742454585E+04  0.94965425284E+02 0.  0.
         13    1    3    3    0    0 -0.12983250228E+04 -0.80743544727E+03 -0.11380782811E+04  0.19059963379E+04  0.00000000000E+00 0. -1.
        -13    1    3    3    0    0 -0.42277040078E+03 -0.22725252106E+03 -0.30418504721E+03  0.56824912060E+03  0.00000000000E+00 0.  1.
         22    1    1    2    0    0  0.17210954236E+04  0.10346879683E+04  0.19919093715E+04  0.28285069547E+04  0.00000000000E+00 0. -1.
<mgrwt>
<rscale>  0 0.52741893E+04</rscale>
<asrwt>0</asrwt>
<pdfrwt beam="1">  1        2 0.45018450E+00 0.52741893E+04</pdfrwt>
<pdfrwt beam="2">  1       -2 0.36562357E+00 0.52741893E+04</pdfrwt>
<totfact> 0.17073130E-02</totfact>
</mgrwt>
</event>
<event>
 6    1  0.2238133E-007  0.2041401E+04  0.7818608E-02  0.8587505E-01
          1   -1    0    0  501    0  0.00000000000E+00  0.00000000000E+00  0.10009557213E+04  0.10009557213E+04  0.00000000000E+00 0. -1.
         -1   -1    0    0    0  501 -0.00000000000E+00 -0.00000000000E+00 -0.10408351173E+04  0.10408351173E+04  0.00000000000E+00 0.  1.
         23    2    1    2    0    0 -0.67146010381E+03 -0.35211809936E+03  0.66030583816E+03  0.10097515037E+04  0.93533268539E+02 0.  0.
         11    1    3    3    0    0 -0.12360190858E+03 -0.10481206382E+03  0.12188299316E+03  0.20277688366E+03  0.00000000000E+00 0.  1.
        -11    1    3    3    0    0 -0.54785819523E+03 -0.24730603554E+03  0.53842284499E+03  0.80697461999E+03  0.00000000000E+00 0. -1.
         22    1    1    2    0    0  0.67146010381E+03  0.35211809936E+03 -0.70018523412E+03  0.10320393350E+04  0.00000000000E+00 0.  1.
<mgrwt>
<rscale>  0 0.20414013E+04</rscale>
<asrwt>0</asrwt>
<pdfrwt beam="1">  1        1 0.15399319E+00 0.20414013E+04</pdfrwt>
<pdfrwt beam="2">  1       -1 0.16012848E+00 0.20414013E+04</pdfrwt>
<totfact> 0.40714098E+00</totfact>
</mgrwt>
</event>
<event>
 6    1  0.2238133E-007  0.2468164E+04  0.7818608E-02  0.8414416E-01
          2   -1    0    0  501    0  0.00000000000E+00  0.00000000000E+00  0.39576985236E+04  0.39576985236E+04  0.00000000000E+00 0. -1.
         -2   -1    0    0    0  501 -0.00000000000E+00 -0.00000000000E+00 -0.38480920645E+03  0.38480920645E+03  0.00000000000E+00 0.  1.
         23    2    1    2    0    0  0.10188400915E+04  0.23725103734E+03  0.29347829901E+04  0.31171494676E+04  0.96676872578E+02 0.  0.
         11    1    3    3    0    0  0.25479070532E+03  0.50228649352E+02  0.85565032893E+03  0.89419164955E+03  0.00000000000E+00 0. -1.
        -11    1    3    3    0    0  0.76404938616E+03  0.18702238799E+03  0.20791326612E+04  0.22229578181E+04  0.00000000000E+00 0.  1.
         22    1    1    2    0    0 -0.10188400915E+04 -0.23725103734E+03  0.63810632704E+03  0.12253582624E+04  0.00000000000E+00 0. -1.
<mgrwt>
<rscale>  0 0.24681644E+04</rscale>
<asrwt>0</asrwt>
<pdfrwt beam="1">  1        2 0.60887667E+00 0.24681644E+04</pdfrwt>
<pdfrwt beam="2">  1       -2 0.59201419E-01 0.24681644E+04</pdfrwt>
<totfact> 0.88473371E-01</totfact>
</mgrwt>
</event>
<event>
 6    1  0.2238133E-007  0.1092622E+04  0.7818608E-02  0.9212413E-01
          2   -1    0    0  501    0  0.00000000000E+00  0.00000000000E+00  0.48364384270E+03  0.48364384270E+03  0.00000000000E+00 0. -1.
         -2   -1    0    0    0  501 -0.00000000000E+00 -0.00000000000E+00 -0.61709849446E+03  0.61709849446E+03  0.00000000000E+00 0.  1.
         23    2    1    2    0    0 -0.17474193987E+03 -0.39934447707E+03  0.25813160385E+03  0.51478111617E+03  0.91416167829E+02 0.  0.
         13    1    3    3    0    0 -0.10947100450E+03 -0.30952651899E+03  0.15429896937E+03  0.36276540454E+03  0.00000000000E+00 0. -1.
        -13    1    3    3    0    0 -0.65270935368E+02 -0.89817958078E+02  0.10383263448E+03  0.15201571162E+03  0.00000000000E+00 0.  1.
         22    1    1    2    0    0  0.17474193987E+03  0.39934447707E+03 -0.39158625561E+03  0.58596122099E+03  0.00000000000E+00 0.  1.
<mgrwt>
<rscale>  0 0.10926223E+04</rscale>
<asrwt>0</asrwt>
<pdfrwt beam="1">  1        2 0.74406745E-01 0.10926223E+04</pdfrwt>
<pdfrwt beam="2">  1       -2 0.94938230E-01 0.10926223E+04</pdfrwt>
<totfact> 0.59366578E+01</totfact>
</mgrwt>
</event>
<event>
 6    1  0.2238133E-007  0.1978631E+04  0.7818608E-02  0.8616677E-01
          2   -1    0    0  501    0  0.00000000000E+00  0.00000000000E+00  0.16972055007E+04  0.16972055007E+04  0.00000000000E+00 0. -1.
         -2   -1    0    0    0  501 -0.00000000000E+00 -0.00000000000E+00 -0.57668039134E+03  0.57668039134E+03  0.00000000000E+00 0.  1.
         23    2    1    2    0    0  0.59738273751E+03  0.72364543002E+03  0.91812801953E+03  0.13139414013E+04  0.54351653412E+02 0.  0.
         11    1    3    3    0    0  0.13473875437E+03  0.15158443108E+03  0.22870518472E+03  0.30567700796E+03  0.00000000000E+00 0.  1.
        -11    1    3    3    0    0  0.46264398314E+03  0.57206099893E+03  0.68942283481E+03  0.10082643933E+04  0.00000000000E+00 0. -1.
         22    1    1    2    0    0 -0.59738273751E+03 -0.72364543002E+03  0.20239708985E+03  0.95994449081E+03  0.00000000000E+00 0.  1.
<mgrwt>
<rscale>  0 0.19786310E+04</rscale>
<asrwt>0</asrwt>
<pdfrwt beam="1">  1        2 0.26110854E+00 0.19786310E+04</pdfrwt>
<pdfrwt beam="2">  1       -2 0.88720061E-01 0.19786310E+04</pdfrwt>
<totfact> 0.10004974E+01</totfact>
</mgrwt>
</event>
<event>
 6    1  0.2238133E-007  0.2367066E+04  0.7818608E-02  0.8451938E-01
         -2   -1    0    0    0  501 -0.00000000000E+00  0.00000000000E+00  0.44594334659E+03  0.44594334659E+03  0.00000000000E+00 0.  1.
          2   -1    0    0  501    0  0.00000000000E+00 -0.00000000000E+00 -0.31410940749E+04  0.31410940749E+04  0.00000000000E+00 0. -1.
         23    2    1    2    0    0 -0.44851962949E+03 -0.48121610679E+03 -0.28373039610E+04  0.29140245383E+04  0.92230379887E+02 0.  0.
         13    1    3    3    0    0 -0.33268527798E+03 -0.41112271078E+03 -0.22630971141E+04  0.23240718417E+04  0.00000000000E+00 0.  1.
        -13    1    3    3    0    0 -0.11583435150E+03 -0.70093396009E+02 -0.57420684690E+03  0.58995269656E+03  0.00000000000E+00 0. -1.
         22    1    1    2    0    0  0.44851962949E+03  0.48121610679E+03  0.14215323267E+03  0.67301288325E+03  0.00000000000E+00 0.  1.
<mgrwt>
<rscale>  0 0.23670657E+04</rscale>
<asrwt>0</asrwt>
<pdfrwt beam="1">  1        2 0.48324525E+00 0.23670657E+04</pdfrwt>
<pdfrwt beam="2">  1       -2 0.68606668E-01 0.23670657E+04</pdfrwt>
<totfact> 0.24822832E+00</totfact>
</mgrwt>
</event>
<event>
 6    1  0.2238133E-007  0.1287721E+04  0.7818608E-02  0.9039359E-01
          2   -1    0    0  501    0  0.00000000000E+00  0.00000000000E+00  0.23937724144E+04  0.23937724144E+04  0.00000000000E+00 0. -1.
         -2   -1    0    0    0  501 -0.00000000000E+00 -0.00000000000E+00 -0.17318130633E+03  0.17318130633E+03  0.00000000000E+00 0.  1.
         23    2    1    2    0    0  0.50770812810E+03 -0.87315329190E+02  0.35783536810E+03  0.63427411541E+03  0.94159400774E+02 0.  0.
         11    1    3    3    0    0  0.30974845483E+03 -0.13490180418E+02  0.18287043145E+03  0.35995511517E+03  0.00000000000E+00 0.  1.
        -11    1    3    3    0    0  0.19795967328E+03 -0.73825148772E+02  0.17496493665E+03  0.27431900024E+03  0.00000000000E+00 0. -1.
         22    1    1    2    0    0 -0.50770812810E+03  0.87315329190E+02  0.18627557400E+04  0.19326796053E+04  0.00000000000E+00 0. -1.
<mgrwt>
<rscale>  0 0.12877215E+04</rscale>
<asrwt>0</asrwt>
<pdfrwt beam="1">  1        2 0.36827266E+00 0.12877215E+04</pdfrwt>
<pdfrwt beam="2">  1       -2 0.26643280E-01 0.12877215E+04</pdfrwt>
<totfact> 0.50419208E+01</totfact>
</mgrwt>
</event>
<event>
 6    1  0.2238133E-007  0.4464655E+04  0.7818608E-02  0.7916854E-01
         -1   -1    0    0    0  501 -0.00000000000E+00  0.00000000000E+00  0.42484749172E+04  0.42484749172E+04  0.00000000000E+00 0.  1.
          1   -1    0    0  501    0  0.00000000000E+00 -0.00000000000E+00 -0.11729588203E+04  0.11729588203E+04  0.00000000000E+00 0. -1.
         23    2    1    2    0    0 -0.13084012694E+04  0.86762898817E+03 -0.38697296224E+03  0.16196546241E+04  0.94016407495E+02 0.  0.
         11    1    3    3    0    0 -0.46353908146E+03  0.25444908621E+03 -0.12489405021E+03  0.54333354515E+03  0.00000000000E+00 0. -1.
        -11    1    3    3    0    0 -0.84486218792E+03  0.61317990196E+03 -0.26207891204E+03  0.10763210789E+04  0.00000000000E+00 0.  1.
         22    1    1    2    0    0  0.13084012694E+04 -0.86762898817E+03  0.34624890592E+04  0.38017791135E+04  0.00000000000E+00 0.  1.
<mgrwt>
<rscale>  0 0.44646550E+04</rscale>
<asrwt>0</asrwt>
<pdfrwt beam="1">  1        1 0.18045521E+00 0.44646550E+04</pdfrwt>
<pdfrwt beam="2">  1       -1 0.65361152E+00 0.44646550E+04</pdfrwt>
<totfact> 0.24135217E-03</totfact>
</mgrwt>
</event>
<event>
 6    1  0.2238133E-007  0.2726986E+04  0.7818608E-02  0.8326302E-01
          2   -1    0    0  501    0  0.00000000000E+00  0.00000000000E+00  0.19435481021E+04  0.19435481021E+04  0.00000000000E+00 0. -1.
         -2   -1    0    0    0  501 -0.00000000000E+00 -0.00000000000E+00 -0.95655599130E+03  0.95655599130E+03  0.00000000000E+00 0.  1.
         23    2    1    2    0    0  0.52827658516E+03 -0.87986969122E+03 -0.45809973318E+03  0.11276658684E+04  0.92347827242E+02 0.  0.
         13    1    3    3    0    0  0.16089579687E+03 -0.19580459401E+03 -0.97422792317E+02  0.27151076765E+03  0.00000000000E+00 0. -1.
        -13    1    3    3    0    0  0.36738078829E+03 -0.68406509721E+03 -0.36067694086E+03  0.85615510073E+03  0.00000000000E+00 0.  1.
         22    1    1    2    0    0 -0.52827658516E+03  0.87986969122E+03  0.14450918440E+04  0.17724382250E+04  0.00000000000E+00 0. -1.
<mgrwt>
<rscale>  0 0.27269856E+04</rscale>
<asrwt>0</asrwt>
<pdfrwt beam="1">  1        2 0.29900740E+00 0.27269856E+04</pdfrwt>
<pdfrwt beam="2">  1       -2 0.14716246E+00 0.27269856E+04</pdfrwt>
<totfact> 0.19815068E+00</totfact>
</mgrwt>
</event>
<event>
 6    1  0.2238133E-007  0.3262808E+04  0.7818608E-02  0.8172424E-01
         -2   -1    0    0    0  501 -0.00000000000E+00  0.00000000000E+00  0.63779530369E+03  0.63779530369E+03  0.00000000000E+00 0.  1.
          2   -1    0    0  501    0  0.00000000000E+00 -0.00000000000E+00 -0.41729360520E+04  0.41729360520E+04  0.00000000000E+00 0. -1.
         23    2    1    2    0    0  0.10524557704E+04  0.12002366679E+04 -0.22559261676E+04  0.27650966985E+04  0.91245112099E+02 0.  0.
         11    1    3    3    0    0  0.42364586373E+03  0.51027315763E+03 -0.86620211987E+03  0.10909448317E+04  0.00000000000E+00 0. -1.
        -11    1    3    3    0    0  0.62880990664E+03  0.68996351023E+03 -0.13897240478E+04  0.16741518668E+04  0.00000000000E+00 0.  1.
         22    1    1    2    0    0 -0.10524557704E+04 -0.12002366679E+04 -0.12792145807E+04  0.20456346572E+04  0.00000000000E+00 0. -1.
<mgrwt>
<rscale>  0 0.32628080E+04</rscale>
<asrwt>0</asrwt>
<pdfrwt beam="1">  1        2 0.64199014E+00 0.32628080E+04</pdfrwt>
<pdfrwt beam="2">  1       -2 0.98122357E-01 0.32628080E+04</pdfrwt>
<totfact> 0.17718527E-01</totfact>
</mgrwt>
</event>
<event>
 6    1  0.2238133E-007  0.2646724E+04  0.7818608E-02  0.8352501E-01
         -2   -1    0    0    0  501 -0.00000000000E+00  0.00000000000E+00  0.57874044456E+03  0.57874044456E+03  0.00000000000E+00 0.  1.
          2   -1    0    0  501    0  0.00000000000E+00 -0.00000000000E+00 -0.30260307524E+04  0.30260307524E+04  0.00000000000E+00 0. -1.
         23    2    1    2    0    0 -0.68066461525E+03  0.27923382930E+03  0.27044630581E+03  0.78921296615E+03  0.91869754212E+02 0.  0.
         11    1    3    3    0    0 -0.31023670096E+03  0.96263893448E+02  0.81450734846E+02  0.33488471153E+03  0.00000000000E+00 0.  1.
        -11    1    3    3    0    0 -0.37042791428E+03  0.18296993586E+03  0.18899557097E+03  0.45432825463E+03  0.00000000000E+00 0. -1.
         22    1    1    2    0    0  0.68066461525E+03 -0.27923382930E+03 -0.27177366137E+04  0.28155582308E+04  0.00000000000E+00 0. -1.
<mgrwt>
<rscale>  0 0.26467235E+04</rscale>
<asrwt>0</asrwt>
<pdfrwt beam="1">  1        2 0.46554319E+00 0.26467235E+04</pdfrwt>
<pdfrwt beam="2">  1       -2 0.89036992E-01 0.26467235E+04</pdfrwt>
<totfact> 0.16003615E+00</totfact>
</mgrwt>
</event>
<event>
 6    1  0.2238133E-007  0.6072012E+03  0.7818608E-02  0.9890577E-01
          2   -1    0    0  501    0  0.00000000000E+00  0.00000000000E+00  0.91335503660E+03  0.91335503660E+03  0.00000000000E+00 0. -1.
         -2   -1    0    0    0  501 -0.00000000000E+00 -0.00000000000E+00 -0.10091730227E+03  0.10091730227E+03  0.00000000000E+00 0.  1.
         23    2    1    2    0    0  0.11140424151E+03  0.24583958773E+03  0.62159319140E+03  0.68371274139E+03  0.90757970575E+02 0.  0.
         13    1    3    3    0    0  0.17905231328E+01 -0.20484334233E+01  0.60733646771E+02  0.60794554877E+02  0.00000000000E+00 0. -1.
        -13    1    3    3    0    0  0.10961371838E+03  0.24788802115E+03  0.56085954463E+03  0.62291818652E+03  0.00000000000E+00 0.  1.
         22    1    1    2    0    0 -0.11140424151E+03 -0.24583958773E+03  0.19084454293E+03  0.33055959748E+03  0.00000000000E+00 0.  1.
<mgrwt>
<rscale>  0 0.60720121E+03</rscale>
<asrwt>0</asrwt>
<pdfrwt beam="1">  1        2 0.14051615E+00 0.60720121E+03</pdfrwt>
<pdfrwt beam="2">  1       -2 0.15525739E-01 0.60720121E+03</pdfrwt>
<totfact> 0.95545404E+02</totfact>
</mgrwt>
</event>
<event>
 6    1  0.2238133E-007  0.1480993E+04  0.7818608E-02  0.8897192E-01
          2   -1    0    0  501    0  0.00000000000E+00  0.00000000000E+00  0.18363169967E+04  0.18363169967E+04  0.00000000000E+00 0. -1.
         -2   -1    0    0    0  501 -0.00000000000E+00 -0.00000000000E+00 -0.29860583138E+03  0.29860583138E+03  0.00000000000E+00 0.  1.
         23    2    1    2    0    0  0.26721257078E+03  0.62642772819E+03  0.36318565532E+03  0.77723198319E+03  0.91495785957E+02 0.  0.
         13    1    3    3    0    0  0.17295416247E+03  0.38149064028E+03  0.17332753732E+03  0.45331080522E+03  0.00000000000E+00 0.  1.
        -13    1    3    3    0    0  0.94258408303E+02  0.24493708791E+03  0.18985811800E+03  0.32392117797E+03  0.00000000000E+00 0. -1.
         22    1    1    2    0    0 -0.26721257078E+03 -0.62642772819E+03  0.11745255100E+04  0.13576908449E+04  0.00000000000E+00 0. -1.
<mgrwt>
<rscale>  0 0.14809929E+04</rscale>
<asrwt>0</asrwt>
<pdfrwt beam="1">  1        2 0.28251030E+00 0.14809929E+04</pdfrwt>
<pdfrwt beam="2">  1       -2 0.45939360E-01 0.14809929E+04</pdfrwt>
<totfact> 0.35811472E+01</totfact>
</mgrwt>
</event>
<event>
 6    1  0.2238133E-007  0.2211597E+04  0.7818608E-02  0.8513617E-01
          2   -1    0    0  501    0  0.00000000000E+00  0.00000000000E+00  0.18530881564E+04  0.18530881564E+04  0.00000000000E+00 0. -1.
         -2   -1    0    0    0  501 -0.00000000000E+00 -0.00000000000E+00 -0.65986632590E+03  0.65986632590E+03  0.00000000000E+00 0.  1.
         23    2    1    2    0    0 -0.64864176877E+03 -0.77196687920E+02  0.16088908469E+04  0.17386959957E+04  0.88535504144E+02 0.  0.
         13    1    3    3    0    0 -0.30048699676E+03  0.30986275383E+01  0.67897263017E+03  0.74249974359E+03  0.00000000000E+00 0.  1.
        -13    1    3    3    0    0 -0.34815477201E+03 -0.80295315459E+02  0.92991821672E+03  0.99619625213E+03  0.00000000000E+00 0. -1.
         22    1    1    2    0    0  0.64864176877E+03  0.77196687920E+02 -0.41566901641E+03  0.77425848657E+03  0.00000000000E+00 0. -1.
<mgrwt>
<rscale>  0 0.22115971E+04</rscale>
<asrwt>0</asrwt>
<pdfrwt beam="1">  1        2 0.28509048E+00 0.22115971E+04</pdfrwt>
<pdfrwt beam="2">  1       -2 0.10151790E+00 0.22115971E+04</pdfrwt>
<totfact> 0.58672553E+00</totfact>
</mgrwt>
</event>
<event>
 6    1  0.2238133E-007  0.1370663E+04  0.7818608E-02  0.8975332E-01
         -2   -1    0    0    0  501 -0.00000000000E+00  0.00000000000E+00  0.23110686452E+03  0.23110686452E+03  0.00000000000E+00 0.  1.
          2   -1    0    0  501    0  0.00000000000E+00 -0.00000000000E+00 -0.20323032080E+04  0.20323032080E+04  0.00000000000E+00 0. -1.
         23    2    1    2    0    0 -0.19360381393E+03  0.46961535472E+03 -0.15273886772E+03  0.53846570601E+03  0.92709959975E+02 0.  0.
         13    1    3    3    0    0 -0.53161139065E+02  0.24601817993E+03 -0.87596239524E+02  0.26650356985E+03  0.00000000000E+00 0. -1.
        -13    1    3    3    0    0 -0.14044267486E+03  0.22359717478E+03 -0.65142628196E+02  0.27196213616E+03  0.00000000000E+00 0.  1.
         22    1    1    2    0    0  0.19360381393E+03 -0.46961535472E+03 -0.16484574758E+04  0.17249443665E+04  0.00000000000E+00 0. -1.
<mgrwt>
<rscale>  0 0.13706629E+04</rscale>
<asrwt>0</asrwt>
<pdfrwt beam="1">  1        2 0.31266203E+00 0.13706629E+04</pdfrwt>
<pdfrwt beam="2">  1       -2 0.35554902E-01 0.13706629E+04</pdfrwt>
<totfact> 0.46510601E+01</totfact>
</mgrwt>
</event>
<event>
 6    1  0.2238133E-007  0.5877712E+03  0.7818608E-02  0.9931107E-01
          4   -1    0    0  501    0  0.00000000000E+00  0.00000000000E+00  0.16947324290E+03  0.16947324290E+03  0.00000000000E+00 0. -1.
         -4   -1    0    0    0  501 -0.00000000000E+00 -0.00000000000E+00 -0.50963062321E+03  0.50963062321E+03  0.00000000000E+00 0.  1.
         23    2    1    2    0    0 -0.17745562456E+03 -0.20630132113E+03 -0.69513108259E+02  0.29530827497E+03  0.91236896339E+02 0.  0.
         13    1    3    3    0    0 -0.12550014687E+03 -0.10064579198E+03 -0.47706339147E+01  0.16094291304E+03  0.00000000000E+00 0. -1.
        -13    1    3    3    0    0 -0.51955477687E+02 -0.10565552915E+03 -0.64742474344E+02  0.13436536193E+03  0.00000000000E+00 0.  1.
         22    1    1    2    0    0  0.17745562456E+03  0.20630132113E+03 -0.27064427205E+03  0.38379559115E+03  0.00000000000E+00 0. -1.
<mgrwt>
<rscale>  0 0.58777123E+03</rscale>
<asrwt>0</asrwt>
<pdfrwt beam="1">  1        4 0.26072807E-01 0.58777123E+03</pdfrwt>
<pdfrwt beam="2">  1       -4 0.78404711E-01 0.58777123E+03</pdfrwt>
<totfact> 0.40277085E+01</totfact>
</mgrwt>
</event>
<event>
 6    1  0.2238133E-007  0.1881379E+04  0.7818608E-02  0.8664181E-01
          2   -1    0    0  501    0  0.00000000000E+00  0.00000000000E+00  0.11959682272E+04  0.11959682272E+04  0.00000000000E+00 0. -1.
         -2   -1    0    0    0  501 -0.00000000000E+00 -0.00000000000E+00 -0.73989979600E+03  0.73989979600E+03  0.00000000000E+00 0.  1.
         23    2    1    2    0    0 -0.54824398535E+03  0.75220170280E+03  0.35095133478E+03  0.99915650244E+03  0.93637640984E+02 0.  0.
         13    1    3    3    0    0 -0.20429207404E+03  0.25580801434E+03  0.78620750261E+02  0.33668117572E+03  0.00000000000E+00 0. -1.
        -13    1    3    3    0    0 -0.34395191131E+03  0.49639368847E+03  0.27233058452E+03  0.66247532672E+03  0.00000000000E+00 0.  1.
         22    1    1    2    0    0  0.54824398535E+03 -0.75220170280E+03  0.10511709642E+03  0.93671152076E+03  0.00000000000E+00 0. -1.
<mgrwt>
<rscale>  0 0.18813789E+04</rscale>
<asrwt>0</asrwt>
<pdfrwt beam="1">  1        2 0.18399511E+00 0.18813789E+04</pdfrwt>
<pdfrwt beam="2">  1       -2 0.11383074E+00 0.18813789E+04</pdfrwt>
<totfact> 0.10801924E+01</totfact>
</mgrwt>
</event>
<event>
 6    1  0.2238133E-007  0.6318183E+04  0.7818608E-02  0.7652156E-01
          2   -1    0    0  501    0  0.00000000000E+00  0.00000000000E+00  0.32687939763E+04  0.32687939763E+04  0.00000000000E+00 0. -1.
         -2   -1    0    0    0  501 -0.00000000000E+00 -0.00000000000E+00 -0.30530711431E+04  0.30530711431E+04  0.00000000000E+00 0.  1.
         23    2    1    2    0    0  0.21033358576E+04 -0.20010585962E+04  0.13526171670E+04  0.32040476197E+04  0.89948396195E+02 0.  0.
         13    1    3    3    0    0  0.67106793699E+03 -0.66080584791E+03  0.39608800453E+03  0.10217055603E+04  0.00000000000E+00 0. -1.
        -13    1    3    3    0    0  0.14322679206E+04 -0.13402527483E+04  0.95652916245E+03  0.21823420594E+04  0.00000000000E+00 0.  1.
         22    1    1    2    0    0 -0.21033358576E+04  0.20010585962E+04 -0.11368943337E+04  0.31178174997E+04  0.00000000000E+00 0. -1.
<mgrwt>
<rscale>  0 0.63181835E+04</rscale>
<asrwt>0</asrwt>
<pdfrwt beam="1">  1        2 0.50289138E+00 0.63181835E+04</pdfrwt>
<pdfrwt beam="2">  1       -2 0.46970325E+00 0.63181835E+04</pdfrwt>
<totfact> 0.19897359E-03</totfact>
</mgrwt>
</event>
<event>
 6    1  0.2238133E-007  0.3889868E+04  0.7818608E-02  0.8027140E-01
          2   -1    0    0  501    0  0.00000000000E+00  0.00000000000E+00  0.22655265142E+04  0.22655265142E+04  0.00000000000E+00 0. -1.
         -2   -1    0    0    0  501 -0.00000000000E+00 -0.00000000000E+00 -0.16697078219E+04  0.16697078219E+04  0.00000000000E+00 0.  1.
         23    2    1    2    0    0 -0.16487889499E+04 -0.79227154849E+03 -0.36723775485E+03  0.18679470005E+04  0.90350541174E+02 0.  0.
         13    1    3    3    0    0 -0.89890206121E+03 -0.40370828663E+03 -0.15981941247E+03  0.99827227796E+03  0.00000000000E+00 0. -1.
        -13    1    3    3    0    0 -0.74988688869E+03 -0.38856326187E+03 -0.20741834238E+03  0.86967472256E+03  0.00000000000E+00 0.  1.
         22    1    1    2    0    0  0.16487889499E+04  0.79227154849E+03  0.96305644714E+03  0.20672873357E+04  0.00000000000E+00 0. -1.
<mgrwt>
<rscale>  0 0.38898675E+04</rscale>
<asrwt>0</asrwt>
<pdfrwt beam="1">  1        2 0.34854254E+00 0.38898675E+04</pdfrwt>
<pdfrwt beam="2">  1       -2 0.25687813E+00 0.38898675E+04</pdfrwt>
<totfact> 0.22008754E-01</totfact>
</mgrwt>
</event>
<event>
 6    1  0.2238133E-007  0.2002163E+04  0.7818608E-02  0.8605610E-01
          1   -1    0    0  501    0  0.00000000000E+00  0.00000000000E+00  0.47238612778E+03  0.47238612778E+03  0.00000000000E+00 0. -1.
         -1   -1    0    0    0  501 -0.00000000000E+00 -0.00000000000E+00 -0.21214930443E+04  0.21214930443E+04  0.00000000000E+00 0.  1.
         23    2    1    2    0    0 -0.55221908438E+03  0.53307238358E+03 -0.16547404687E+04  0.18263221252E+04  0.90412405197E+02 0.  0.
         11    1    3    3    0    0 -0.18114418970E+03  0.23128027679E+03 -0.66942878139E+03  0.73105312888E+03  0.00000000000E+00 0. -1.
        -11    1    3    3    0    0 -0.37107489468E+03  0.30179210678E+03 -0.98531168731E+03  0.10952689963E+04  0.00000000000E+00 0.  1.
         22    1    1    2    0    0  0.55221908438E+03 -0.53307238358E+03  0.56335521761E+01  0.76755704686E+03  0.00000000000E+00 0. -1.
<mgrwt>
<rscale>  0 0.20021627E+04</rscale>
<asrwt>0</asrwt>
<pdfrwt beam="1">  1        1 0.72674791E-01 0.20021627E+04</pdfrwt>
<pdfrwt beam="2">  1       -1 0.32638354E+00 0.20021627E+04</pdfrwt>
<totfact> 0.98937599E-01</totfact>
</mgrwt>
</event>
<event>
 6    1  0.2238133E-007  0.1585287E+04  0.7818608E-02  0.8829638E-01
         -2   -1    0    0    0  501 -0.00000000000E+00  0.00000000000E+00  0.38462173387E+03  0.38462173387E+03  0.00000000000E+00 0.  1.
          2   -1    0    0  501    0  0.00000000000E+00 -0.00000000000E+00 -0.16335113898E+04  0.16335113898E+04  0.00000000000E+00 0. -1.
         23    2    1    2    0    0 -0.36265667111E+03  0.20574943103E+03  0.22789331707E+03  0.48361670512E+03  0.89983687584E+02 0.  0.
         13    1    3    3    0    0 -0.28961720990E+03  0.13898512486E+03  0.13693415789E+03  0.34920761275E+03  0.00000000000E+00 0. -1.
        -13    1    3    3    0    0 -0.73039461207E+02  0.66764306169E+02  0.90959159184E+02  0.13440909237E+03  0.00000000000E+00 0.  1.
         22    1    1    2    0    0  0.36265667111E+03 -0.20574943103E+03 -0.14767829730E+04  0.15345164185E+04  0.00000000000E+00 0. -1.
<mgrwt>
<rscale>  0 0.15852873E+04</rscale>
<asrwt>0</asrwt>
<pdfrwt beam="1">  1        2 0.25130944E+00 0.15852873E+04</pdfrwt>
<pdfrwt beam="2">  1       -2 0.59172575E-01 0.15852873E+04</pdfrwt>
<totfact> 0.27344164E+01</totfact>
</mgrwt>
</event>
<event>
 6    1  0.2238133E-007  0.2868095E+04  0.7818608E-02  0.8282434E-01
          4   -1    0    0  501    0  0.00000000000E+00  0.00000000000E+00  0.11291914860E+04  0.11291914860E+04  0.00000000000E+00 0. -1.
         -4   -1    0    0    0  501 -0.00000000000E+00 -0.00000000000E+00 -0.18212075162E+04  0.18212075162E+04  0.00000000000E+00 0.  1.
         23    2    1    2    0    0 -0.13521925390E+04 -0.24370834705E+03 -0.76354660243E+03  0.15745592427E+04  0.91733166542E+02 0.  0.
         11    1    3    3    0    0 -0.32584491868E+03 -0.98736607826E+02 -0.19300021570E+03  0.39137311100E+03  0.00000000000E+00 0.  1.
        -11    1    3    3    0    0 -0.10263476203E+04 -0.14497173922E+03 -0.57054638673E+03  0.11831861317E+04  0.00000000000E+00 0. -1.
         22    1    1    2    0    0  0.13521925390E+04  0.24370834705E+03  0.71530572171E+02  0.13758397595E+04  0.00000000000E+00 0. -1.
<mgrwt>
<rscale>  0 0.28680949E+04</rscale>
<asrwt>0</asrwt>
<pdfrwt beam="1">  1        4 0.17372177E+00 0.28680949E+04</pdfrwt>
<pdfrwt beam="2">  1       -4 0.28018577E+00 0.28680949E+04</pdfrwt>
<totfact> 0.14042087E-02</totfact>
</mgrwt>
</event>
<event>
 6    1  0.2238133E-007  0.1531005E+04  0.7818608E-02  0.8864093E-01
         -2   -1    0    0    0  501 -0.00000000000E+00  0.00000000000E+00  0.59806992608E+03  0.59806992608E+03  0.00000000000E+00 0.  1.
          2   -1    0    0  501    0  0.00000000000E+00 -0.00000000000E+00 -0.97980804467E+03  0.97980804467E+03  0.00000000000E+00 0. -1.
         23    2    1    2    0    0 -0.32452199929E+03  0.40896348961E+03  0.38144971393E+03  0.65320433558E+03  0.92770447316E+02 0.  0.
         11    1    3    3    0    0 -0.26859959082E+03  0.27291241120E+03  0.26667704895E+03  0.46663001704E+03  0.00000000000E+00 0. -1.
        -11    1    3    3    0    0 -0.55922408479E+02  0.13605107841E+03  0.11477266498E+03  0.18657431853E+03  0.00000000000E+00 0.  1.
         22    1    1    2    0    0  0.32452199929E+03 -0.40896348961E+03 -0.76318783252E+03  0.92467363517E+03  0.00000000000E+00 0. -1.
<mgrwt>
<rscale>  0 0.15310045E+04</rscale>
<asrwt>0</asrwt>
<pdfrwt beam="1">  1        2 0.15073970E+00 0.15310045E+04</pdfrwt>
<pdfrwt beam="2">  1       -2 0.92010758E-01 0.15310045E+04</pdfrwt>
<totfact> 0.25129976E+01</totfact>
</mgrwt>
</event>
<event>
 6    1  0.2238133E-007  0.5756422E+03  0.7818608E-02  0.9957270E-01
         -2   -1    0    0    0  501 -0.00000000000E+00  0.00000000000E+00  0.34979350020E+02  0.34979350020E+02  0.00000000000E+00 0.  1.
          2   -1    0    0  501    0  0.00000000000E+00 -0.00000000000E+00 -0.23682822466E+04  0.23682822466E+04  0.00000000000E+00 0. -1.
         23    2    1    2    0    0  0.22756428621E+03  0.49481915363E+02 -0.18507088446E+04  0.18674155522E+04  0.88789936632E+02 0.  0.
         11    1    3    3    0    0  0.10739160104E+02 -0.51515792703E+01 -0.34391693310E+03  0.34412312506E+03  0.00000000000E+00 0. -1.
        -11    1    3    3    0    0  0.21682512610E+03  0.54633494634E+02 -0.15067919115E+04  0.15232924271E+04  0.00000000000E+00 0.  1.
         22    1    1    2    0    0 -0.22756428621E+03 -0.49481915363E+02 -0.48259405198E+03  0.53584604441E+03  0.00000000000E+00 0.  1.
<mgrwt>
<rscale>  0 0.57564216E+03</rscale>
<asrwt>0</asrwt>
<pdfrwt beam="1">  1        2 0.36435110E+00 0.57564216E+03</pdfrwt>
<pdfrwt beam="2">  1       -2 0.53814388E-02 0.57564216E+03</pdfrwt>
<totfact> 0.79962561E+02</totfact>
</mgrwt>
</event>
<event>
 6    1  0.2238133E-007  0.1156577E+04  0.7818608E-02  0.9151738E-01
          1   -1    0    0  501    0  0.00000000000E+00  0.00000000000E+00  0.14814690587E+03  0.14814690587E+03  0.00000000000E+00 0. -1.
         -1   -1    0    0    0  501 -0.00000000000E+00 -0.00000000000E+00 -0.22573362536E+04  0.22573362536E+04  0.00000000000E+00 0.  1.
         23    2    1    2    0    0 -0.52821172730E+03 -0.13986459506E+03 -0.14314244009E+04  0.15348885024E+04  0.91308079701E+02 0.  0.
         11    1    3    3    0    0 -0.18994006429E+03 -0.73260737491E+01 -0.52608798015E+03  0.55937417016E+03  0.00000000000E+00 0.  1.
        -11    1    3    3    0    0 -0.33827166301E+03 -0.13253852131E+03 -0.90533642075E+03  0.97551433222E+03  0.00000000000E+00 0. -1.
         22    1    1    2    0    0  0.52821172730E+03  0.13986459506E+03 -0.67776494680E+03  0.87059465707E+03  0.00000000000E+00 0.  1.
<mgrwt>
<rscale>  0 0.11565766E+04</rscale>
<asrwt>0</asrwt>
<pdfrwt beam="1">  1        1 0.22791834E-01 0.11565766E+04</pdfrwt>
<pdfrwt beam="2">  1       -1 0.34728246E+00 0.11565766E+04</pdfrwt>
<totfact> 0.35926622E+00</totfact>
</mgrwt>
</event>
<event>
 6    1  0.2238133E-007  0.3481630E+04  0.7818608E-02  0.8118157E-01
          2   -1    0    0  501    0  0.00000000000E+00  0.00000000000E+00  0.16685670955E+04  0.16685670955E+04  0.00000000000E+00 0. -1.
         -2   -1    0    0    0  501 -0.00000000000E+00 -0.00000000000E+00 -0.18161912738E+04  0.18161912738E+04  0.00000000000E+00 0.  1.
         23    2    1    2    0    0  0.14116473737E+04  0.90626239711E+03  0.38712529467E+03  0.17240719013E+04  0.92185069989E+02 0.  0.
         11    1    3    3    0    0  0.75457256125E+03  0.47937172408E+03  0.15926692949E+03  0.90804347630E+03  0.00000000000E+00 0. -1.
        -11    1    3    3    0    0  0.65707481242E+03  0.42689067304E+03  0.22785836518E+03  0.81602842501E+03  0.00000000000E+00 0.  1.
         22    1    1    2    0    0 -0.14116473737E+04 -0.90626239711E+03 -0.53474947296E+03  0.17606864681E+04  0.00000000000E+00 0.  1.
<mgrwt>
<rscale>  0 0.34816301E+04</rscale>
<asrwt>0</asrwt>
<pdfrwt beam="1">  1        2 0.25670263E+00 0.34816301E+04</pdfrwt>
<pdfrwt beam="2">  1       -2 0.27941404E+00 0.34816301E+04</pdfrwt>
<totfact> 0.35677344E-01</totfact>
</mgrwt>
</event>
<event>
 6    1  0.2238133E-007  0.4291318E+04  0.7818608E-02  0.7948225E-01
         -2   -1    0    0    0  501 -0.00000000000E+00  0.00000000000E+00  0.16720999460E+04  0.16720999460E+04  0.00000000000E+00 0.  1.
          2   -1    0    0  501    0  0.00000000000E+00 -0.00000000000E+00 -0.27533359542E+04  0.27533359542E+04  0.00000000000E+00 0. -1.
         23    2    1    2    0    0 -0.10848341909E+04  0.17444514280E+04 -0.11763515202E+04  0.23689770586E+04  0.90958224871E+02 0.  0.
         11    1    3    3    0    0 -0.52482502553E+03  0.92568501185E+03 -0.62519050856E+03  0.12341787636E+04  0.00000000000E+00 0.  1.
        -11    1    3    3    0    0 -0.56000916538E+03  0.81876641613E+03 -0.55116101161E+03  0.11347982949E+04  0.00000000000E+00 0. -1.
         22    1    1    2    0    0  0.10848341909E+04 -0.17444514280E+04  0.95115511966E+02  0.20564588416E+04  0.00000000000E+00 0.  1.
<mgrwt>
<rscale>  0 0.42913182E+04</rscale>
<asrwt>0</asrwt>
<pdfrwt beam="1">  1        2 0.42359014E+00 0.42913182E+04</pdfrwt>
<pdfrwt beam="2">  1       -2 0.25724615E+00 0.42913182E+04</pdfrwt>
<totfact> 0.11025520E-01</totfact>
</mgrwt>
</event>
<event>
 6    1  0.2238133E-007  0.2789010E+04  0.7818608E-02  0.8306688E-01
          1   -1    0    0  501    0  0.00000000000E+00  0.00000000000E+00  0.31381646406E+04  0.31381646406E+04  0.00000000000E+00 0. -1.
         -1   -1    0    0    0  501 -0.00000000000E+00 -0.00000000000E+00 -0.61967567604E+03  0.61967567604E+03  0.00000000000E+00 0.  1.
         23    2    1    2    0    0  0.12128646414E+04  0.60549114098E+03  0.82819944839E+03  0.15911057209E+04  0.89682376426E+02 0.  0.
         11    1    3    3    0    0  0.51690462468E+03  0.28357904531E+03  0.40483894176E+03  0.71519370433E+03  0.00000000000E+00 0. -1.
        -11    1    3    3    0    0  0.69596001668E+03  0.32191209567E+03  0.42336050662E+03  0.87591201654E+03  0.00000000000E+00 0.  1.
         22    1    1    2    0    0 -0.12128646414E+04 -0.60549114098E+03  0.16902895162E+04  0.21667345958E+04  0.00000000000E+00 0. -1.
<mgrwt>
<rscale>  0 0.27890101E+04</rscale>
<asrwt>0</asrwt>
<pdfrwt beam="1">  1        1 0.48279455E+00 0.27890101E+04</pdfrwt>
<pdfrwt beam="2">  1       -1 0.95334721E-01 0.27890101E+04</pdfrwt>
<totfact> 0.43499801E-01</totfact>
</mgrwt>
</event>
<event>
 6    1  0.2238133E-007  0.1244914E+04  0.7818608E-02  0.9074427E-01
          2   -1    0    0  501    0  0.00000000000E+00  0.00000000000E+00  0.15685408439E+04  0.15685408439E+04  0.00000000000E+00 0. -1.
         -2   -1    0    0    0  501 -0.00000000000E+00 -0.00000000000E+00 -0.24701489598E+03  0.24701489598E+03  0.00000000000E+00 0.  1.
         23    2    1    2    0    0 -0.88534263475E+02  0.60314475451E+03  0.51105152442E+03  0.80141043380E+03  0.97278528420E+02 0.  0.
         11    1    3    3    0    0  0.57912290133E+01  0.10536623142E+03  0.51586708486E+02  0.11745965073E+03  0.00000000000E+00 0.  1.
        -11    1    3    3    0    0 -0.94325492488E+02  0.49777852309E+03  0.45946481593E+03  0.68395078307E+03  0.00000000000E+00 0. -1.
         22    1    1    2    0    0  0.88534263475E+02 -0.60314475451E+03  0.81047442350E+03  0.10141453061E+04  0.00000000000E+00 0. -1.
<mgrwt>
<rscale>  0 0.12449144E+04</rscale>
<asrwt>0</asrwt>
<pdfrwt beam="1">  1        2 0.24131397E+00 0.12449144E+04</pdfrwt>
<pdfrwt beam="2">  1       -2 0.38002293E-01 0.12449144E+04</pdfrwt>
<totfact> 0.74653684E+01</totfact>
</mgrwt>
</event>
<event>
 6    1  0.2238133E-007  0.1069804E+04  0.7818608E-02  0.9235133E-01
         -2   -1    0    0    0  501 -0.00000000000E+00  0.00000000000E+00  0.75805747300E+03  0.75805747300E+03  0.00000000000E+00 0.  1.
          2   -1    0    0  501    0  0.00000000000E+00 -0.00000000000E+00 -0.37743835352E+03  0.37743835352E+03  0.00000000000E+00 0. -1.
         23    2    1    2    0    0  0.32694603494E+03  0.11205758202E+03  0.61931449864E+03  0.71546476162E+03  0.94280249519E+02 0.  0.
         13    1    3    3    0    0  0.17291655995E+03  0.10540457523E+03  0.31819322716E+03  0.37716997627E+03  0.00000000000E+00 0.  1.
        -13    1    3    3    0    0  0.15402947499E+03  0.66530067913E+01  0.30112127147E+03  0.33829478536E+03  0.00000000000E+00 0. -1.
         22    1    1    2    0    0 -0.32694603494E+03 -0.11205758202E+03 -0.23869537915E+03  0.42003106490E+03  0.00000000000E+00 0. -1.
<mgrwt>
<rscale>  0 0.10698037E+04</rscale>
<asrwt>0</asrwt>
<pdfrwt beam="1">  1        2 0.58067439E-01 0.10698037E+04</pdfrwt>
<pdfrwt beam="2">  1       -2 0.11662423E+00 0.10698037E+04</pdfrwt>
<totfact> 0.48095865E+01</totfact>
</mgrwt>
</event>
<event>
 6    1  0.2238133E-007  0.4084439E+04  0.7818608E-02  0.7987726E-01
          2   -1    0    0  501    0  0.00000000000E+00  0.00000000000E+00  0.20521331833E+04  0.20521331833E+04  0.00000000000E+00 0. -1.
         -2   -1    0    0    0  501 -0.00000000000E+00 -0.00000000000E+00 -0.20323540106E+04  0.20323540106E+04  0.00000000000E+00 0.  1.
         23    2    1    2    0    0  0.98198806336E+03 -0.63987231632E+03 -0.16613335290E+04  0.20351270367E+04  0.89307464956E+02 0.  0.
         11    1    3    3    0    0  0.20632820345E+03 -0.17718368651E+03 -0.36470250622E+03  0.45494318804E+03  0.00000000000E+00 0.  1.
        -11    1    3    3    0    0  0.77565985991E+03 -0.46268862981E+03 -0.12966310228E+04  0.15801838487E+04  0.00000000000E+00 0. -1.
         22    1    1    2    0    0 -0.98198806336E+03  0.63987231632E+03  0.16811127017E+04  0.20493601571E+04  0.00000000000E+00 0. -1.
<mgrwt>
<rscale>  0 0.40844393E+04</rscale>
<asrwt>0</asrwt>
<pdfrwt beam="1">  1        2 0.31571280E+00 0.40844393E+04</pdfrwt>
<pdfrwt beam="2">  1       -2 0.31266985E+00 0.40844393E+04</pdfrwt>
<totfact> 0.13009603E-01</totfact>
</mgrwt>
</event>
<event>
 6    1  0.2238133E-007  0.2030091E+04  0.7818608E-02  0.8592680E-01
          2   -1    0    0  501    0  0.00000000000E+00  0.00000000000E+00  0.13429432927E+04  0.13429432927E+04  0.00000000000E+00 0. -1.
         -2   -1    0    0    0  501 -0.00000000000E+00 -0.00000000000E+00 -0.76720813140E+03  0.76720813140E+03  0.00000000000E+00 0.  1.
         23    2    1    2    0    0 -0.23520125682E+03  0.47475499537E+03 -0.60894221694E+03  0.81239473375E+03  0.91992624763E+02 0.  0.
         11    1    3    3    0    0 -0.11846092162E+03  0.17387711005E+03 -0.18944173210E+03  0.28311554039E+03  0.00000000000E+00 0. -1.
        -11    1    3    3    0    0 -0.11674033520E+03  0.30087788532E+03 -0.41950048484E+03  0.52927919335E+03  0.00000000000E+00 0.  1.
         22    1    1    2    0    0  0.23520125682E+03 -0.47475499537E+03  0.11846773782E+04  0.12977566903E+04  0.00000000000E+00 0. -1.
<mgrwt>
<rscale>  0 0.20300907E+04</rscale>
<asrwt>0</asrwt>
<pdfrwt beam="1">  1        2 0.20660666E+00 0.20300907E+04</pdfrwt>
<pdfrwt beam="2">  1       -2 0.11803202E+00 0.20300907E+04</pdfrwt>
<totfact> 0.80040586E+00</totfact>
</mgrwt>
</event>
<event>
 6    1  0.2238133E-007  0.7165160E+03  0.7818608E-02  0.9689397E-01
         -1   -1    0    0    0  501 -0.00000000000E+00  0.00000000000E+00  0.21723484627E+03  0.21723484627E+03  0.00000000000E+00 0.  1.
          1   -1    0    0  501    0  0.00000000000E+00 -0.00000000000E+00 -0.59082975202E+03  0.59082975202E+03  0.00000000000E+00 0. -1.
         23    2    1    2    0    0  0.48375422900E+02  0.33041214431E+03 -0.53947641280E+02  0.34580196696E+03  0.71807281690E+02 0.  0.
         13    1    3    3    0    0  0.57244180337E+02  0.16150227972E+03 -0.13420890745E+02  0.17187205371E+03  0.00000000000E+00 0. -1.
        -13    1    3    3    0    0 -0.88687574372E+01  0.16890986459E+03 -0.40526750534E+02  0.17392991325E+03  0.00000000000E+00 0.  1.
         22    1    1    2    0    0 -0.48375422900E+02 -0.33041214431E+03 -0.31964726447E+03  0.46226263134E+03  0.00000000000E+00 0. -1.
<mgrwt>
<rscale>  0 0.71651604E+03</rscale>
<asrwt>0</asrwt>
<pdfrwt beam="1">  1        1 0.90896884E-01 0.71651604E+03</pdfrwt>
<pdfrwt beam="2">  1       -1 0.33420746E-01 0.71651604E+03</pdfrwt>
<totfact> 0.29859015E+02</totfact>
</mgrwt>
</event>
<event>
 6    1  0.2238133E-007  0.6886671E+03  0.7818608E-02  0.9736812E-01
         -2   -1    0    0    0  501 -0.00000000000E+00  0.00000000000E+00  0.37056850566E+02  0.37056850566E+02  0.00000000000E+00 0.  1.
          2   -1    0    0  501    0  0.00000000000E+00 -0.00000000000E+00 -0.31995595311E+04  0.31995595311E+04  0.00000000000E+00 0. -1.
         23    2    1    2    0    0 -0.63208012685E+02  0.20851510429E+03 -0.28253417746E+04  0.28351798635E+04  0.90636161702E+02 0.  0.
         11    1    3    3    0    0 -0.80557546922E+02  0.12938356967E+03 -0.16369557593E+04  0.16440358221E+04  0.00000000000E+00 0. -1.
        -11    1    3    3    0    0  0.17349534237E+02  0.79131534627E+02 -0.11883860153E+04  0.11911440414E+04  0.00000000000E+00 0.  1.
         22    1    1    2    0    0  0.63208012685E+02 -0.20851510429E+03 -0.33716090595E+03  0.40143651813E+03  0.00000000000E+00 0.  1.
<mgrwt>
<rscale>  0 0.68866712E+03</rscale>
<asrwt>0</asrwt>
<pdfrwt beam="1">  1        2 0.49223973E+00 0.68866712E+03</pdfrwt>
<pdfrwt beam="2">  1       -2 0.57010562E-02 0.68866712E+03</pdfrwt>
<totfact> 0.23381661E+02</totfact>
</mgrwt>
</event>
<event>
 6    1  0.2238133E-007  0.8241510E+03  0.7818608E-02  0.9525703E-01
          2   -1    0    0  501    0  0.00000000000E+00  0.00000000000E+00  0.12576080507E+04  0.12576080507E+04  0.00000000000E+00 0. -1.
         -2   -1    0    0    0  501 -0.00000000000E+00 -0.00000000000E+00 -0.13502316366E+03  0.13502316366E+03  0.00000000000E+00 0.  1.
         23    2    1    2    0    0 -0.28755435320E+03  0.15859367835E+03  0.97463873654E+03  0.10324541408E+04  0.90561721151E+02 0.  0.
         13    1    3    3    0    0 -0.25280979415E+03  0.14328225411E+03  0.74444601075E+03  0.79915108664E+03  0.00000000000E+00 0. -1.
        -13    1    3    3    0    0 -0.34744559051E+02  0.15311424238E+02  0.23019272579E+03  0.23330305421E+03  0.00000000000E+00 0.  1.
         22    1    1    2    0    0  0.28755435320E+03 -0.15859367835E+03  0.14794615054E+03  0.36017707356E+03  0.00000000000E+00 0.  1.
<mgrwt>
<rscale>  0 0.82415100E+03</rscale>
<asrwt>0</asrwt>
<pdfrwt beam="1">  1        2 0.19347815E+00 0.82415100E+03</pdfrwt>
<pdfrwt beam="2">  1       -2 0.20772795E-01 0.82415100E+03</pdfrwt>
<totfact> 0.35138236E+02</totfact>
</mgrwt>
</event>
<event>
 6    1  0.2238133E-007  0.1777686E+04  0.7818608E-02  0.8718257E-01
         -2   -1    0    0    0  501 -0.00000000000E+00  0.00000000000E+00  0.18944043008E+04  0.18944043008E+04  0.00000000000E+00 0.  1.
          2   -1    0    0  501    0  0.00000000000E+00 -0.00000000000E+00 -0.41703965757E+03  0.41703965757E+03  0.00000000000E+00 0. -1.
         23    2    1    2    0    0  0.82432676398E+03  0.21912323124E+03  0.42645044964E+03  0.95794839259E+03  0.90969954242E+02 0.  0.
         13    1    3    3    0    0  0.33906685057E+03  0.10208195464E+03  0.12897960373E+03  0.37685911531E+03  0.00000000000E+00 0. -1.
        -13    1    3    3    0    0  0.48525991341E+03  0.11704127660E+03  0.29747084591E+03  0.58108927727E+03  0.00000000000E+00 0.  1.
         22    1    1    2    0    0 -0.82432676398E+03 -0.21912323124E+03  0.10509141936E+04  0.13534955657E+04  0.00000000000E+00 0.  1.
<mgrwt>
<rscale>  0 0.17776858E+04</rscale>
<asrwt>0</asrwt>
<pdfrwt beam="1">  1        2 0.64159949E-01 0.17776858E+04</pdfrwt>
<pdfrwt beam="2">  1       -2 0.29144681E+00 0.17776858E+04</pdfrwt>
<totfact> 0.25756119E+00</totfact>
</mgrwt>
</event>
<event>
 6    1  0.2238133E-007  0.1992623E+04  0.7818608E-02  0.8610077E-01
         -1   -1    0    0    0  501 -0.00000000000E+00  0.00000000000E+00  0.54319040858E+03  0.54319040858E+03  0.00000000000E+00 0.  1.
          1   -1    0    0  501    0  0.00000000000E+00 -0.00000000000E+00 -0.18274191263E+04  0.18274191263E+04  0.00000000000E+00 0. -1.
         23    2    1    2    0    0 -0.66070489191E+03  0.65282873218E+03 -0.10653210584E+04  0.14163365807E+04  0.91564428902E+02 0.  0.
         13    1    3    3    0    0 -0.48173984496E+03  0.41620493635E+03 -0.73046741408E+03  0.96895947815E+03  0.00000000000E+00 0. -1.
        -13    1    3    3    0    0 -0.17896504695E+03  0.23662379583E+03 -0.33485364428E+03  0.44737710253E+03  0.00000000000E+00 0.  1.
         22    1    1    2    0    0  0.66070489191E+03 -0.65282873218E+03 -0.21890765934E+03  0.95427295418E+03  0.00000000000E+00 0. -1.
<mgrwt>
<rscale>  0 0.19926229E+04</rscale>
<asrwt>0</asrwt>
<pdfrwt beam="1">  1        1 0.28114141E+00 0.19926229E+04</pdfrwt>
<pdfrwt beam="2">  1       -1 0.83567754E-01 0.19926229E+04</pdfrwt>
<totfact> 0.51453554E+00</totfact>
</mgrwt>
</event>
<event>
 6    1  0.2238133E-007  0.9210851E+03  0.7818608E-02  0.9399601E-01
         -1   -1    0    0    0  501 -0.00000000000E+00  0.00000000000E+00  0.42186522747E+03  0.42186522747E+03  0.00000000000E+00 0.  1.
          1   -1    0    0  501    0  0.00000000000E+00 -0.00000000000E+00 -0.50276592237E+03  0.50276592237E+03  0.00000000000E+00 0. -1.
         23    2    1    2    0    0  0.10472927760E+03 -0.32886345061E+02  0.40345561448E+03  0.42799167526E+03  0.91382208107E+02 0.  0.
         13    1    3    3    0    0  0.36916790366E+01 -0.34191098453E+02  0.17256577843E+03  0.17595910773E+03  0.00000000000E+00 0.  1.
        -13    1    3    3    0    0  0.10103759857E+03  0.13047533923E+01  0.23088983605E+03  0.25203256753E+03  0.00000000000E+00 0. -1.
         22    1    1    2    0    0 -0.10472927760E+03  0.32886345061E+02 -0.48435630937E+03  0.49663947458E+03  0.00000000000E+00 0. -1.
<mgrwt>
<rscale>  0 0.92108514E+03</rscale>
<asrwt>0</asrwt>
<pdfrwt beam="1">  1        1 0.77348603E-01 0.92108514E+03</pdfrwt>
<pdfrwt beam="2">  1       -1 0.64902343E-01 0.92108514E+03</pdfrwt>
<totfact> 0.10663617E+02</totfact>
</mgrwt>
</event>
<event>
 6    1  0.2238133E-007  0.1446827E+04  0.7818608E-02  0.8920603E-01
         -2   -1    0    0    0  501 -0.00000000000E+00  0.00000000000E+00  0.39917993356E+03  0.39917993356E+03  0.00000000000E+00 0.  1.
          2   -1    0    0  501    0  0.00000000000E+00 -0.00000000000E+00 -0.13110053837E+04  0.13110053837E+04  0.00000000000E+00 0. -1.
         23    2    1    2    0    0 -0.71957289318E+03 -0.37717624058E+01 -0.49280033243E+03  0.87749004042E+03  0.96629336095E+02 0.  0.
         11    1    3    3    0    0 -0.68759009811E+03 -0.50611904491E+01 -0.44190212255E+03  0.81736359387E+03  0.00000000000E+00 0.  1.
        -11    1    3    3    0    0 -0.31982795070E+02  0.12894280433E+01 -0.50898209885E+02  0.60126446549E+02  0.00000000000E+00 0. -1.
         22    1    1    2    0    0  0.71957289318E+03  0.37717624058E+01 -0.41902511770E+03  0.83269527683E+03  0.00000000000E+00 0. -1.
<mgrwt>
<rscale>  0 0.14468269E+04</rscale>
<asrwt>0</asrwt>
<pdfrwt beam="1">  1        2 0.20169314E+00 0.14468269E+04</pdfrwt>
<pdfrwt beam="2">  1       -2 0.61412296E-01 0.14468269E+04</pdfrwt>
<totfact> 0.38948274E+01</totfact>
</mgrwt>
</event>
<event>
 6    1  0.2238133E-007  0.2969747E+04  0.7818608E-02  0.8252423E-01
          1   -1    0    0  501    0  0.00000000000E+00  0.00000000000E+00  0.32939864349E+04  0.32939864349E+04  0.00000000000E+00 0. -1.
         -1   -1    0    0    0  501 -0.00000000000E+00 -0.00000000000E+00 -0.66935582303E+03  0.66935582303E+03  0.00000000000E+00 0.  1.
         23    2    1    2    0    0 -0.11682934201E+04 -0.86033431440E+03  0.90158748797E+03  0.17107965303E+04  0.94234397931E+02 0.  0.
         11    1    3    3    0    0 -0.37172761940E+03 -0.22740757261E+03  0.29610955526E+03  0.52685528926E+03  0.00000000000E+00 0.  1.
        -11    1    3    3    0    0 -0.79656580073E+03 -0.63292674178E+03  0.60547793272E+03  0.11839412411E+04  0.00000000000E+00 0. -1.
         22    1    1    2    0    0  0.11682934201E+04  0.86033431440E+03  0.17230431239E+04  0.22525457276E+04  0.00000000000E+00 0. -1.
<mgrwt>
<rscale>  0 0.29697468E+04</rscale>
<asrwt>0</asrwt>
<pdfrwt beam="1">  1        1 0.50676714E+00 0.29697468E+04</pdfrwt>
<pdfrwt beam="2">  1       -1 0.10297782E+00 0.29697468E+04</pdfrwt>
<totfact> 0.27408599E-01</totfact>
</mgrwt>
</event>
<event>
 6    1  0.2238133E-007  0.3037151E+04  0.7818608E-02  0.8233201E-01
          2   -1    0    0  501    0  0.00000000000E+00  0.00000000000E+00  0.23212110843E+04  0.23212110843E+04  0.00000000000E+00 0. -1.
         -2   -1    0    0    0  501 -0.00000000000E+00 -0.00000000000E+00 -0.99347804001E+03  0.99347804001E+03  0.00000000000E+00 0.  1.
         23    2    1    2    0    0 -0.11024565947E+04  0.69989262690E+03 -0.17906339813E+03  0.13207744443E+04  0.84387200541E+02 0.  0.
         11    1    3    3    0    0 -0.33049239756E+03  0.16922095734E+03 -0.34200443514E+02  0.37286811018E+03  0.00000000000E+00 0.  1.
        -11    1    3    3    0    0 -0.77196419716E+03  0.53067166956E+03 -0.14486295462E+03  0.94790633408E+03  0.00000000000E+00 0. -1.
         22    1    1    2    0    0  0.11024565947E+04 -0.69989262690E+03  0.15067964424E+04  0.19939146800E+04  0.00000000000E+00 0. -1.
<mgrwt>
<rscale>  0 0.30371515E+04</rscale>
<asrwt>0</asrwt>
<pdfrwt beam="1">  1        2 0.35710940E+00 0.30371515E+04</pdfrwt>
<pdfrwt beam="2">  1       -2 0.15284278E+00 0.30371515E+04</pdfrwt>
<totfact> 0.10724478E+00</totfact>
</mgrwt>
</event>
<event>
 6    1  0.2238133E-007  0.1910697E+04  0.7818608E-02  0.8649550E-01
         -2   -1    0    0    0  501 -0.00000000000E+00  0.00000000000E+00  0.49534485771E+03  0.49534485771E+03  0.00000000000E+00 0.  1.
          2   -1    0    0  501    0  0.00000000000E+00 -0.00000000000E+00 -0.18425352956E+04  0.18425352956E+04  0.00000000000E+00 0. -1.
         23    2    1    2    0    0  0.55403911046E+03 -0.61196339137E+03 -0.92071651156E+02  0.83562128843E+03  0.91253605013E+02 0.  0.
         11    1    3    3    0    0  0.34585799891E+03 -0.43242004694E+03 -0.88094808462E+02  0.56068310808E+03  0.00000000000E+00 0.  1.
        -11    1    3    3    0    0  0.20818111155E+03 -0.17954334443E+03 -0.39768426943E+01  0.27493818035E+03  0.00000000000E+00 0. -1.
         22    1    1    2    0    0 -0.55403911046E+03  0.61196339137E+03 -0.12551187868E+04  0.15022588649E+04  0.00000000000E+00 0. -1.
<mgrwt>
<rscale>  0 0.19106966E+04</rscale>
<asrwt>0</asrwt>
<pdfrwt beam="1">  1        2 0.28346696E+00 0.19106966E+04</pdfrwt>
<pdfrwt beam="2">  1       -2 0.76206903E-01 0.19106966E+04</pdfrwt>
<totfact> 0.11784211E+01</totfact>
</mgrwt>
</event>
<event>
 6    1  0.2238133E-007  0.2836505E+04  0.7818608E-02  0.8292024E-01
         -2   -1    0    0    0  501 -0.00000000000E+00  0.00000000000E+00  0.16956539471E+04  0.16956539471E+04  0.00000000000E+00 0.  1.
          2   -1    0    0  501    0  0.00000000000E+00 -0.00000000000E+00 -0.11862324503E+04  0.11862324503E+04  0.00000000000E+00 0. -1.
         23    2    1    2    0    0  0.42149363821E+03  0.71925749239E+03  0.14188622237E+04  0.16481641179E+04  0.91031435679E+02 0.  0.
         13    1    3    3    0    0  0.19197891198E+03  0.37040548155E+03  0.63041396174E+03  0.75596156421E+03  0.00000000000E+00 0. -1.
        -13    1    3    3    0    0  0.22951472624E+03  0.34885201084E+03  0.78844826193E+03  0.89220255367E+03  0.00000000000E+00 0.  1.
         22    1    1    2    0    0 -0.42149363821E+03 -0.71925749239E+03 -0.90944072685E+03  0.12337222796E+04  0.00000000000E+00 0. -1.
<mgrwt>
<rscale>  0 0.28365047E+04</rscale>
<asrwt>0</asrwt>
<pdfrwt beam="1">  1        2 0.18249730E+00 0.28365047E+04</pdfrwt>
<pdfrwt beam="2">  1       -2 0.26086984E+00 0.28365047E+04</pdfrwt>
<totfact> 0.92300094E-01</totfact>
</mgrwt>
</event>
<event>
 6    1  0.2238133E-007  0.3752344E+04  0.7818608E-02  0.8056460E-01
          2   -1    0    0  501    0  0.00000000000E+00  0.00000000000E+00  0.43512541765E+04  0.43512541765E+04  0.00000000000E+00 0. -1.
         -2   -1    0    0    0  501 -0.00000000000E+00 -0.00000000000E+00 -0.80896711642E+03  0.80896711642E+03  0.00000000000E+00 0.  1.
         23    2    1    2    0    0  0.53605190565E+02  0.16594485960E+04  0.57501098170E+03  0.17600197570E+04  0.10192525061E+03 0.  0.
         11    1    3    3    0    0 -0.84029120661E+01  0.55907844343E+03  0.23637602572E+03  0.60705266689E+03  0.00000000000E+00 0.  1.
        -11    1    3    3    0    0  0.62008102631E+02  0.11003701526E+04  0.33863495599E+03  0.11529670901E+04  0.00000000000E+00 0. -1.
         22    1    1    2    0    0 -0.53605190565E+02 -0.16594485960E+04  0.29672760784E+04  0.34002015359E+04  0.00000000000E+00 0. -1.
<mgrwt>
<rscale>  0 0.37523441E+04</rscale>
<asrwt>0</asrwt>
<pdfrwt beam="1">  1        2 0.66942370E+00 0.37523441E+04</pdfrwt>
<pdfrwt beam="2">  1       -2 0.12445648E+00 0.37523441E+04</pdfrwt>
<totfact> 0.66131638E-02</totfact>
</mgrwt>
</event>
<event>
 6    1  0.2238133E-007  0.2968187E+04  0.7818608E-02  0.8252874E-01
         -4   -1    0    0    0  501 -0.00000000000E+00  0.00000000000E+00  0.22671405096E+04  0.22671405096E+04  0.00000000000E+00 0.  1.
          4   -1    0    0  501    0  0.00000000000E+00 -0.00000000000E+00 -0.97150295672E+03  0.97150295672E+03  0.00000000000E+00 0. -1.
         23    2    1    2    0    0  0.10835626496E+04  0.32584789993E+03 -0.39731575225E+03  0.12023783159E+04  0.86999643362E+02 0.  0.
         11    1    3    3    0    0  0.42497349943E+03  0.16283087489E+03 -0.18749486060E+03  0.49221000781E+03  0.00000000000E+00 0. -1.
        -11    1    3    3    0    0  0.65858915020E+03  0.16301702504E+03 -0.20982089165E+03  0.71016830807E+03  0.00000000000E+00 0.  1.
         22    1    1    2    0    0 -0.10835626496E+04 -0.32584789993E+03  0.16929533051E+04  0.20362651505E+04  0.00000000000E+00 0.  1.
<mgrwt>
<rscale>  0 0.29681871E+04</rscale>
<asrwt>0</asrwt>
<pdfrwt beam="1">  1        4 0.14946199E+00 0.29681871E+04</pdfrwt>
<pdfrwt beam="2">  1       -4 0.34879085E+00 0.29681871E+04</pdfrwt>
<totfact> 0.77365515E-03</totfact>
</mgrwt>
</event>
<event>
 6    1  0.2238133E-007  0.7456974E+03  0.7818608E-02  0.9642125E-01
          2   -1    0    0  501    0  0.00000000000E+00  0.00000000000E+00  0.30816788294E+03  0.30816788294E+03  0.00000000000E+00 0. -1.
         -2   -1    0    0    0  501 -0.00000000000E+00 -0.00000000000E+00 -0.45110521739E+03  0.45110521739E+03  0.00000000000E+00 0.  1.
         23    2    1    2    0    0  0.11328953245E+03  0.25380779678E+03  0.17379414019E+03  0.33788047712E+03  0.81889546224E+02 0.  0.
         11    1    3    3    0    0  0.76354082997E+02  0.23381965520E+03  0.13437847900E+03  0.28028405728E+03  0.00000000000E+00 0.  1.
        -11    1    3    3    0    0  0.36935449457E+02  0.19988141582E+02  0.39415661197E+02  0.57596419838E+02  0.00000000000E+00 0. -1.
         22    1    1    2    0    0 -0.11328953245E+03 -0.25380779678E+03 -0.31673147465E+03  0.42139262322E+03  0.00000000000E+00 0.  1.
<mgrwt>
<rscale>  0 0.74569736E+03</rscale>
<asrwt>0</asrwt>
<pdfrwt beam="1">  1        2 0.47410444E-01 0.74569736E+03</pdfrwt>
<pdfrwt beam="2">  1       -2 0.69400802E-01 0.74569736E+03</pdfrwt>
<totfact> 0.20365825E+02</totfact>
</mgrwt>
</event>
<event>
 6    1  0.2238133E-007  0.3897771E+04  0.7818608E-02  0.8025493E-01
         -2   -1    0    0    0  501 -0.00000000000E+00  0.00000000000E+00  0.96637790664E+03  0.96637790664E+03  0.00000000000E+00 0.  1.
          2   -1    0    0  501    0  0.00000000000E+00 -0.00000000000E+00 -0.39303001834E+04  0.39303001834E+04  0.00000000000E+00 0. -1.
         23    2    1    2    0    0  0.18081303850E+04  0.18739104929E+03 -0.60425691778E+03  0.19180086722E+04  0.95812051514E+02 0.  0.
         11    1    3    3    0    0  0.73264615403E+03  0.41884238823E+02 -0.20949206293E+03  0.76315896175E+03  0.00000000000E+00 0.  1.
        -11    1    3    3    0    0  0.10754842310E+04  0.14550681047E+03 -0.39476485485E+03  0.11548497104E+04  0.00000000000E+00 0. -1.
         22    1    1    2    0    0 -0.18081303850E+04 -0.18739104929E+03 -0.23596653590E+04  0.29786694179E+04  0.00000000000E+00 0. -1.
<mgrwt>
<rscale>  0 0.38977713E+04</rscale>
<asrwt>0</asrwt>
<pdfrwt beam="1">  1        2 0.60466156E+00 0.38977713E+04</pdfrwt>
<pdfrwt beam="2">  1       -2 0.14867353E+00 0.38977713E+04</pdfrwt>
<totfact> 0.94623369E-02</totfact>
</mgrwt>
</event>
<event>
 6    1  0.2238133E-007  0.2074921E+04  0.7818608E-02  0.8572372E-01
          2   -1    0    0  501    0  0.00000000000E+00  0.00000000000E+00  0.13061274787E+04  0.13061274787E+04  0.00000000000E+00 0. -1.
         -2   -1    0    0    0  501 -0.00000000000E+00 -0.00000000000E+00 -0.82405750637E+03  0.82405750637E+03  0.00000000000E+00 0.  1.
         23    2    1    2    0    0  0.34246409388E+03 -0.90092785697E+03  0.63003412022E+03  0.11550716337E+04  0.91075942183E+02 0.  0.
         11    1    3    3    0    0  0.33530405705E+03 -0.87019490309E+03  0.62617098734E+03  0.11232800565E+04  0.00000000000E+00 0. -1.
        -11    1    3    3    0    0  0.71600368375E+01 -0.30732953881E+02  0.38631328747E+01  0.31791577145E+02  0.00000000000E+00 0.  1.
         22    1    1    2    0    0 -0.34246409388E+03  0.90092785697E+03 -0.14796414785E+03  0.97511335142E+03  0.00000000000E+00 0.  1.
<mgrwt>
<rscale>  0 0.20749209E+04</rscale>
<asrwt>0</asrwt>
<pdfrwt beam="1">  1        2 0.20094269E+00 0.20749209E+04</pdfrwt>
<pdfrwt beam="2">  1       -2 0.12677808E+00 0.20749209E+04</pdfrwt>
<totfact> 0.70073378E+00</totfact>
</mgrwt>
</event>
<event>
 6    1  0.2238133E-007  0.1225353E+04  0.7818608E-02  0.9090950E-01
          2   -1    0    0  501    0  0.00000000000E+00  0.00000000000E+00  0.98692551897E+03  0.98692551897E+03  0.00000000000E+00 0. -1.
         -2   -1    0    0    0  501 -0.00000000000E+00 -0.00000000000E+00 -0.38034535928E+03  0.38034535928E+03  0.00000000000E+00 0.  1.
         23    2    1    2    0    0  0.67297075691E+02  0.58667070274E+03  0.47264589113E+03  0.76175473632E+03  0.90358895862E+02 0.  0.
         13    1    3    3    0    0 -0.94504233682E+01  0.22345151213E+03  0.21191847136E+03  0.30810603252E+03  0.00000000000E+00 0. -1.
        -13    1    3    3    0    0  0.76747499059E+02  0.36321919061E+03  0.26072741977E+03  0.45364870380E+03  0.00000000000E+00 0.  1.
         22    1    1    2    0    0 -0.67297075691E+02 -0.58667070274E+03  0.13393426856E+03  0.60551614193E+03  0.00000000000E+00 0. -1.
<mgrwt>
<rscale>  0 0.12253531E+04</rscale>
<asrwt>0</asrwt>
<pdfrwt beam="1">  1        2 0.15183469E+00 0.12253531E+04</pdfrwt>
<pdfrwt beam="2">  1       -2 0.58514671E-01 0.12253531E+04</pdfrwt>
<totfact> 0.69095695E+01</totfact>
</mgrwt>
</event>
<event>
 6    1  0.2238133E-007  0.1027563E+04  0.7818608E-02  0.9278821E-01
          1   -1    0    0  501    0  0.00000000000E+00  0.00000000000E+00  0.51275788842E+03  0.51275788842E+03  0.00000000000E+00 0. -1.
         -1   -1    0    0    0  501 -0.00000000000E+00 -0.00000000000E+00 -0.51480690264E+03  0.51480690264E+03  0.00000000000E+00 0.  1.
         23    2    1    2    0    0  0.25468166017E+03  0.15762899532E+02 -0.44318280501E+03  0.51794705353E+03  0.82139725927E+02 0.  0.
         11    1    3    3    0    0  0.22076477223E+03  0.31972720818E+02 -0.32703683255E+03  0.39586920741E+03  0.00000000000E+00 0. -1.
        -11    1    3    3    0    0  0.33916887939E+02 -0.16209821286E+02 -0.11614597246E+03  0.12207784611E+03  0.00000000000E+00 0.  1.
         22    1    1    2    0    0 -0.25468166017E+03 -0.15762899532E+02  0.44113379079E+03  0.50961773753E+03  0.00000000000E+00 0. -1.
<mgrwt>
<rscale>  0 0.10275627E+04</rscale>
<asrwt>0</asrwt>
<pdfrwt beam="1">  1        1 0.78885829E-01 0.10275627E+04</pdfrwt>
<pdfrwt beam="2">  1       -1 0.79201062E-01 0.10275627E+04</pdfrwt>
<totfact> 0.68313943E+01</totfact>
</mgrwt>
</event>
<event>
 6    1  0.2238133E-007  0.1595588E+04  0.7818608E-02  0.8823263E-01
          2   -1    0    0  501    0  0.00000000000E+00  0.00000000000E+00  0.29587517643E+04  0.29587517643E+04  0.00000000000E+00 0. -1.
         -2   -1    0    0    0  501 -0.00000000000E+00 -0.00000000000E+00 -0.21511602976E+03  0.21511602976E+03  0.00000000000E+00 0.  1.
         23    2    1    2    0    0 -0.43008422198E+03  0.57213535373E+03  0.68689207273E+03  0.99613829034E+03  0.90329800904E+02 0.  0.
         13    1    3    3    0    0 -0.17795043214E+03  0.29968624977E+03  0.29866917655E+03  0.45900052464E+03  0.00000000000E+00 0. -1.
        -13    1    3    3    0    0 -0.25213378984E+03  0.27244910395E+03  0.38822289618E+03  0.53713776570E+03  0.00000000000E+00 0.  1.
         22    1    1    2    0    0  0.43008422198E+03 -0.57213535373E+03  0.20567436618E+04  0.21777295037E+04  0.00000000000E+00 0. -1.
<mgrwt>
<rscale>  0 0.15955876E+04</rscale>
<asrwt>0</asrwt>
<pdfrwt beam="1">  1        2 0.45519255E+00 0.15955876E+04</pdfrwt>
<pdfrwt beam="2">  1       -2 0.33094776E-01 0.15955876E+04</pdfrwt>
<totfact> 0.15192209E+01</totfact>
</mgrwt>
</event>
<event>
 6    1  0.2238133E-007  0.2091939E+04  0.7818608E-02  0.8564802E-01
          2   -1    0    0  501    0  0.00000000000E+00  0.00000000000E+00  0.14429166494E+04  0.14429166494E+04  0.00000000000E+00 0. -1.
         -2   -1    0    0    0  501 -0.00000000000E+00 -0.00000000000E+00 -0.75822303464E+03  0.75822303464E+03  0.00000000000E+00 0.  1.
         23    2    1    2    0    0 -0.31024588918E+03  0.16854218018E+03  0.13763984814E+04  0.14245351509E+04  0.10083966526E+03 0.  0.
         11    1    3    3    0    0 -0.27647041063E+02  0.55928941953E+02  0.20533822801E+03  0.21460706724E+03  0.00000000000E+00 0.  1.
        -11    1    3    3    0    0 -0.28259884812E+03  0.11261323822E+03  0.11710602534E+04  0.12099280836E+04  0.00000000000E+00 0. -1.
         22    1    1    2    0    0  0.31024588918E+03 -0.16854218018E+03 -0.69170486671E+03  0.77660453314E+03  0.00000000000E+00 0.  1.
<mgrwt>
<rscale>  0 0.20919394E+04</rscale>
<asrwt>0</asrwt>
<pdfrwt beam="1">  1        2 0.22198718E+00 0.20919394E+04</pdfrwt>
<pdfrwt beam="2">  1       -2 0.11664970E+00 0.20919394E+04</pdfrwt>
<totfact> 0.71830124E+00</totfact>
</mgrwt>
</event>
<event>
 6    1  0.2238133E-007  0.6090064E+04  0.7818608E-02  0.7679334E-01
         -2   -1    0    0    0  501 -0.00000000000E+00  0.00000000000E+00  0.22275883337E+04  0.22275883337E+04  0.00000000000E+00 0.  1.
          2   -1    0    0  501    0  0.00000000000E+00 -0.00000000000E+00 -0.41624477172E+04  0.41624477172E+04  0.00000000000E+00 0. -1.
         23    2    1    2    0    0  0.25845522461E+04  0.10444868786E+04  0.31625590867E+03  0.28069670855E+04  0.90461410858E+02 0.  0.
         11    1    3    3    0    0  0.20732856665E+04  0.87618880992E+03  0.25180665154E+03  0.22648679598E+04  0.00000000000E+00 0. -1.
        -11    1    3    3    0    0  0.51126657954E+03  0.16829806872E+03  0.64449257127E+02  0.54209912565E+03  0.00000000000E+00 0.  1.
         22    1    1    2    0    0 -0.25845522461E+04 -0.10444868786E+04 -0.22511152922E+04  0.35830689654E+04  0.00000000000E+00 0. -1.
<mgrwt>
<rscale>  0 0.60900640E+04</rscale>
<asrwt>0</asrwt>
<pdfrwt beam="1">  1        2 0.64037656E+00 0.60900640E+04</pdfrwt>
<pdfrwt beam="2">  1       -2 0.34270590E+00 0.60900640E+04</pdfrwt>
<totfact> 0.28754877E-03</totfact>
</mgrwt>
</event>
<event>
 6    1  0.2238133E-007  0.2269491E+04  0.7818608E-02  0.8490048E-01
          2   -1    0    0  501    0  0.00000000000E+00  0.00000000000E+00  0.17652586754E+04  0.17652586754E+04  0.00000000000E+00 0. -1.
         -2   -1    0    0    0  501 -0.00000000000E+00 -0.00000000000E+00 -0.72943848678E+03  0.72943848678E+03  0.00000000000E+00 0.  1.
         23    2    1    2    0    0 -0.79255667471E+03 -0.23807208904E+03 -0.33173474971E+03  0.89625075659E+03  0.91613712577E+02 0.  0.
         13    1    3    3    0    0 -0.22588328935E+03 -0.85928630165E+02 -0.13828048450E+03  0.27843936914E+03  0.00000000000E+00 0.  1.
        -13    1    3    3    0    0 -0.56667338536E+03 -0.15214345887E+03 -0.19345426520E+03  0.61781138746E+03  0.00000000000E+00 0. -1.
         22    1    1    2    0    0  0.79255667471E+03  0.23807208904E+03  0.13675549383E+04  0.15984464056E+04  0.00000000000E+00 0. -1.
<mgrwt>
<rscale>  0 0.22694912E+04</rscale>
<asrwt>0</asrwt>
<pdfrwt beam="1">  1        2 0.27157826E+00 0.22694912E+04</pdfrwt>
<pdfrwt beam="2">  1       -2 0.11222131E+00 0.22694912E+04</pdfrwt>
<totfact> 0.51317799E+00</totfact>
</mgrwt>
</event>
<event>
 6    1  0.2238133E-007  0.1531893E+04  0.7818608E-02  0.8863517E-01
          1   -1    0    0  501    0  0.00000000000E+00  0.00000000000E+00  0.21105016649E+04  0.21105016649E+04  0.00000000000E+00 0. -1.
         -1   -1    0    0    0  501 -0.00000000000E+00 -0.00000000000E+00 -0.27797848407E+03  0.27797848407E+03  0.00000000000E+00 0.  1.
         23    2    1    2    0    0  0.26071307635E+03 -0.68701945267E+03  0.12423696626E+04  0.14460109391E+04  0.86592267851E+02 0.  0.
         13    1    3    3    0    0  0.22955461583E+03 -0.61924964428E+03  0.11604652024E+04  0.13352321632E+04  0.00000000000E+00 0. -1.
        -13    1    3    3    0    0  0.31158460514E+02 -0.67769808394E+02  0.81904460245E+02  0.11077877594E+03  0.00000000000E+00 0.  1.
         22    1    1    2    0    0 -0.26071307635E+03  0.68701945267E+03  0.59015351823E+03  0.94246920990E+03  0.00000000000E+00 0. -1.
<mgrwt>
<rscale>  0 0.15318930E+04</rscale>
<asrwt>0</asrwt>
<pdfrwt beam="1">  1        1 0.32469255E+00 0.15318930E+04</pdfrwt>
<pdfrwt beam="2">  1       -1 0.42765922E-01 0.15318930E+04</pdfrwt>
<totfact> 0.13035000E+01</totfact>
</mgrwt>
</event>
<event>
 6    1  0.2238133E-007  0.2851597E+04  0.7818608E-02  0.8287426E-01
         -1   -1    0    0    0  501 -0.00000000000E+00  0.00000000000E+00  0.11911696141E+04  0.11911696141E+04  0.00000000000E+00 0.  1.
          1   -1    0    0  501    0  0.00000000000E+00 -0.00000000000E+00 -0.17066434945E+04  0.17066434945E+04  0.00000000000E+00 0. -1.
         23    2    1    2    0    0 -0.85693021466E+03  0.97798783112E+03 -0.84958889298E+03  0.15552698384E+04  0.79204750074E+02 0.  0.
         11    1    3    3    0    0 -0.75684262664E+03  0.89925834441E+03 -0.76472622264E+03  0.14022419645E+04  0.00000000000E+00 0.  1.
        -11    1    3    3    0    0 -0.10008758803E+03  0.78729486710E+02 -0.84862670337E+02  0.15302787384E+03  0.00000000000E+00 0. -1.
         22    1    1    2    0    0  0.85693021466E+03 -0.97798783112E+03  0.33411501258E+03  0.13425432702E+04  0.00000000000E+00 0.  1.
<mgrwt>
<rscale>  0 0.28515974E+04</rscale>
<asrwt>0</asrwt>
<pdfrwt beam="1">  1        1 0.26256054E+00 0.28515974E+04</pdfrwt>
<pdfrwt beam="2">  1       -1 0.18325686E+00 0.28515974E+04</pdfrwt>
<totfact> 0.80180831E-01</totfact>
</mgrwt>
</event>
<event>
 6    1  0.2238133E-007  0.1327629E+04  0.7818608E-02  0.9007937E-01
         -2   -1    0    0    0  501 -0.00000000000E+00  0.00000000000E+00  0.34090917469E+03  0.34090917469E+03  0.00000000000E+00 0.  1.
          2   -1    0    0  501    0  0.00000000000E+00 -0.00000000000E+00 -0.12925725003E+04  0.12925725003E+04  0.00000000000E+00 0. -1.
         23    2    1    2    0    0 -0.40232251979E+03  0.98238164126E+02 -0.11115780639E+04  0.11895370046E+04  0.88760048286E+02 0.  0.
         11    1    3    3    0    0 -0.33705954763E+03  0.11176744963E+03 -0.97270400260E+03  0.10354970681E+04  0.00000000000E+00 0. -1.
        -11    1    3    3    0    0 -0.65262972160E+02 -0.13529285503E+02 -0.13887406135E+03  0.15403993643E+03  0.00000000000E+00 0.  1.
         22    1    1    2    0    0  0.40232251979E+03 -0.98238164126E+02  0.15991473836E+03  0.44394467039E+03  0.00000000000E+00 0.  1.
<mgrwt>
<rscale>  0 0.13276292E+04</rscale>
<asrwt>0</asrwt>
<pdfrwt beam="1">  1        2 0.19885731E+00 0.13276292E+04</pdfrwt>
<pdfrwt beam="2">  1       -2 0.52447565E-01 0.13276292E+04</pdfrwt>
<totfact> 0.56029182E+01</totfact>
</mgrwt>
</event>
<event>
 6    1  0.2238133E-007  0.2261483E+04  0.7818608E-02  0.8493265E-01
         -2   -1    0    0    0  501 -0.00000000000E+00  0.00000000000E+00  0.10505611491E+04  0.10505611491E+04  0.00000000000E+00 0.  1.
          2   -1    0    0  501    0  0.00000000000E+00 -0.00000000000E+00 -0.12170411202E+04  0.12170411202E+04  0.00000000000E+00 0. -1.
         23    2    1    2    0    0 -0.17366223128E+03 -0.11123604623E+04 -0.16779734520E+03  0.11417665335E+04  0.89277652855E+02 0.  0.
         11    1    3    3    0    0 -0.29044651953E+02 -0.39200842975E+03 -0.29954747090E+02  0.39422263720E+03  0.00000000000E+00 0.  1.
        -11    1    3    3    0    0 -0.14461757933E+03 -0.72035203254E+03 -0.13784259811E+03  0.74754389629E+03  0.00000000000E+00 0. -1.
         22    1    1    2    0    0  0.17366223128E+03  0.11123604623E+04  0.13173741386E+01  0.11258357359E+04  0.00000000000E+00 0. -1.
<mgrwt>
<rscale>  0 0.22614828E+04</rscale>
<asrwt>0</asrwt>
<pdfrwt beam="1">  1        2 0.18723710E+00 0.22614828E+04</pdfrwt>
<pdfrwt beam="2">  1       -2 0.16162479E+00 0.22614828E+04</pdfrwt>
<totfact> 0.41235082E+00</totfact>
</mgrwt>
</event>
<event>
 6    1  0.2238133E-007  0.3141646E+04  0.7818608E-02  0.8204401E-01
         -2   -1    0    0    0  501 -0.00000000000E+00  0.00000000000E+00  0.10250915342E+04  0.10250915342E+04  0.00000000000E+00 0.  1.
          2   -1    0    0  501    0  0.00000000000E+00 -0.00000000000E+00 -0.24070877794E+04  0.24070877794E+04  0.00000000000E+00 0. -1.
         23    2    1    2    0    0  0.14562082278E+04 -0.56258312573E+03 -0.51352556881E+03  0.16457629311E+04  0.88232304944E+02 0.  0.
         11    1    3    3    0    0  0.40400991003E+03 -0.11419950182E+03 -0.13667217915E+03  0.44152555778E+03  0.00000000000E+00 0.  1.
        -11    1    3    3    0    0  0.10521983177E+04 -0.44838362391E+03 -0.37685338966E+03  0.12042373733E+04  0.00000000000E+00 0. -1.
         22    1    1    2    0    0 -0.14562082278E+04  0.56258312573E+03 -0.86847067640E+03  0.17864163825E+04  0.00000000000E+00 0.  1.
<mgrwt>
<rscale>  0 0.31416463E+04</rscale>
<asrwt>0</asrwt>
<pdfrwt beam="1">  1        2 0.37032119E+00 0.31416463E+04</pdfrwt>
<pdfrwt beam="2">  1       -2 0.15770639E+00 0.31416463E+04</pdfrwt>
<totfact> 0.87289255E-01</totfact>
</mgrwt>
</event>
<event>
 6    1  0.2238133E-007  0.2785687E+04  0.7818608E-02  0.8307726E-01
          2   -1    0    0  501    0  0.00000000000E+00  0.00000000000E+00  0.18056282700E+04  0.18056282700E+04  0.00000000000E+00 0. -1.
         -2   -1    0    0    0  501 -0.00000000000E+00 -0.00000000000E+00 -0.10744253284E+04  0.10744253284E+04  0.00000000000E+00 0.  1.
         23    2    1    2    0    0  0.34506268014E+03 -0.56790575847E+03  0.16298270493E+04  0.17624174811E+04  0.90520514610E+02 0.  0.
         13    1    3    3    0    0  0.29545509817E+02 -0.16564168912E+02  0.11233686562E+03  0.11733234941E+03  0.00000000000E+00 0. -1.
        -13    1    3    3    0    0  0.31551717033E+03 -0.55134158956E+03  0.15174901836E+04  0.16450851317E+04  0.00000000000E+00 0.  1.
         22    1    1    2    0    0 -0.34506268014E+03  0.56790575847E+03 -0.89862410765E+03  0.11176361172E+04  0.00000000000E+00 0.  1.
<mgrwt>
<rscale>  0 0.27856868E+04</rscale>
<asrwt>0</asrwt>
<pdfrwt beam="1">  1        2 0.27778896E+00 0.27856868E+04</pdfrwt>
<pdfrwt beam="2">  1       -2 0.16529621E+00 0.27856868E+04</pdfrwt>
<totfact> 0.17196100E+00</totfact>
</mgrwt>
</event>
<event>
 6    1  0.2238133E-007  0.2693052E+04  0.7818608E-02  0.8337263E-01
          2   -1    0    0  501    0  0.00000000000E+00  0.00000000000E+00  0.25870135125E+04  0.25870135125E+04  0.00000000000E+00 0. -1.
         -2   -1    0    0    0  501 -0.00000000000E+00 -0.00000000000E+00 -0.70085922964E+03  0.70085922964E+03  0.00000000000E+00 0.  1.
         23    2    1    2    0    0  0.39603238166E+03  0.28162362544E+03  0.24752703174E+04  0.25241900750E+04  0.91754438037E+02 0.  0.
         13    1    3    3    0    0  0.37574663441E+03  0.28647201781E+03  0.24008313465E+04  0.24468843260E+04  0.00000000000E+00 0. -1.
        -13    1    3    3    0    0  0.20285747252E+02 -0.48483923685E+01  0.74438970872E+02  0.77305749040E+02  0.00000000000E+00 0.  1.
         22    1    1    2    0    0 -0.39603238166E+03 -0.28162362544E+03 -0.58911603460E+03  0.76368266705E+03  0.00000000000E+00 0.  1.
<mgrwt>
<rscale>  0 0.26930520E+04</rscale>
<asrwt>0</asrwt>
<pdfrwt beam="1">  1        2 0.39800207E+00 0.26930520E+04</pdfrwt>
<pdfrwt beam="2">  1       -2 0.10782450E+00 0.26930520E+04</pdfrwt>
<totfact> 0.18741330E+00</totfact>
</mgrwt>
</event>
<event>
 6    1  0.2238133E-007  0.1552532E+04  0.7818608E-02  0.8850252E-01
         -2   -1    0    0    0  501 -0.00000000000E+00  0.00000000000E+00  0.27198019867E+03  0.27198019867E+03  0.00000000000E+00 0.  1.
          2   -1    0    0  501    0  0.00000000000E+00 -0.00000000000E+00 -0.22155617728E+04  0.22155617728E+04  0.00000000000E+00 0. -1.
         23    2    1    2    0    0 -0.11259284502E+03 -0.40184822722E+01 -0.22013762135E+04  0.22062034334E+04  0.92644801169E+02 0.  0.
         13    1    3    3    0    0 -0.37577103649E+02  0.17379729512E+02 -0.14878069596E+04  0.14883828952E+04  0.00000000000E+00 0. -1.
        -13    1    3    3    0    0 -0.75015741376E+02 -0.21398211784E+02 -0.71356925390E+03  0.71782053818E+03  0.00000000000E+00 0.  1.
         22    1    1    2    0    0  0.11259284502E+03  0.40184822722E+01  0.25779463934E+03  0.28133853810E+03  0.00000000000E+00 0.  1.
<mgrwt>
<rscale>  0 0.15525320E+04</rscale>
<asrwt>0</asrwt>
<pdfrwt beam="1">  1        2 0.34085565E+00 0.15525320E+04</pdfrwt>
<pdfrwt beam="2">  1       -2 0.41843108E-01 0.15525320E+04</pdfrwt>
<totfact> 0.26385450E+01</totfact>
</mgrwt>
</event>
<event>
 6    1  0.2238133E-007  0.6196583E+04  0.7818608E-02  0.7666494E-01
         -2   -1    0    0    0  501 -0.00000000000E+00  0.00000000000E+00  0.23617721502E+04  0.23617721502E+04  0.00000000000E+00 0.  1.
          2   -1    0    0  501    0  0.00000000000E+00 -0.00000000000E+00 -0.40644952715E+04  0.40644952715E+04  0.00000000000E+00 0. -1.
         23    2    1    2    0    0 -0.15057748435E+04  0.63693489593E+03 -0.35801176579E+04  0.39367585973E+04  0.88214894562E+02 0.  0.
         11    1    3    3    0    0 -0.10597449323E+04  0.47676272505E+03 -0.24691264079E+04  0.27289095323E+04  0.00000000000E+00 0. -1.
        -11    1    3    3    0    0 -0.44602991121E+03  0.16017217088E+03 -0.11109912500E+04  0.12078490649E+04  0.00000000000E+00 0.  1.
         22    1    1    2    0    0  0.15057748435E+04 -0.63693489593E+03  0.18773945366E+04  0.24895088244E+04  0.00000000000E+00 0.  1.
<mgrwt>
<rscale>  0 0.61965835E+04</rscale>
<asrwt>0</asrwt>
<pdfrwt beam="1">  1        2 0.62530696E+00 0.61965835E+04</pdfrwt>
<pdfrwt beam="2">  1       -2 0.36334956E+00 0.61965835E+04</pdfrwt>
<totfact> 0.25565112E-03</totfact>
</mgrwt>
</event>
<event>
 6    1  0.2238133E-007  0.3527189E+04  0.7818608E-02  0.8107377E-01
         -2   -1    0    0    0  501 -0.00000000000E+00  0.00000000000E+00  0.22995781554E+04  0.22995781554E+04  0.00000000000E+00 0.  1.
          2   -1    0    0  501    0  0.00000000000E+00 -0.00000000000E+00 -0.13525373361E+04  0.13525373361E+04  0.00000000000E+00 0. -1.
         23    2    1    2    0    0  0.69632211397E+03 -0.66761352029E+03 -0.10529009628E+04  0.14316787258E+04  0.10262181883E+03 0.  0.
         13    1    3    3    0    0  0.53634692045E+03 -0.45546861249E+03 -0.73872223335E+03  0.10202108675E+04  0.00000000000E+00 0.  1.
        -13    1    3    3    0    0  0.15997519352E+03 -0.21214490780E+03 -0.31417872941E+03  0.41146785835E+03  0.00000000000E+00 0. -1.
         22    1    1    2    0    0 -0.69632211397E+03  0.66761352029E+03  0.19999417821E+04  0.22204367657E+04  0.00000000000E+00 0.  1.
<mgrwt>
<rscale>  0 0.35271889E+04</rscale>
<asrwt>0</asrwt>
<pdfrwt beam="1">  1        2 0.20808267E+00 0.35271889E+04</pdfrwt>
<pdfrwt beam="2">  1       -2 0.35378125E+00 0.35271889E+04</pdfrwt>
<totfact> 0.18596471E-01</totfact>
</mgrwt>
</event>
<event>
 6    1  0.2238133E-007  0.2185968E+04  0.7818608E-02  0.8524291E-01
         -2   -1    0    0    0  501 -0.00000000000E+00  0.00000000000E+00  0.30528745086E+03  0.30528745086E+03  0.00000000000E+00 0.  1.
          2   -1    0    0  501    0  0.00000000000E+00 -0.00000000000E+00 -0.39130790094E+04  0.39130790094E+04  0.00000000000E+00 0. -1.
         23    2    1    2    0    0  0.13340988727E+03 -0.59643274798E+03 -0.35512786835E+04  0.36045880590E+04  0.89132294446E+02 0.  0.
         11    1    3    3    0    0  0.14271527471E+03 -0.51149891656E+03 -0.31306843662E+04  0.31754028708E+04  0.00000000000E+00 0. -1.
        -11    1    3    3    0    0 -0.93053874406E+01 -0.84933831417E+02 -0.42059431732E+03  0.42918518813E+03  0.00000000000E+00 0.  1.
         22    1    1    2    0    0 -0.13340988727E+03  0.59643274798E+03 -0.56512875051E+02  0.61377840132E+03  0.00000000000E+00 0.  1.
<mgrwt>
<rscale>  0 0.21859679E+04</rscale>
<asrwt>0</asrwt>
<pdfrwt beam="1">  1        2 0.60201211E+00 0.21859679E+04</pdfrwt>
<pdfrwt beam="2">  1       -2 0.46967304E-01 0.21859679E+04</pdfrwt>
<totfact> 0.15891227E+00</totfact>
</mgrwt>
</event>
<event>
 6    1  0.2238133E-007  0.2474698E+04  0.7818608E-02  0.8412055E-01
          2   -1    0    0  501    0  0.00000000000E+00  0.00000000000E+00  0.20445452762E+04  0.20445452762E+04  0.00000000000E+00 0. -1.
         -2   -1    0    0    0  501 -0.00000000000E+00 -0.00000000000E+00 -0.74883791377E+03  0.74883791377E+03  0.00000000000E+00 0.  1.
         23    2    1    2    0    0 -0.38784401695E+03 -0.10747585193E+04  0.11797545766E+04  0.16449172981E+04  0.91668970308E+02 0.  0.
         11    1    3    3    0    0 -0.10225155180E+03 -0.37974053817E+03  0.44703623009E+03  0.59539872958E+03  0.00000000000E+00 0.  1.
        -11    1    3    3    0    0 -0.28559246515E+03 -0.69501798113E+03  0.73271834656E+03  0.10495185685E+04  0.00000000000E+00 0. -1.
         22    1    1    2    0    0  0.38784401695E+03  0.10747585193E+04  0.11595278578E+03  0.11484658919E+04  0.00000000000E+00 0.  1.
<mgrwt>
<rscale>  0 0.24746984E+04</rscale>
<asrwt>0</asrwt>
<pdfrwt beam="1">  1        2 0.31454542E+00 0.24746984E+04</pdfrwt>
<pdfrwt beam="2">  1       -2 0.11520583E+00 0.24746984E+04</pdfrwt>
<totfact> 0.33107652E+00</totfact>
</mgrwt>
</event>
<event>
 6    1  0.2238133E-007  0.4404021E+04  0.7818608E-02  0.7927659E-01
         -2   -1    0    0    0  501 -0.00000000000E+00  0.00000000000E+00  0.14077183901E+04  0.14077183901E+04  0.00000000000E+00 0.  1.
          2   -1    0    0  501    0  0.00000000000E+00 -0.00000000000E+00 -0.34444749966E+04  0.34444749966E+04  0.00000000000E+00 0. -1.
         23    2    1    2    0    0 -0.11150198687E+04  0.14519225329E+04 -0.23651649803E+04  0.29923008068E+04  0.92251750102E+02 0.  0.
         11    1    3    3    0    0 -0.64925827694E+03  0.77422439494E+03 -0.13283656761E+04  0.16689862472E+04  0.00000000000E+00 0. -1.
        -11    1    3    3    0    0 -0.46576159175E+03  0.67769813791E+03 -0.10367993041E+04  0.13233145596E+04  0.00000000000E+00 0.  1.
         22    1    1    2    0    0  0.11150198687E+04 -0.14519225329E+04  0.32840837382E+03  0.18598925800E+04  0.00000000000E+00 0.  1.
<mgrwt>
<rscale>  0 0.44040213E+04</rscale>
<asrwt>0</asrwt>
<pdfrwt beam="1">  1        2 0.52991923E+00 0.44040213E+04</pdfrwt>
<pdfrwt beam="2">  1       -2 0.21657206E+00 0.44040213E+04</pdfrwt>
<totfact> 0.70395241E-02</totfact>
</mgrwt>
</event>
<event>
 6    1  0.2238133E-007  0.3392438E+04  0.7818608E-02  0.8139765E-01
          2   -1    0    0  501    0  0.00000000000E+00  0.00000000000E+00  0.16755013162E+04  0.16755013162E+04  0.00000000000E+00 0. -1.
         -2   -1    0    0    0  501 -0.00000000000E+00 -0.00000000000E+00 -0.17171925584E+04  0.17171925584E+04  0.00000000000E+00 0.  1.
         23    2    1    2    0    0  0.14968033724E+04 -0.59861608024E+02  0.77239038434E+03  0.16877796121E+04  0.89495057229E+02 0.  0.
         13    1    3    3    0    0  0.73750486082E+03 -0.84472825326E+01  0.42457504887E+03  0.85102805385E+03  0.00000000000E+00 0.  1.
        -13    1    3    3    0    0  0.75929851160E+03 -0.51414325492E+02  0.34781533547E+03  0.83675155821E+03  0.00000000000E+00 0. -1.
         22    1    1    2    0    0 -0.14968033724E+04  0.59861608024E+02 -0.81408162651E+03  0.17049142625E+04  0.00000000000E+00 0.  1.
<mgrwt>
<rscale>  0 0.33924377E+04</rscale>
<asrwt>0</asrwt>
<pdfrwt beam="1">  1        2 0.25776943E+00 0.33924377E+04</pdfrwt>
<pdfrwt beam="2">  1       -2 0.26418347E+00 0.33924377E+04</pdfrwt>
<totfact> 0.44127232E-01</totfact>
</mgrwt>
</event>
<event>
 6    1  0.2238133E-007  0.3373087E+04  0.7818608E-02  0.8144543E-01
         -1   -1    0    0    0  501 -0.00000000000E+00  0.00000000000E+00  0.15660766810E+04  0.15660766810E+04  0.00000000000E+00 0.  1.
          1   -1    0    0  501    0  0.00000000000E+00 -0.00000000000E+00 -0.18162774754E+04  0.18162774754E+04  0.00000000000E+00 0. -1.
         23    2    1    2    0    0  0.79088738739E+03  0.10786722274E+04  0.90292851406E+03  0.16163576004E+04  0.91078850789E+02 0.  0.
         11    1    3    3    0    0  0.44252412685E+03  0.53615625846E+03  0.44195031691E+03  0.82377862254E+03  0.00000000000E+00 0. -1.
        -11    1    3    3    0    0  0.34836326054E+03  0.54251596899E+03  0.46097819716E+03  0.79257897787E+03  0.00000000000E+00 0.  1.
         22    1    1    2    0    0 -0.79088738739E+03 -0.10786722274E+04 -0.11531293085E+04  0.17659965560E+04  0.00000000000E+00 0.  1.
<mgrwt>
<rscale>  0 0.33730875E+04</rscale>
<asrwt>0</asrwt>
<pdfrwt beam="1">  1        1 0.27942730E+00 0.33730875E+04</pdfrwt>
<pdfrwt beam="2">  1       -1 0.24093487E+00 0.33730875E+04</pdfrwt>
<totfact> 0.26178027E-01</totfact>
</mgrwt>
</event>
<event>
 6    1  0.2238133E-007  0.3046024E+04  0.7818608E-02  0.8230709E-01
          2   -1    0    0  501    0  0.00000000000E+00  0.00000000000E+00  0.86110034389E+03  0.86110034389E+03  0.00000000000E+00 0. -1.
         -2   -1    0    0    0  501 -0.00000000000E+00 -0.00000000000E+00 -0.26937220020E+04  0.26937220020E+04  0.00000000000E+00 0.  1.
         23    2    1    2    0    0  0.10331734791E+04  0.10543619995E+03  0.38080435408E+03  0.11098644850E+04  0.90680696395E+02 0.  0.
         11    1    3    3    0    0  0.76136018501E+03  0.97867240815E+02  0.31736851292E+03  0.83064438910E+03  0.00000000000E+00 0. -1.
        -11    1    3    3    0    0  0.27181329411E+03  0.75689591358E+01  0.63435841160E+02  0.27922009588E+03  0.00000000000E+00 0.  1.
         22    1    1    2    0    0 -0.10331734791E+04 -0.10543619995E+03 -0.22134260122E+04  0.24449578609E+04  0.00000000000E+00 0.  1.
<mgrwt>
<rscale>  0 0.30460236E+04</rscale>
<asrwt>0</asrwt>
<pdfrwt beam="1">  1        2 0.13247697E+00 0.30460236E+04</pdfrwt>
<pdfrwt beam="2">  1       -2 0.41441878E+00 0.30460236E+04</pdfrwt>
<totfact> 0.15854142E-01</totfact>
</mgrwt>
</event>
<event>
 6    1  0.2238133E-007  0.5071407E+04  0.7818608E-02  0.7817585E-01
          2   -1    0    0  501    0  0.00000000000E+00  0.00000000000E+00  0.30445702458E+04  0.30445702458E+04  0.00000000000E+00 0. -1.
         -2   -1    0    0    0  501 -0.00000000000E+00 -0.00000000000E+00 -0.21118886824E+04  0.21118886824E+04  0.00000000000E+00 0.  1.
         23    2    1    2    0    0 -0.14418337346E+04  0.17225161186E+04  0.16607839248E+04  0.27950865845E+04  0.91430151527E+02 0.  0.
         13    1    3    3    0    0 -0.14326648905E+03  0.14565027541E+03  0.12610300335E+03  0.24008593684E+03  0.00000000000E+00 0.  1.
        -13    1    3    3    0    0 -0.12985672456E+04  0.15768658432E+04  0.15346809215E+04  0.25550006476E+04  0.00000000000E+00 0. -1.
         22    1    1    2    0    0  0.14418337346E+04 -0.17225161186E+04 -0.72810236133E+03  0.23613723437E+04  0.00000000000E+00 0.  1.
<mgrwt>
<rscale>  0 0.50714075E+04</rscale>
<asrwt>0</asrwt>
<pdfrwt beam="1">  1        2 0.46839542E+00 0.50714075E+04</pdfrwt>
<pdfrwt beam="2">  1       -2 0.32490595E+00 0.50714075E+04</pdfrwt>
<totfact> 0.26365100E-02</totfact>
</mgrwt>
</event>
<event>
 6    1  0.2238133E-007  0.4414836E+04  0.7818608E-02  0.7925718E-01
          2   -1    0    0  501    0  0.00000000000E+00  0.00000000000E+00  0.33825853376E+04  0.33825853376E+04  0.00000000000E+00 0. -1.
         -2   -1    0    0    0  501 -0.00000000000E+00 -0.00000000000E+00 -0.14405239289E+04  0.14405239289E+04  0.00000000000E+00 0.  1.
         23    2    1    2    0    0 -0.11578686869E+04 -0.87834415133E+03  0.27847680076E+04  0.31431382084E+04  0.11061915104E+03 0.  0.
         11    1    3    3    0    0 -0.89292298422E+03 -0.73121812936E+03  0.22332813252E+04  0.25138689079E+04  0.00000000000E+00 0. -1.
        -11    1    3    3    0    0 -0.26494570268E+03 -0.14712602197E+03  0.55148668236E+03  0.62926930048E+03  0.00000000000E+00 0.  1.
         22    1    1    2    0    0  0.11578686869E+04  0.87834415133E+03 -0.84270659886E+03  0.16799710581E+04  0.00000000000E+00 0.  1.
<mgrwt>
<rscale>  0 0.44148364E+04</rscale>
<asrwt>0</asrwt>
<pdfrwt beam="1">  1        2 0.52039774E+00 0.44148364E+04</pdfrwt>
<pdfrwt beam="2">  1       -2 0.22161907E+00 0.44148364E+04</pdfrwt>
<totfact> 0.72052544E-02</totfact>
</mgrwt>
</event>
<event>
 6    1  0.2238133E-007  0.2446431E+04  0.7818608E-02  0.8422322E-01
          2   -1    0    0  501    0  0.00000000000E+00  0.00000000000E+00  0.14831385019E+04  0.14831385019E+04  0.00000000000E+00 0. -1.
         -2   -1    0    0    0  501 -0.00000000000E+00 -0.00000000000E+00 -0.10088446776E+04  0.10088446776E+04  0.00000000000E+00 0.  1.
         23    2    1    2    0    0 -0.65003963280E+02 -0.75905523276E+03  0.12101503029E+04  0.14327971153E+04  0.89741051050E+02 0.  0.
         13    1    3    3    0    0 -0.17068349814E+02 -0.23267957134E+03  0.45094918344E+03  0.50772657753E+03  0.00000000000E+00 0. -1.
        -13    1    3    3    0    0 -0.47935613466E+02 -0.52637566142E+03  0.75920111947E+03  0.92507053773E+03  0.00000000000E+00 0.  1.
         22    1    1    2    0    0  0.65003963280E+02  0.75905523276E+03 -0.73585647865E+03  0.10591860643E+04  0.00000000000E+00 0.  1.
<mgrwt>
<rscale>  0 0.24464312E+04</rscale>
<asrwt>0</asrwt>
<pdfrwt beam="1">  1        2 0.22817515E+00 0.24464312E+04</pdfrwt>
<pdfrwt beam="2">  1       -2 0.15520687E+00 0.24464312E+04</pdfrwt>
<totfact> 0.31801275E+00</totfact>
</mgrwt>
</event>
<event>
 6    1  0.2238133E-007  0.1387674E+04  0.7818608E-02  0.8962789E-01
          2   -1    0    0  501    0  0.00000000000E+00  0.00000000000E+00  0.94429404452E+03  0.94429404452E+03  0.00000000000E+00 0. -1.
         -2   -1    0    0    0  501 -0.00000000000E+00 -0.00000000000E+00 -0.50980947501E+03  0.50980947501E+03  0.00000000000E+00 0.  1.
         23    2    1    2    0    0  0.56085749105E+01 -0.60355789442E+03  0.57057638152E+03  0.83536725153E+03  0.89260572206E+02 0.  0.
         11    1    3    3    0    0  0.33717441963E+02 -0.46447192784E+03  0.40367964228E+03  0.61630211036E+03  0.00000000000E+00 0.  1.
        -11    1    3    3    0    0 -0.28108867052E+02 -0.13908596659E+03  0.16689673924E+03  0.21906514118E+03  0.00000000000E+00 0. -1.
         22    1    1    2    0    0 -0.56085749105E+01  0.60355789442E+03 -0.13609181201E+03  0.61873626799E+03  0.00000000000E+00 0.  1.
<mgrwt>
<rscale>  0 0.13876744E+04</rscale>
<asrwt>0</asrwt>
<pdfrwt beam="1">  1        2 0.14527601E+00 0.13876744E+04</pdfrwt>
<pdfrwt beam="2">  1       -2 0.78432227E-01 0.13876744E+04</pdfrwt>
<totfact> 0.38566518E+01</totfact>
</mgrwt>
</event>
<event>
 6    1  0.2238133E-007  0.2328312E+04  0.7818608E-02  0.8466841E-01
          1   -1    0    0  501    0  0.00000000000E+00  0.00000000000E+00  0.11419769973E+04  0.11419769973E+04  0.00000000000E+00 0. -1.
         -1   -1    0    0    0  501 -0.00000000000E+00 -0.00000000000E+00 -0.11867657277E+04  0.11867657277E+04  0.00000000000E+00 0.  1.
         23    2    1    2    0    0  0.88701112244E+03  0.32645132104E+03 -0.69915517212E+03  0.11791538262E+04  0.90700577478E+02 0.  0.
         13    1    3    3    0    0  0.54441664449E+03  0.19762919803E+03 -0.48248670419E+03  0.75381708818E+03  0.00000000000E+00 0.  1.
        -13    1    3    3    0    0  0.34259447795E+03  0.12882212301E+03 -0.21666846793E+03  0.42533673800E+03  0.00000000000E+00 0. -1.
         22    1    1    2    0    0 -0.88701112244E+03 -0.32645132104E+03  0.65436644169E+03  0.11495888988E+04  0.00000000000E+00 0. -1.
<mgrwt>
<rscale>  0 0.23283120E+04</rscale>
<asrwt>0</asrwt>
<pdfrwt beam="1">  1        1 0.17568877E+00 0.23283120E+04</pdfrwt>
<pdfrwt beam="2">  1       -1 0.18257934E+00 0.23283120E+04</pdfrwt>
<totfact> 0.21208364E+00</totfact>
</mgrwt>
</event>
<event>
 6    1  0.2238133E-007  0.8608307E+03  0.7818608E-02  0.9475915E-01
          2   -1    0    0  501    0  0.00000000000E+00  0.00000000000E+00  0.86689886184E+03  0.86689886184E+03  0.00000000000E+00 0. -1.
         -2   -1    0    0    0  501 -0.00000000000E+00 -0.00000000000E+00 -0.21370124688E+03  0.21370124688E+03  0.00000000000E+00 0.  1.
         23    2    1    2    0    0 -0.22514802356E+03  0.28519554141E+02 -0.12091791313E+03  0.27390323361E+03  0.94323073450E+02 0.  0.
         11    1    3    3    0    0 -0.10181342409E+03  0.59954190688E+02 -0.51064968505E+02  0.12871716791E+03  0.00000000000E+00 0.  1.
        -11    1    3    3    0    0 -0.12333459946E+03 -0.31434636546E+02 -0.69852944630E+02  0.14518606570E+03  0.00000000000E+00 0. -1.
         22    1    1    2    0    0  0.22514802356E+03 -0.28519554141E+02  0.77411552809E+03  0.80669687511E+03  0.00000000000E+00 0. -1.
<mgrwt>
<rscale>  0 0.86083069E+03</rscale>
<asrwt>0</asrwt>
<pdfrwt beam="1">  1        2 0.13336905E+00 0.86083069E+03</pdfrwt>
<pdfrwt beam="2">  1       -2 0.32877115E-01 0.86083069E+03</pdfrwt>
<totfact> 0.26738867E+02</totfact>
</mgrwt>
</event>
<event>
 6    1  0.2238133E-007  0.3069778E+04  0.7818608E-02  0.8224081E-01
         -2   -1    0    0    0  501 -0.00000000000E+00  0.00000000000E+00  0.12698229746E+04  0.12698229746E+04  0.00000000000E+00 0.  1.
          2   -1    0    0  501    0  0.00000000000E+00 -0.00000000000E+00 -0.18552856357E+04  0.18552856357E+04  0.00000000000E+00 0. -1.
         23    2    1    2    0    0 -0.10787962897E+04  0.94039119889E+03  0.26782258737E+03  0.14589055144E+04  0.92408441662E+02 0.  0.
         11    1    3    3    0    0 -0.58895227487E+03  0.46099949900E+03  0.16405512406E+03  0.76570190276E+03  0.00000000000E+00 0. -1.
        -11    1    3    3    0    0 -0.48984401484E+03  0.47939169989E+03  0.10376746331E+03  0.69320361167E+03  0.00000000000E+00 0.  1.
         22    1    1    2    0    0  0.10787962897E+04 -0.94039119889E+03 -0.85328524850E+03  0.16662030959E+04  0.00000000000E+00 0. -1.
<mgrwt>
<rscale>  0 0.30697781E+04</rscale>
<asrwt>0</asrwt>
<pdfrwt beam="1">  1        2 0.28542856E+00 0.30697781E+04</pdfrwt>
<pdfrwt beam="2">  1       -2 0.19535738E+00 0.30697781E+04</pdfrwt>
<totfact> 0.97686219E-01</totfact>
</mgrwt>
</event>
<event>
 6    1  0.2238133E-007  0.1827452E+04  0.7818608E-02  0.8691835E-01
          2   -1    0    0  501    0  0.00000000000E+00  0.00000000000E+00  0.22342437402E+04  0.22342437402E+04  0.00000000000E+00 0. -1.
         -2   -1    0    0    0  501 -0.00000000000E+00 -0.00000000000E+00 -0.37368154225E+03  0.37368154225E+03  0.00000000000E+00 0.  1.
         23    2    1    2    0    0  0.61752749817E+03 -0.26593833580E+03  0.18109203623E+04  0.19337385715E+04  0.88593989187E+02 0.  0.
         13    1    3    3    0    0  0.49351123165E+03 -0.21833790757E+03  0.13441764177E+04  0.14484595333E+04  0.00000000000E+00 0. -1.
        -13    1    3    3    0    0  0.12401626652E+03 -0.47600428231E+02  0.46674394457E+03  0.48527903821E+03  0.00000000000E+00 0.  1.
         22    1    1    2    0    0 -0.61752749817E+03  0.26593833580E+03  0.49641835716E+02  0.67418671100E+03  0.00000000000E+00 0.  1.
<mgrwt>
<rscale>  0 0.18274525E+04</rscale>
<asrwt>0</asrwt>
<pdfrwt beam="1">  1        2 0.34372980E+00 0.18274525E+04</pdfrwt>
<pdfrwt beam="2">  1       -2 0.57489469E-01 0.18274525E+04</pdfrwt>
<totfact> 0.13190863E+01</totfact>
</mgrwt>
</event>
<event>
 6    1  0.2238133E-007  0.3521074E+04  0.7818608E-02  0.8108814E-01
          2   -1    0    0  501    0  0.00000000000E+00  0.00000000000E+00  0.27708257123E+04  0.27708257123E+04  0.00000000000E+00 0. -1.
         -2   -1    0    0    0  501 -0.00000000000E+00 -0.00000000000E+00 -0.11186160547E+04  0.11186160547E+04  0.00000000000E+00 0.  1.
         23    2    1    2    0    0  0.10175507147E+04 -0.12976926160E+04  0.14942167811E+03  0.16583462303E+04  0.91486606124E+02 0.  0.
         11    1    3    3    0    0  0.60217478651E+03 -0.71070431762E+03  0.11288405718E+03  0.93832718759E+03  0.00000000000E+00 0. -1.
        -11    1    3    3    0    0  0.41537592823E+03 -0.58698829838E+03  0.36537620934E+02  0.72001904275E+03  0.00000000000E+00 0.  1.
         22    1    1    2    0    0 -0.10175507147E+04  0.12976926160E+04  0.15027879795E+04  0.22310955367E+04  0.00000000000E+00 0. -1.
<mgrwt>
<rscale>  0 0.35210738E+04</rscale>
<asrwt>0</asrwt>
<pdfrwt beam="1">  1        2 0.42628088E+00 0.35210738E+04</pdfrwt>
<pdfrwt beam="2">  1       -2 0.17209478E+00 0.35210738E+04</pdfrwt>
<totfact> 0.40671458E-01</totfact>
</mgrwt>
</event>
<event>
 6    1  0.2238133E-007  0.1427065E+04  0.7818608E-02  0.8934457E-01
         -2   -1    0    0    0  501 -0.00000000000E+00  0.00000000000E+00  0.16652581898E+03  0.16652581898E+03  0.00000000000E+00 0.  1.
          2   -1    0    0  501    0  0.00000000000E+00 -0.00000000000E+00 -0.30573571658E+04  0.30573571658E+04  0.00000000000E+00 0. -1.
         23    2    1    2    0    0 -0.45004692373E+03 -0.43524920760E+03 -0.69242661027E+03  0.93806420544E+03  0.92334915666E+02 0.  0.
         11    1    3    3    0    0 -0.26901178333E+03 -0.19995560357E+03 -0.34369691765E+03  0.48008036221E+03  0.00000000000E+00 0. -1.
        -11    1    3    3    0    0 -0.18103514040E+03 -0.23529360402E+03 -0.34872969262E+03  0.45798384324E+03  0.00000000000E+00 0.  1.
         22    1    1    2    0    0  0.45004692373E+03  0.43524920760E+03 -0.21984047366E+04  0.22858187794E+04  0.00000000000E+00 0.  1.
<mgrwt>
<rscale>  0 0.14270654E+04</rscale>
<asrwt>0</asrwt>
<pdfrwt beam="1">  1        2 0.47036262E+00 0.14270654E+04</pdfrwt>
<pdfrwt beam="2">  1       -2 0.25619358E-01 0.14270654E+04</pdfrwt>
<totfact> 0.21554159E+01</totfact>
</mgrwt>
</event>
<event>
 6    1  0.2238133E-007  0.2354632E+04  0.7818608E-02  0.8456686E-01
         -2   -1    0    0    0  501 -0.00000000000E+00  0.00000000000E+00  0.53438658276E+03  0.53438658276E+03  0.00000000000E+00 0.  1.
          2   -1    0    0  501    0  0.00000000000E+00 -0.00000000000E+00 -0.25937654580E+04  0.25937654580E+04  0.00000000000E+00 0. -1.
         23    2    1    2    0    0 -0.54043927384E+03 -0.13308974797E+03  0.34437596715E+03  0.66080025554E+03  0.90965274984E+02 0.  0.
         13    1    3    3    0    0 -0.39143567491E+03 -0.13574757979E+03  0.26694270674E+03  0.49285667459E+03  0.00000000000E+00 0.  1.
        -13    1    3    3    0    0 -0.14900359893E+03  0.26578318212E+01  0.77433260411E+02  0.16794358095E+03  0.00000000000E+00 0. -1.
         22    1    1    2    0    0  0.54043927384E+03  0.13308974797E+03 -0.24037548424E+04  0.24673517852E+04  0.00000000000E+00 0. -1.
<mgrwt>
<rscale>  0 0.23546324E+04</rscale>
<asrwt>0</asrwt>
<pdfrwt beam="1">  1        2 0.39904084E+00 0.23546324E+04</pdfrwt>
<pdfrwt beam="2">  1       -2 0.82213321E-01 0.23546324E+04</pdfrwt>
<totfact> 0.36001354E+00</totfact>
</mgrwt>
</event>
<event>
 6    1  0.2238133E-007  0.2270126E+04  0.7818608E-02  0.8489794E-01
          2   -1    0    0  501    0  0.00000000000E+00  0.00000000000E+00  0.37884719060E+04  0.37884719060E+04  0.00000000000E+00 0. -1.
         -2   -1    0    0    0  501 -0.00000000000E+00 -0.00000000000E+00 -0.34007577274E+03  0.34007577274E+03  0.00000000000E+00 0.  1.
         23    2    1    2    0    0  0.81017248596E+03 -0.70566589224E+03  0.10722609993E+04  0.15207973104E+04  0.93471922729E+02 0.  0.
         13    1    3    3    0    0  0.43452195638E+03 -0.42399178955E+03  0.64833620260E+03  0.88821067308E+03  0.00000000000E+00 0. -1.
        -13    1    3    3    0    0  0.37565052958E+03 -0.28167410270E+03  0.42392479670E+03  0.63258663735E+03  0.00000000000E+00 0.  1.
         22    1    1    2    0    0 -0.81017248596E+03  0.70566589224E+03  0.23761351340E+04  0.26077503683E+04  0.00000000000E+00 0. -1.
<mgrwt>
<rscale>  0 0.22701256E+04</rscale>
<asrwt>0</asrwt>
<pdfrwt beam="1">  1        2 0.58284180E+00 0.22701256E+04</pdfrwt>
<pdfrwt beam="2">  1       -2 0.52319352E-01 0.22701256E+04</pdfrwt>
<totfact> 0.15776657E+00</totfact>
</mgrwt>
</event>
<event>
 6    1  0.2238133E-007  0.1327003E+04  0.7818608E-02  0.9008421E-01
          2   -1    0    0  501    0  0.00000000000E+00  0.00000000000E+00  0.28141434964E+04  0.28141434964E+04  0.00000000000E+00 0. -1.
         -2   -1    0    0    0  501 -0.00000000000E+00 -0.00000000000E+00 -0.15643640144E+03  0.15643640144E+03  0.00000000000E+00 0.  1.
         23    2    1    2    0    0  0.35276697866E+02 -0.17536208247E+03  0.27581316822E+04  0.27654423754E+04  0.91568827670E+02 0.  0.
         11    1    3    3    0    0  0.10985032311E+02 -0.10277382215E+03  0.93327323747E+03  0.93897926773E+03  0.00000000000E+00 0. -1.
        -11    1    3    3    0    0  0.24291665555E+02 -0.72588260319E+02  0.18248584447E+04  0.18264631077E+04  0.00000000000E+00 0.  1.
         22    1    1    2    0    0 -0.35276697866E+02  0.17536208247E+03 -0.10042458722E+03  0.20513752240E+03  0.00000000000E+00 0.  1.
<mgrwt>
<rscale>  0 0.13270034E+04</rscale>
<asrwt>0</asrwt>
<pdfrwt beam="1">  1        2 0.43294512E+00 0.13270034E+04</pdfrwt>
<pdfrwt beam="2">  1       -2 0.24067141E-01 0.13270034E+04</pdfrwt>
<totfact> 0.34366881E+01</totfact>
</mgrwt>
</event>
<event>
 6    1  0.2238133E-007  0.2455424E+04  0.7818608E-02  0.8419040E-01
          2   -1    0    0  501    0  0.00000000000E+00  0.00000000000E+00  0.16977278527E+04  0.16977278527E+04  0.00000000000E+00 0. -1.
         -2   -1    0    0    0  501 -0.00000000000E+00 -0.00000000000E+00 -0.88782026303E+03  0.88782026303E+03  0.00000000000E+00 0.  1.
         23    2    1    2    0    0  0.43822548777E+03 -0.59782988237E+03  0.14337701843E+04  0.16167103153E+04  0.92807088517E+02 0.  0.
         11    1    3    3    0    0  0.43090011424E+02 -0.57185155233E+02  0.87269666313E+02  0.11288439096E+03  0.00000000000E+00 0. -1.
        -11    1    3    3    0    0  0.39513547635E+03 -0.54064472714E+03  0.13465005180E+04  0.15038259243E+04  0.00000000000E+00 0.  1.
         22    1    1    2    0    0 -0.43822548777E+03  0.59782988237E+03 -0.62386259472E+03  0.96883780040E+03  0.00000000000E+00 0.  1.
<mgrwt>
<rscale>  0 0.24554244E+04</rscale>
<asrwt>0</asrwt>
<pdfrwt beam="1">  1        2 0.26118890E+00 0.24554244E+04</pdfrwt>
<pdfrwt beam="2">  1       -2 0.13658773E+00 0.24554244E+04</pdfrwt>
<totfact> 0.33714198E+00</totfact>
</mgrwt>
</event>
<event>
 6    1  0.2238133E-007  0.1273219E+04  0.7818608E-02  0.9051077E-01
          2   -1    0    0  501    0  0.00000000000E+00  0.00000000000E+00  0.98867337925E+03  0.98867337925E+03  0.00000000000E+00 0. -1.
         -2   -1    0    0    0  501 -0.00000000000E+00 -0.00000000000E+00 -0.40991432120E+03  0.40991432120E+03  0.00000000000E+00 0.  1.
         23    2    1    2    0    0 -0.45008176876E+03 -0.40675156539E+03  0.91092952498E+02  0.62023131356E+03  0.91479625091E+02 0.  0.
         11    1    3    3    0    0 -0.11702246933E+03 -0.16285078212E+03  0.23256021512E+02  0.20187986056E+03  0.00000000000E+00 0. -1.
        -11    1    3    3    0    0 -0.33305929943E+03 -0.24390078327E+03  0.67836930986E+02  0.41835145300E+03  0.00000000000E+00 0.  1.
         22    1    1    2    0    0  0.45008176876E+03  0.40675156539E+03  0.48766610555E+03  0.77835638689E+03  0.00000000000E+00 0. -1.
<mgrwt>
<rscale>  0 0.12732186E+04</rscale>
<asrwt>0</asrwt>
<pdfrwt beam="1">  1        2 0.15210360E+00 0.12732186E+04</pdfrwt>
<pdfrwt beam="2">  1       -2 0.63063742E-01 0.12732186E+04</pdfrwt>
<totfact> 0.58607047E+01</totfact>
</mgrwt>
</event>
<event>
 6    1  0.2238133E-007  0.3525381E+04  0.7818608E-02  0.8107801E-01
         -2   -1    0    0    0  501 -0.00000000000E+00  0.00000000000E+00  0.15611625659E+04  0.15611625659E+04  0.00000000000E+00 0.  1.
          2   -1    0    0  501    0  0.00000000000E+00 -0.00000000000E+00 -0.19902327870E+04  0.19902327870E+04  0.00000000000E+00 0. -1.
         23    2    1    2    0    0  0.96756875802E+03  0.16968547623E+03  0.12582695494E+04  0.15989358876E+04  0.91494542782E+02 0.  0.
         13    1    3    3    0    0  0.14950147825E+03  0.22317714642E+02  0.14395443140E+03  0.20873823489E+03  0.00000000000E+00 0.  1.
        -13    1    3    3    0    0  0.81806727977E+03  0.14736776159E+03  0.11143151180E+04  0.13901976527E+04  0.00000000000E+00 0. -1.
         22    1    1    2    0    0 -0.96756875802E+03 -0.16968547623E+03 -0.16873397706E+04  0.19524594653E+04  0.00000000000E+00 0. -1.
<mgrwt>
<rscale>  0 0.35253805E+04</rscale>
<asrwt>0</asrwt>
<pdfrwt beam="1">  1        2 0.30618966E+00 0.35253805E+04</pdfrwt>
<pdfrwt beam="2">  1       -2 0.24017886E+00 0.35253805E+04</pdfrwt>
<totfact> 0.40992726E-01</totfact>
</mgrwt>
</event>
<event>
 6    1  0.2238133E-007  0.2784607E+04  0.7818608E-02  0.8308063E-01
          1   -1    0    0  501    0  0.00000000000E+00  0.00000000000E+00  0.19020807372E+04  0.19020807372E+04  0.00000000000E+00 0. -1.
         -1   -1    0    0    0  501 -0.00000000000E+00 -0.00000000000E+00 -0.10191520038E+04  0.10191520038E+04  0.00000000000E+00 0.  1.
         23    2    1    2    0    0  0.11004246318E+04 -0.82175297004E+03  0.67188494405E+03  0.15317177914E+04  0.92291389275E+02 0.  0.
         11    1    3    3    0    0  0.45866306912E+03 -0.38994774080E+03  0.26571363493E+03  0.65805378755E+03  0.00000000000E+00 0.  1.
        -11    1    3    3    0    0  0.64176156266E+03 -0.43180522924E+03  0.40617130912E+03  0.87366400387E+03  0.00000000000E+00 0. -1.
         22    1    1    2    0    0 -0.11004246318E+04  0.82175297004E+03  0.21104378940E+03  0.13895149496E+04  0.00000000000E+00 0. -1.
<mgrwt>
<rscale>  0 0.27846073E+04</rscale>
<asrwt>0</asrwt>
<pdfrwt beam="1">  1        1 0.29262780E+00 0.27846073E+04</pdfrwt>
<pdfrwt beam="2">  1       -1 0.15679262E+00 0.27846073E+04</pdfrwt>
<totfact> 0.93068118E-01</totfact>
</mgrwt>
</event>
<event>
 6    1  0.2238133E-007  0.2701893E+04  0.7818608E-02  0.8334391E-01
         -2   -1    0    0    0  501 -0.00000000000E+00  0.00000000000E+00  0.22627997612E+04  0.22627997612E+04  0.00000000000E+00 0.  1.
          2   -1    0    0  501    0  0.00000000000E+00 -0.00000000000E+00 -0.80654812017E+03  0.80654812017E+03  0.00000000000E+00 0. -1.
         23    2    1    2    0    0 -0.66377673705E+03 -0.21408260507E+03 -0.58346118567E+03  0.91369036361E+03  0.89287216004E+02 0.  0.
         13    1    3    3    0    0 -0.33715229382E+03 -0.10854967523E+03 -0.35423962684E+03  0.50093953172E+03  0.00000000000E+00 0.  1.
        -13    1    3    3    0    0 -0.32662444323E+03 -0.10553292984E+03 -0.22922155883E+03  0.41275083189E+03  0.00000000000E+00 0. -1.
         22    1    1    2    0    0  0.66377673705E+03  0.21408260507E+03  0.20397128267E+04  0.21556575177E+04  0.00000000000E+00 0.  1.
<mgrwt>
<rscale>  0 0.27018933E+04</rscale>
<asrwt>0</asrwt>
<pdfrwt beam="1">  1        2 0.12408433E+00 0.27018933E+04</pdfrwt>
<pdfrwt beam="2">  1       -2 0.34812304E+00 0.27018933E+04</pdfrwt>
<totfact> 0.47788170E-01</totfact>
</mgrwt>
</event>
<event>
 6    1  0.2238133E-007  0.4330599E+04  0.7818608E-02  0.7940984E-01
         -2   -1    0    0    0  501 -0.00000000000E+00  0.00000000000E+00  0.21971400285E+04  0.21971400285E+04  0.00000000000E+00 0.  1.
          2   -1    0    0  501    0  0.00000000000E+00 -0.00000000000E+00 -0.21339200608E+04  0.21339200608E+04  0.00000000000E+00 0. -1.
         23    2    1    2    0    0 -0.33481580414E+03  0.82035050974E+03 -0.19432813310E+04  0.21376326246E+04  0.89745889919E+02 0.  0.
         13    1    3    3    0    0 -0.29261477583E+03  0.69724903306E+03 -0.17258352907E+04  0.18842205476E+04  0.00000000000E+00 0.  1.
        -13    1    3    3    0    0 -0.42201028314E+02  0.12310147668E+03 -0.21744604025E+03  0.25341207701E+03  0.00000000000E+00 0. -1.
         22    1    1    2    0    0  0.33481580414E+03 -0.82035050974E+03  0.20065012987E+04  0.21934274648E+04  0.00000000000E+00 0.  1.
<mgrwt>
<rscale>  0 0.43305987E+04</rscale>
<asrwt>0</asrwt>
<pdfrwt beam="1">  1        2 0.32829539E+00 0.43305987E+04</pdfrwt>
<pdfrwt beam="2">  1       -2 0.33802154E+00 0.43305987E+04</pdfrwt>
<totfact> 0.79926243E-02</totfact>
</mgrwt>
</event>
<event>
 6    1  0.2238133E-007  0.2079300E+04  0.7818608E-02  0.8570417E-01
          2   -1    0    0  501    0  0.00000000000E+00  0.00000000000E+00  0.10197611690E+04  0.10197611690E+04  0.00000000000E+00 0. -1.
         -2   -1    0    0    0  501 -0.00000000000E+00 -0.00000000000E+00 -0.10599270780E+04  0.10599270780E+04  0.00000000000E+00 0.  1.
         23    2    1    2    0    0  0.53146830212E+03 -0.29182144935E+03  0.82243589991E+03  0.10253163034E+04  0.85172754820E+02 0.  0.
         13    1    3    3    0    0  0.20693228262E+03 -0.67528300683E+02  0.30114688763E+03  0.37157837519E+03  0.00000000000E+00 0. -1.
        -13    1    3    3    0    0  0.32453601950E+03 -0.22429314866E+03  0.52128901228E+03  0.65373792824E+03  0.00000000000E+00 0.  1.
         22    1    1    2    0    0 -0.53146830212E+03  0.29182144935E+03 -0.86260180893E+03  0.10543719435E+04  0.00000000000E+00 0.  1.
<mgrwt>
<rscale>  0 0.20793003E+04</rscale>
<asrwt>0</asrwt>
<pdfrwt beam="1">  1        2 0.15688633E+00 0.20793003E+04</pdfrwt>
<pdfrwt beam="2">  1       -2 0.16306570E+00 0.20793003E+04</pdfrwt>
<totfact> 0.54000784E+00</totfact>
</mgrwt>
</event>
<event>
 6    1  0.2238133E-007  0.1961044E+04  0.7818608E-02  0.8625053E-01
          1   -1    0    0  501    0  0.00000000000E+00  0.00000000000E+00  0.46515241219E+03  0.46515241219E+03  0.00000000000E+00 0. -1.
         -1   -1    0    0    0  501 -0.00000000000E+00 -0.00000000000E+00 -0.20669001301E+04  0.20669001301E+04  0.00000000000E+00 0.  1.
         23    2    1    2    0    0  0.19210157771E+03  0.91189250103E+03 -0.11872428399E+04  0.15121186015E+04  0.92228816885E+02 0.  0.
         11    1    3    3    0    0  0.82878647151E+02  0.38930912191E+03 -0.58159105942E+03  0.70475429971E+03  0.00000000000E+00 0. -1.
        -11    1    3    3    0    0  0.10922293056E+03  0.52258337911E+03 -0.60565178045E+03  0.80736430182E+03  0.00000000000E+00 0.  1.
         22    1    1    2    0    0 -0.19210157771E+03 -0.91189250103E+03 -0.41450487803E+03  0.10199339408E+04  0.00000000000E+00 0. -1.
<mgrwt>
<rscale>  0 0.19610442E+04</rscale>
<asrwt>0</asrwt>
<pdfrwt beam="1">  1        1 0.71561911E-01 0.19610442E+04</pdfrwt>
<pdfrwt beam="2">  1       -1 0.31798463E+00 0.19610442E+04</pdfrwt>
<totfact> 0.11506030E+00</totfact>
</mgrwt>
</event>
<event>
 6    1  0.2238133E-007  0.1606636E+04  0.7818608E-02  0.8816482E-01
         -2   -1    0    0    0  501 -0.00000000000E+00  0.00000000000E+00  0.81447312218E+03  0.81447312218E+03  0.00000000000E+00 0.  1.
          2   -1    0    0  501    0  0.00000000000E+00 -0.00000000000E+00 -0.79231552181E+03  0.79231552181E+03  0.00000000000E+00 0. -1.
         23    2    1    2    0    0  0.65754865709E+03 -0.43546472416E+03  0.14967424099E+03  0.80787672390E+03  0.90899175814E+02 0.  0.
         13    1    3    3    0    0  0.91210251109E+02 -0.72022257482E+02  0.54117111711E+02  0.12819975530E+03  0.00000000000E+00 0. -1.
        -13    1    3    3    0    0  0.56633840598E+03 -0.36344246668E+03  0.95557129284E+02  0.67967696859E+03  0.00000000000E+00 0.  1.
         22    1    1    2    0    0 -0.65754865709E+03  0.43546472416E+03 -0.12751664062E+03  0.79891192009E+03  0.00000000000E+00 0. -1.
<mgrwt>
<rscale>  0 0.16066359E+04</rscale>
<asrwt>0</asrwt>
<pdfrwt beam="1">  1        2 0.12189470E+00 0.16066359E+04</pdfrwt>
<pdfrwt beam="2">  1       -2 0.12530356E+00 0.16066359E+04</pdfrwt>
<totfact> 0.15935011E+01</totfact>
</mgrwt>
</event>
<event>
 6    1  0.2238133E-007  0.3456270E+04  0.7818608E-02  0.8124232E-01
          2   -1    0    0  501    0  0.00000000000E+00  0.00000000000E+00  0.23449305156E+04  0.23449305156E+04  0.00000000000E+00 0. -1.
         -2   -1    0    0    0  501 -0.00000000000E+00 -0.00000000000E+00 -0.12735776755E+04  0.12735776755E+04  0.00000000000E+00 0.  1.
         23    2    1    2    0    0  0.70966989844E+03 -0.27648338530E+03  0.21586915434E+04  0.22909616258E+04  0.92095409292E+02 0.  0.
         13    1    3    3    0    0  0.45184768199E+03 -0.22285530069E+03  0.14249477421E+04  0.15113923648E+04  0.00000000000E+00 0. -1.
        -13    1    3    3    0    0  0.25782221645E+03 -0.53628084615E+02  0.73374380133E+03  0.77956926103E+03  0.00000000000E+00 0.  1.
         22    1    1    2    0    0 -0.70966989844E+03  0.27648338530E+03 -0.10873387033E+04  0.13275465652E+04  0.00000000000E+00 0.  1.
<mgrwt>
<rscale>  0 0.34562703E+04</rscale>
<asrwt>0</asrwt>
<pdfrwt beam="1">  1        2 0.36075854E+00 0.34562703E+04</pdfrwt>
<pdfrwt beam="2">  1       -2 0.19593503E+00 0.34562703E+04</pdfrwt>
<totfact> 0.49868967E-01</totfact>
</mgrwt>
</event>
<event>
 6    1  0.2238133E-007  0.4158668E+04  0.7818608E-02  0.7973281E-01
          2   -1    0    0  501    0  0.00000000000E+00  0.00000000000E+00  0.28427814161E+04  0.28427814161E+04  0.00000000000E+00 0. -1.
         -2   -1    0    0    0  501 -0.00000000000E+00 -0.00000000000E+00 -0.15209152111E+04  0.15209152111E+04  0.00000000000E+00 0.  1.
         23    2    1    2    0    0  0.15948774153E+04  0.13312476037E+04  0.59653681186E+03  0.21632519266E+04  0.89154796672E+02 0.  0.
         11    1    3    3    0    0  0.64101758478E+03  0.48357446020E+03  0.21174782535E+03  0.83041251442E+03  0.00000000000E+00 0. -1.
        -11    1    3    3    0    0  0.95385983053E+03  0.84767314351E+03  0.38478898651E+03  0.13328394122E+04  0.00000000000E+00 0.  1.
         22    1    1    2    0    0 -0.15948774153E+04 -0.13312476037E+04  0.72532939312E+03  0.22004447007E+04  0.00000000000E+00 0.  1.
<mgrwt>
<rscale>  0 0.41586678E+04</rscale>
<asrwt>0</asrwt>
<pdfrwt beam="1">  1        2 0.43735099E+00 0.41586678E+04</pdfrwt>
<pdfrwt beam="2">  1       -2 0.23398696E+00 0.41586678E+04</pdfrwt>
<totfact> 0.13690860E-01</totfact>
</mgrwt>
</event>
<event>
 6    1  0.2238133E-007  0.1021171E+04  0.7818608E-02  0.9285625E-01
          2   -1    0    0  501    0  0.00000000000E+00  0.00000000000E+00  0.50633358916E+03  0.50633358916E+03  0.00000000000E+00 0. -1.
         -2   -1    0    0    0  501 -0.00000000000E+00 -0.00000000000E+00 -0.51487311286E+03  0.51487311286E+03  0.00000000000E+00 0.  1.
         23    2    1    2    0    0 -0.23702923261E+03  0.41108483329E+03  0.17313987851E+03  0.51309155517E+03  0.90066248889E+02 0.  0.
         11    1    3    3    0    0 -0.12043890708E+03  0.13890164079E+03  0.38589363437E+02  0.18785189678E+03  0.00000000000E+00 0.  1.
        -11    1    3    3    0    0 -0.11659032552E+03  0.27218319250E+03  0.13455051507E+03  0.32523965839E+03  0.00000000000E+00 0. -1.
         22    1    1    2    0    0  0.23702923261E+03 -0.41108483329E+03 -0.18167940222E+03  0.50811514685E+03  0.00000000000E+00 0.  1.
<mgrwt>
<rscale>  0 0.10211710E+04</rscale>
<asrwt>0</asrwt>
<pdfrwt beam="1">  1        2 0.77897475E-01 0.10211710E+04</pdfrwt>
<pdfrwt beam="2">  1       -2 0.79211248E-01 0.10211710E+04</pdfrwt>
<totfact> 0.85599607E+01</totfact>
</mgrwt>
</event>
<event>
 6    1  0.2238133E-007  0.5034579E+04  0.7818608E-02  0.7823195E-01
          2   -1    0    0  501    0  0.00000000000E+00  0.00000000000E+00  0.29695706945E+04  0.29695706945E+04  0.00000000000E+00 0. -1.
         -2   -1    0    0    0  501 -0.00000000000E+00 -0.00000000000E+00 -0.21338933056E+04  0.21338933056E+04  0.00000000000E+00 0.  1.
         23    2    1    2    0    0 -0.13461228164E+04 -0.17337991195E+04  0.16654670229E+04  0.27568373020E+04  0.90914693767E+02 0.  0.
         11    1    3    3    0    0 -0.30890419985E+03 -0.38344121583E+03  0.42061914104E+03  0.64758739371E+03  0.00000000000E+00 0. -1.
        -11    1    3    3    0    0 -0.10372186166E+04 -0.13503579036E+04  0.12448478819E+04  0.21092499083E+04  0.00000000000E+00 0.  1.
         22    1    1    2    0    0  0.13461228164E+04  0.17337991195E+04 -0.82978963401E+03  0.23466266981E+04  0.00000000000E+00 0.  1.
<mgrwt>
<rscale>  0 0.50345792E+04</rscale>
<asrwt>0</asrwt>
<pdfrwt beam="1">  1        2 0.45685703E+00 0.50345792E+04</pdfrwt>
<pdfrwt beam="2">  1       -2 0.32829128E+00 0.50345792E+04</pdfrwt>
<totfact> 0.28084504E-02</totfact>
</mgrwt>
</event>
<event>
 6    1  0.2238133E-007  0.3789183E+04  0.7818608E-02  0.8048480E-01
         -2   -1    0    0    0  501 -0.00000000000E+00  0.00000000000E+00  0.10919162379E+04  0.10919162379E+04  0.00000000000E+00 0.  1.
          2   -1    0    0  501    0  0.00000000000E+00 -0.00000000000E+00 -0.32873197604E+04  0.32873197604E+04  0.00000000000E+00 0. -1.
         23    2    1    2    0    0 -0.91044191290E+03 -0.49625601759E+03  0.73259906176E+03  0.12730528669E+04  0.93742759235E+02 0.  0.
         13    1    3    3    0    0 -0.34250099314E+03 -0.14751367976E+03  0.29859845246E+03  0.47773240609E+03  0.00000000000E+00 0. -1.
        -13    1    3    3    0    0 -0.56794091975E+03 -0.34874233782E+03  0.43400060930E+03  0.79532046082E+03  0.00000000000E+00 0.  1.
         22    1    1    2    0    0  0.91044191290E+03  0.49625601759E+03 -0.29280025843E+04  0.31061831313E+04  0.00000000000E+00 0. -1.
<mgrwt>
<rscale>  0 0.37891835E+04</rscale>
<asrwt>0</asrwt>
<pdfrwt beam="1">  1        2 0.50574150E+00 0.37891835E+04</pdfrwt>
<pdfrwt beam="2">  1       -2 0.16798711E+00 0.37891835E+04</pdfrwt>
<totfact> 0.20055806E-01</totfact>
</mgrwt>
</event>
<event>
 6    1  0.2238133E-007  0.1371162E+04  0.7818608E-02  0.8974962E-01
          1   -1    0    0  501    0  0.00000000000E+00  0.00000000000E+00  0.11783645933E+04  0.11783645933E+04  0.00000000000E+00 0. -1.
         -1   -1    0    0    0  501 -0.00000000000E+00 -0.00000000000E+00 -0.39887570758E+03  0.39887570758E+03  0.00000000000E+00 0.  1.
         23    2    1    2    0    0 -0.76906493748E+02  0.42017055332E+03 -0.22046011231E+03  0.48987840101E+03  0.94447255120E+02 0.  0.
         13    1    3    3    0    0 -0.87201465330E+02  0.23894946158E+03 -0.14909811910E+03  0.29484095689E+03  0.00000000000E+00 0.  1.
        -13    1    3    3    0    0  0.10294971583E+02  0.18122109174E+03 -0.71361993210E+02  0.19503744412E+03  0.00000000000E+00 0. -1.
         22    1    1    2    0    0  0.76906493748E+02 -0.42017055332E+03  0.99994899804E+03  0.10873618999E+04  0.00000000000E+00 0. -1.
<mgrwt>
<rscale>  0 0.13711616E+04</rscale>
<asrwt>0</asrwt>
<pdfrwt beam="1">  1        1 0.18128686E+00 0.13711616E+04</pdfrwt>
<pdfrwt beam="2">  1       -1 0.61365494E-01 0.13711616E+04</pdfrwt>
<totfact> 0.29172443E+01</totfact>
</mgrwt>
</event>
<event>
 6    1  0.2238133E-007  0.4757067E+04  0.7818608E-02  0.7867115E-01
         -2   -1    0    0    0  501 -0.00000000000E+00  0.00000000000E+00  0.22204924903E+04  0.22204924903E+04  0.00000000000E+00 0.  1.
          2   -1    0    0  501    0  0.00000000000E+00 -0.00000000000E+00 -0.25478228229E+04  0.25478228229E+04  0.00000000000E+00 0. -1.
         23    2    1    2    0    0  0.15284129840E+04  0.18194748845E+04 -0.24716074635E+03  0.23907194124E+04  0.88970609153E+02 0.  0.
         13    1    3    3    0    0  0.13829760039E+04  0.16370169836E+04 -0.19680346224E+03  0.21520173872E+04  0.00000000000E+00 0.  1.
        -13    1    3    3    0    0  0.14543698008E+03  0.18245790092E+03 -0.50357284116E+02  0.23870202522E+03  0.00000000000E+00 0. -1.
         22    1    1    2    0    0 -0.15284129840E+04 -0.18194748845E+04 -0.80169586203E+02  0.23775959008E+04  0.00000000000E+00 0.  1.
<mgrwt>
<rscale>  0 0.47570669E+04</rscale>
<asrwt>0</asrwt>
<pdfrwt beam="1">  1        2 0.39197274E+00 0.47570669E+04</pdfrwt>
<pdfrwt beam="2">  1       -2 0.34161423E+00 0.47570669E+04</pdfrwt>
<totfact> 0.42570579E-02</totfact>
</mgrwt>
</event>
<event>
 6    1  0.2238133E-007  0.2815797E+04  0.7818608E-02  0.8298381E-01
          3   -1    0    0  501    0  0.00000000000E+00  0.00000000000E+00  0.10166800439E+04  0.10166800439E+04  0.00000000000E+00 0. -1.
         -3   -1    0    0    0  501 -0.00000000000E+00 -0.00000000000E+00 -0.19496573004E+04  0.19496573004E+04  0.00000000000E+00 0.  1.
         23    2    1    2    0    0 -0.59065123082E+01 -0.90608621182E+03 -0.16001398585E+04  0.18411115680E+04  0.90648379617E+02 0.  0.
         13    1    3    3    0    0  0.35301062369E+02 -0.62074223328E+03 -0.10622941965E+04  0.12308680048E+04  0.00000000000E+00 0. -1.
        -13    1    3    3    0    0 -0.41207574678E+02 -0.28534397854E+03 -0.53784566198E+03  0.61024356318E+03  0.00000000000E+00 0.  1.
         22    1    1    2    0    0  0.59065123082E+01  0.90608621182E+03  0.66716260198E+03  0.11252257763E+04  0.00000000000E+00 0. -1.
<mgrwt>
<rscale>  0 0.28157966E+04</rscale>
<asrwt>0</asrwt>
<pdfrwt beam="1">  1        3 0.15641232E+00 0.28157966E+04</pdfrwt>
<pdfrwt beam="2">  1       -3 0.29994727E+00 0.28157966E+04</pdfrwt>
<totfact> 0.24902850E-02</totfact>
</mgrwt>
</event>
<event>
 6    1  0.2238133E-007  0.3106569E+04  0.7818608E-02  0.8213937E-01
         -2   -1    0    0    0  501 -0.00000000000E+00  0.00000000000E+00  0.13896863430E+04  0.13896863430E+04  0.00000000000E+00 0.  1.
          2   -1    0    0  501    0  0.00000000000E+00 -0.00000000000E+00 -0.17361416562E+04  0.17361416562E+04  0.00000000000E+00 0. -1.
         23    2    1    2    0    0 -0.45933322520E+02  0.13675691931E+04  0.56358948238E+03  0.14824969619E+04  0.88367240606E+02 0.  0.
         13    1    3    3    0    0 -0.65321671349E+01  0.11465843969E+04  0.46409363485E+03  0.12369645712E+04  0.00000000000E+00 0.  1.
        -13    1    3    3    0    0 -0.39401155385E+02  0.22098479619E+03  0.99495847526E+02  0.24553239067E+03  0.00000000000E+00 0. -1.
         22    1    1    2    0    0  0.45933322520E+02 -0.13675691931E+04 -0.91004479558E+03  0.16433310373E+04  0.00000000000E+00 0.  1.
<mgrwt>
<rscale>  0 0.31065687E+04</rscale>
<asrwt>0</asrwt>
<pdfrwt beam="1">  1        2 0.26709872E+00 0.31065687E+04</pdfrwt>
<pdfrwt beam="2">  1       -2 0.21379790E+00 0.31065687E+04</pdfrwt>
<totfact> 0.86016480E-01</totfact>
</mgrwt>
</event>
<event>
 6    1  0.2238133E-007  0.3621309E+04  0.7818608E-02  0.8085628E-01
         -1   -1    0    0    0  501 -0.00000000000E+00  0.00000000000E+00  0.10127467962E+04  0.10127467962E+04  0.00000000000E+00 0.  1.
          1   -1    0    0  501    0  0.00000000000E+00 -0.00000000000E+00 -0.32372065638E+04  0.32372065638E+04  0.00000000000E+00 0. -1.
         23    2    1    2    0    0 -0.29538257767E+03 -0.12746214716E+04  0.35395805863E+03  0.13585610916E+04  0.92147540459E+02 0.  0.
         13    1    3    3    0    0 -0.67649662348E+02 -0.48863337627E+03  0.13770551668E+03  0.51215413943E+03  0.00000000000E+00 0. -1.
        -13    1    3    3    0    0 -0.22773291532E+03 -0.78598809537E+03  0.21625254196E+03  0.84640695218E+03  0.00000000000E+00 0.  1.
         22    1    1    2    0    0  0.29538257767E+03  0.12746214716E+04 -0.25784178262E+04  0.28913922684E+04  0.00000000000E+00 0. -1.
<mgrwt>
<rscale>  0 0.36213095E+04</rscale>
<asrwt>0</asrwt>
<pdfrwt beam="1">  1        1 0.49803179E+00 0.36213095E+04</pdfrwt>
<pdfrwt beam="2">  1       -1 0.15580720E+00 0.36213095E+04</pdfrwt>
<totfact> 0.10114450E-01</totfact>
</mgrwt>
</event>
<event>
 6    1  0.2238133E-007  0.4032687E+04  0.7818608E-02  0.7997985E-01
          2   -1    0    0  501    0  0.00000000000E+00  0.00000000000E+00  0.16529252426E+04  0.16529252426E+04  0.00000000000E+00 0. -1.
         -2   -1    0    0    0  501 -0.00000000000E+00 -0.00000000000E+00 -0.24596646878E+04  0.24596646878E+04  0.00000000000E+00 0.  1.
         23    2    1    2    0    0 -0.17544963324E+04 -0.98715169969E+03 -0.49793496125E+03  0.20759048620E+04  0.93359048359E+02 0.  0.
         11    1    3    3    0    0 -0.13802616452E+04 -0.76453394685E+03 -0.42806155656E+03  0.16348917583E+04  0.00000000000E+00 0.  1.
        -11    1    3    3    0    0 -0.37423468715E+03 -0.22261775285E+03 -0.69873404686E+02  0.44101310370E+03  0.00000000000E+00 0. -1.
         22    1    1    2    0    0  0.17544963324E+04  0.98715169969E+03 -0.30880448391E+03  0.20366850684E+04  0.00000000000E+00 0.  1.
<mgrwt>
<rscale>  0 0.40326874E+04</rscale>
<asrwt>0</asrwt>
<pdfrwt beam="1">  1        2 0.25429619E+00 0.40326874E+04</pdfrwt>
<pdfrwt beam="2">  1       -2 0.37840995E+00 0.40326874E+04</pdfrwt>
<totfact> 0.83994838E-02</totfact>
</mgrwt>
</event>
<event>
 6    1  0.2238133E-007  0.7941505E+04  0.7818608E-02  0.7487434E-01
         -2   -1    0    0    0  501 -0.00000000000E+00  0.00000000000E+00  0.43129738019E+04  0.43129738019E+04  0.00000000000E+00 0.  1.
          2   -1    0    0  501    0  0.00000000000E+00 -0.00000000000E+00 -0.36556854422E+04  0.36556854422E+04  0.00000000000E+00 0. -1.
         23    2    1    2    0    0 -0.18742419272E+04 -0.79326007668E+03 -0.30918806704E+04  0.37027111939E+04  0.91102987356E+02 0.  0.
         11    1    3    3    0    0 -0.12437686457E+04 -0.55827502902E+03 -0.21263922830E+04  0.25259009468E+04  0.00000000000E+00 0. -1.
        -11    1    3    3    0    0 -0.63047328153E+03 -0.23498504766E+03 -0.96548838741E+03  0.11768102471E+04  0.00000000000E+00 0.  1.
         22    1    1    2    0    0  0.18742419272E+04  0.79326007668E+03  0.37491690302E+04  0.42659480503E+04  0.00000000000E+00 0.  1.
<mgrwt>
<rscale>  0 0.79415050E+04</rscale>
<asrwt>0</asrwt>
<pdfrwt beam="1">  1        2 0.56241314E+00 0.79415050E+04</pdfrwt>
<pdfrwt beam="2">  1       -2 0.66353443E+00 0.79415050E+04</pdfrwt>
<totfact> 0.11443387E-04</totfact>
</mgrwt>
</event>
<event>
 6    1  0.2238133E-007  0.2661341E+04  0.7818608E-02  0.8347659E-01
          2   -1    0    0  501    0  0.00000000000E+00  0.00000000000E+00  0.87285366756E+03  0.87285366756E+03  0.00000000000E+00 0. -1.
         -2   -1    0    0    0  501 -0.00000000000E+00 -0.00000000000E+00 -0.20286145132E+04  0.20286145132E+04  0.00000000000E+00 0.  1.
         23    2    1    2    0    0 -0.31463529706E+03 -0.14297688049E+03  0.82065236309E+03  0.89506669298E+03  0.90754202853E+02 0.  0.
         11    1    3    3    0    0 -0.21500448884E+03 -0.11709904528E+03  0.47456347950E+03  0.53399401935E+03  0.00000000000E+00 0. -1.
        -11    1    3    3    0    0 -0.99630808221E+02 -0.25877835216E+02  0.34608888359E+03  0.36107267363E+03  0.00000000000E+00 0.  1.
         22    1    1    2    0    0  0.31463529706E+03  0.14297688049E+03 -0.19764132088E+04  0.20064014878E+04  0.00000000000E+00 0.  1.
<mgrwt>
<rscale>  0 0.26613407E+04</rscale>
<asrwt>0</asrwt>
<pdfrwt beam="1">  1        2 0.13428518E+00 0.26613407E+04</pdfrwt>
<pdfrwt beam="2">  1       -2 0.31209454E+00 0.26613407E+04</pdfrwt>
<totfact> 0.72151872E-01</totfact>
</mgrwt>
</event>
<event>
 6    1  0.2238133E-007  0.4749573E+04  0.7818608E-02  0.7868344E-01
         -2   -1    0    0    0  501 -0.00000000000E+00  0.00000000000E+00  0.18836788799E+04  0.18836788799E+04  0.00000000000E+00 0.  1.
          2   -1    0    0  501    0  0.00000000000E+00 -0.00000000000E+00 -0.29939338437E+04  0.29939338437E+04  0.00000000000E+00 0. -1.
         23    2    1    2    0    0 -0.92216910628E+03 -0.21841391814E+04 -0.43036886354E+03  0.24112175944E+04  0.88843144431E+02 0.  0.
         13    1    3    3    0    0 -0.71372536943E+03 -0.17121279084E+04 -0.37281553080E+03  0.18920299410E+04  0.00000000000E+00 0.  1.
        -13    1    3    3    0    0 -0.20844373685E+03 -0.47201127300E+03 -0.57553332749E+02  0.51918765334E+03  0.00000000000E+00 0. -1.
         22    1    1    2    0    0  0.92216910628E+03  0.21841391814E+04 -0.67988610023E+03  0.24663951293E+04  0.00000000000E+00 0. -1.
<mgrwt>
<rscale>  0 0.47495726E+04</rscale>
<asrwt>0</asrwt>
<pdfrwt beam="1">  1        2 0.46060520E+00 0.47495726E+04</pdfrwt>
<pdfrwt beam="2">  1       -2 0.28979675E+00 0.47495726E+04</pdfrwt>
<totfact> 0.47840681E-02</totfact>
</mgrwt>
</event>
<event>
 6    1  0.2238133E-007  0.2757593E+04  0.7818608E-02  0.8316556E-01
          2   -1    0    0  501    0  0.00000000000E+00  0.00000000000E+00  0.90867580378E+03  0.90867580378E+03  0.00000000000E+00 0. -1.
         -2   -1    0    0    0  501 -0.00000000000E+00 -0.00000000000E+00 -0.20921429507E+04  0.20921429507E+04  0.00000000000E+00 0.  1.
         23    2    1    2    0    0  0.10339156181E+04 -0.55529210953E+03 -0.13762579969E+04  0.18114915732E+04  0.10042317199E+03 0.  0.
         11    1    3    3    0    0  0.29171293811E+03 -0.14098392469E+03 -0.44757695464E+03  0.55253781373E+03  0.00000000000E+00 0. -1.
        -11    1    3    3    0    0  0.74220268002E+03 -0.41430818484E+03 -0.92868104230E+03  0.12589537595E+04  0.00000000000E+00 0.  1.
         22    1    1    2    0    0 -0.10339156181E+04  0.55529210953E+03  0.19279084998E+03  0.11893271813E+04  0.00000000000E+00 0. -1.
<mgrwt>
<rscale>  0 0.27575929E+04</rscale>
<asrwt>0</asrwt>
<pdfrwt beam="1">  1        2 0.13979628E+00 0.27575929E+04</pdfrwt>
<pdfrwt beam="2">  1       -2 0.32186814E+00 0.27575929E+04</pdfrwt>
<totfact> 0.58895711E-01</totfact>
</mgrwt>
</event>
<event>
 6    1  0.2238133E-007  0.1179966E+04  0.7818608E-02  0.9130575E-01
          2   -1    0    0  501    0  0.00000000000E+00  0.00000000000E+00  0.88609355906E+03  0.88609355906E+03  0.00000000000E+00 0. -1.
         -2   -1    0    0    0  501 -0.00000000000E+00 -0.00000000000E+00 -0.39282550516E+03  0.39282550516E+03  0.00000000000E+00 0.  1.
         23    2    1    2    0    0 -0.32601411381E+03 -0.48153984894E+03  0.16288880664E+03  0.61010199241E+03  0.86751652963E+02 0.  0.
         13    1    3    3    0    0 -0.31730734822E+02 -0.22589677544E+02  0.29405100104E+02  0.48803616424E+02  0.00000000000E+00 0. -1.
        -13    1    3    3    0    0 -0.29428337898E+03 -0.45895017139E+03  0.13348370654E+03  0.56129837598E+03  0.00000000000E+00 0.  1.
         22    1    1    2    0    0  0.32601411381E+03  0.48153984894E+03  0.33037924726E+03  0.66881707180E+03  0.00000000000E+00 0. -1.
<mgrwt>
<rscale>  0 0.11799664E+04</rscale>
<asrwt>0</asrwt>
<pdfrwt beam="1">  1        2 0.13632209E+00 0.11799664E+04</pdfrwt>
<pdfrwt beam="2">  1       -2 0.60434693E-01 0.11799664E+04</pdfrwt>
<totfact> 0.75537702E+01</totfact>
</mgrwt>
</event>
<event>
 6    1  0.2238133E-007  0.3527390E+04  0.7818608E-02  0.8107329E-01
         -2   -1    0    0    0  501 -0.00000000000E+00  0.00000000000E+00  0.14148633803E+04  0.14148633803E+04  0.00000000000E+00 0.  1.
          2   -1    0    0  501    0  0.00000000000E+00 -0.00000000000E+00 -0.21985301581E+04  0.21985301581E+04  0.00000000000E+00 0. -1.
         23    2    1    2    0    0 -0.17171692871E+04  0.21485209805E+03 -0.50163893820E+02  0.17338036190E+04  0.93417280976E+02 0.  0.
         13    1    3    3    0    0 -0.60668522432E+03  0.10141580243E+03 -0.54709255154E+02  0.61753156113E+03  0.00000000000E+00 0. -1.
        -13    1    3    3    0    0 -0.11104840628E+04  0.11343629561E+03  0.45453613338E+01  0.11162720579E+04  0.00000000000E+00 0.  1.
         22    1    1    2    0    0  0.17171692871E+04 -0.21485209805E+03 -0.73350288400E+03  0.18795899195E+04  0.00000000000E+00 0. -1.
<mgrwt>
<rscale>  0 0.35273899E+04</rscale>
<asrwt>0</asrwt>
<pdfrwt beam="1">  1        2 0.33823541E+00 0.35273899E+04</pdfrwt>
<pdfrwt beam="2">  1       -2 0.21767129E+00 0.35273899E+04</pdfrwt>
<totfact> 0.43377624E-01</totfact>
</mgrwt>
</event>
<event>
 6    1  0.2238133E-007  0.2042722E+04  0.7818608E-02  0.8586903E-01
         -1   -1    0    0    0  501 -0.00000000000E+00  0.00000000000E+00  0.76111624920E+03  0.76111624920E+03  0.00000000000E+00 0.  1.
          1   -1    0    0  501    0  0.00000000000E+00 -0.00000000000E+00 -0.13705899222E+04  0.13705899222E+04  0.00000000000E+00 0. -1.
         23    2    1    2    0    0  0.25183443232E+03  0.98523562005E+03 -0.37876105252E+03  0.10889511083E+04  0.90800732985E+02 0.  0.
         13    1    3    3    0    0  0.11595739755E+03  0.33719640624E+03 -0.16729312506E+03  0.39387120245E+03  0.00000000000E+00 0. -1.
        -13    1    3    3    0    0  0.13587703477E+03  0.64803921381E+03 -0.21146792746E+03  0.69507990588E+03  0.00000000000E+00 0.  1.
         22    1    1    2    0    0 -0.25183443232E+03 -0.98523562005E+03 -0.23071262047E+03  0.10427550631E+04  0.00000000000E+00 0. -1.
<mgrwt>
<rscale>  0 0.20427220E+04</rscale>
<asrwt>0</asrwt>
<pdfrwt beam="1">  1        1 0.21085999E+00 0.20427220E+04</pdfrwt>
<pdfrwt beam="2">  1       -1 0.11709481E+00 0.20427220E+04</pdfrwt>
<totfact> 0.48948226E+00</totfact>
</mgrwt>
</event>
<event>
 6    1  0.2238133E-007  0.1449342E+04  0.7818608E-02  0.8918857E-01
         -1   -1    0    0    0  501 -0.00000000000E+00  0.00000000000E+00  0.18132709087E+03  0.18132709087E+03  0.00000000000E+00 0.  1.
          1   -1    0    0  501    0  0.00000000000E+00 -0.00000000000E+00 -0.28961375764E+04  0.28961375764E+04  0.00000000000E+00 0. -1.
         23    2    1    2    0    0 -0.52404025382E+03  0.32889713346E+03 -0.21519242857E+04  0.22410243610E+04  0.92846879684E+02 0.  0.
         13    1    3    3    0    0 -0.27957024104E+03  0.21074850650E+03 -0.13357508540E+04  0.13808710283E+04  0.00000000000E+00 0. -1.
        -13    1    3    3    0    0 -0.24447001278E+03  0.11814862696E+03 -0.81617343171E+03  0.86015333274E+03  0.00000000000E+00 0.  1.
         22    1    1    2    0    0  0.52404025382E+03 -0.32889713346E+03 -0.56288619977E+03  0.83644030625E+03  0.00000000000E+00 0.  1.
<mgrwt>
<rscale>  0 0.14493422E+04</rscale>
<asrwt>0</asrwt>
<pdfrwt beam="1">  1        1 0.44555963E+00 0.14493422E+04</pdfrwt>
<pdfrwt beam="2">  1       -1 0.27896475E-01 0.14493422E+04</pdfrwt>
<totfact> 0.80515287E+00</totfact>
</mgrwt>
</event>
<event>
 6    1  0.2238133E-007  0.7681504E+03  0.7818608E-02  0.9607298E-01
         -1   -1    0    0    0  501 -0.00000000000E+00  0.00000000000E+00  0.16281680668E+03  0.16281680668E+03  0.00000000000E+00 0.  1.
          1   -1    0    0  501    0  0.00000000000E+00 -0.00000000000E+00 -0.90601070458E+03  0.90601070458E+03  0.00000000000E+00 0. -1.
         23    2    1    2    0    0 -0.12138793064E+03  0.22944617712E+03  0.64326206428E+01  0.27553028121E+03  0.92168212295E+02 0.  0.
         13    1    3    3    0    0 -0.57513561269E+02  0.19371446230E+03  0.92858933304E+01  0.20228526997E+03  0.00000000000E+00 0.  1.
        -13    1    3    3    0    0 -0.63874369371E+02  0.35731714822E+02 -0.28532726876E+01  0.73245011241E+02  0.00000000000E+00 0. -1.
         22    1    1    2    0    0  0.12138793064E+03 -0.22944617712E+03 -0.74962651854E+03  0.79329723005E+03  0.00000000000E+00 0. -1.
<mgrwt>
<rscale>  0 0.76815043E+03</rscale>
<asrwt>0</asrwt>
<pdfrwt beam="1">  1        1 0.13938626E+00 0.76815043E+03</pdfrwt>
<pdfrwt beam="2">  1       -1 0.25048740E-01 0.76815043E+03</pdfrwt>
<totfact> 0.25376875E+02</totfact>
</mgrwt>
</event>
<event>
 6    1  0.2238133E-007  0.2190203E+04  0.7818608E-02  0.8522517E-01
          2   -1    0    0  501    0  0.00000000000E+00  0.00000000000E+00  0.16183865597E+04  0.16183865597E+04  0.00000000000E+00 0. -1.
         -2   -1    0    0    0  501 -0.00000000000E+00 -0.00000000000E+00 -0.74101403046E+03  0.74101403046E+03  0.00000000000E+00 0.  1.
         23    2    1    2    0    0  0.99675134181E+03 -0.14613600764E+03 -0.17838918271E+02  0.10117090431E+04  0.91476722980E+02 0.  0.
         11    1    3    3    0    0  0.94975184642E+03 -0.13983082247E+03 -0.36660158771E+02  0.96068995827E+03  0.00000000000E+00 0. -1.
        -11    1    3    3    0    0  0.46999495395E+02 -0.63051851700E+01  0.18821240500E+02  0.51019084874E+02  0.00000000000E+00 0.  1.
         22    1    1    2    0    0 -0.99675134181E+03  0.14613600764E+03  0.89521144754E+03  0.13476915470E+04  0.00000000000E+00 0. -1.
<mgrwt>
<rscale>  0 0.21902029E+04</rscale>
<asrwt>0</asrwt>
<pdfrwt beam="1">  1        2 0.24898255E+00 0.21902029E+04</pdfrwt>
<pdfrwt beam="2">  1       -2 0.11400216E+00 0.21902029E+04</pdfrwt>
<totfact> 0.60015506E+00</totfact>
</mgrwt>
</event>
<event>
 6    1  0.2238133E-007  0.6881185E+03  0.7818608E-02  0.9737770E-01
          2   -1    0    0  501    0  0.00000000000E+00  0.00000000000E+00  0.62808054065E+03  0.62808054065E+03  0.00000000000E+00 0. -1.
         -2   -1    0    0    0  501 -0.00000000000E+00 -0.00000000000E+00 -0.18847386448E+03  0.18847386448E+03  0.00000000000E+00 0.  1.
         23    2    1    2    0    0  0.86750570374E+01  0.11300681805E+03  0.60153538744E+03  0.61890141357E+03  0.91369249986E+02 0.  0.
         13    1    3    3    0    0 -0.23021900241E+02  0.10011969650E+03  0.34130031072E+03  0.35642651923E+03  0.00000000000E+00 0. -1.
        -13    1    3    3    0    0  0.31696957279E+02  0.12887121548E+02  0.26023507672E+03  0.26247489434E+03  0.00000000000E+00 0.  1.
         22    1    1    2    0    0 -0.86750570374E+01 -0.11300681805E+03 -0.16192871127E+03  0.19765299156E+03  0.00000000000E+00 0.  1.
<mgrwt>
<rscale>  0 0.68811850E+03</rscale>
<asrwt>0</asrwt>
<pdfrwt beam="1">  1        2 0.96627774E-01 0.68811850E+03</pdfrwt>
<pdfrwt beam="2">  1       -2 0.28995980E-01 0.68811850E+03</pdfrwt>
<totfact> 0.51546767E+02</totfact>
</mgrwt>
</event>
<event>
 6    1  0.2238133E-007  0.1995775E+04  0.7818608E-02  0.8608598E-01
         -1   -1    0    0    0  501 -0.00000000000E+00  0.00000000000E+00  0.95305445638E+03  0.95305445638E+03  0.00000000000E+00 0.  1.
          1   -1    0    0  501    0  0.00000000000E+00 -0.00000000000E+00 -0.10448298417E+04  0.10448298417E+04  0.00000000000E+00 0. -1.
         23    2    1    2    0    0  0.21959294420E+03  0.45284919576E+03 -0.90631247046E+03  0.10404062993E+04  0.88031347900E+02 0.  0.
         11    1    3    3    0    0  0.20262950321E+02  0.72912302991E+02 -0.20187848773E+03  0.21559618478E+03  0.00000000000E+00 0.  1.
        -11    1    3    3    0    0  0.19932999388E+03  0.37993689277E+03 -0.70443398273E+03  0.82481011450E+03  0.00000000000E+00 0. -1.
         22    1    1    2    0    0 -0.21959294420E+03 -0.45284919576E+03  0.81453708511E+03  0.95747799884E+03  0.00000000000E+00 0.  1.
<mgrwt>
<rscale>  0 0.19957753E+04</rscale>
<asrwt>0</asrwt>
<pdfrwt beam="1">  1        1 0.16074305E+00 0.19957753E+04</pdfrwt>
<pdfrwt beam="2">  1       -1 0.14662376E+00 0.19957753E+04</pdfrwt>
<totfact> 0.48075649E+00</totfact>
</mgrwt>
</event>
<event>
 6    1  0.2238133E-007  0.4868424E+04  0.7818608E-02  0.7849131E-01
         -2   -1    0    0    0  501 -0.00000000000E+00  0.00000000000E+00  0.30349287158E+04  0.30349287158E+04  0.00000000000E+00 0.  1.
          2   -1    0    0  501    0  0.00000000000E+00 -0.00000000000E+00 -0.19523977803E+04  0.19523977803E+04  0.00000000000E+00 0. -1.
         23    2    1    2    0    0  0.33269398186E+03 -0.11030999875E+04 -0.16541005214E+04  0.20180392754E+04  0.94441062436E+02 0.  0.
         11    1    3    3    0    0  0.41366593590E+02 -0.27030872849E+03 -0.37175729110E+03  0.46149917362E+03  0.00000000000E+00 0.  1.
        -11    1    3    3    0    0  0.29132738827E+03 -0.83279125897E+03 -0.12823432303E+04  0.15565401018E+04  0.00000000000E+00 0. -1.
         22    1    1    2    0    0 -0.33269398186E+03  0.11030999875E+04  0.27366314569E+04  0.29692872207E+04  0.00000000000E+00 0.  1.
<mgrwt>
<rscale>  0 0.48684240E+04</rscale>
<asrwt>0</asrwt>
<pdfrwt beam="1">  1        2 0.30036889E+00 0.48684240E+04</pdfrwt>
<pdfrwt beam="2">  1       -2 0.46691211E+00 0.48684240E+04</pdfrwt>
<totfact> 0.14080373E-02</totfact>
</mgrwt>
</event>
<event>
 6    1  0.2238133E-007  0.1288892E+04  0.7818608E-02  0.9038421E-01
         -2   -1    0    0    0  501 -0.00000000000E+00  0.00000000000E+00  0.46155204777E+03  0.46155204777E+03  0.00000000000E+00 0.  1.
          2   -1    0    0  501    0  0.00000000000E+00 -0.00000000000E+00 -0.89981293468E+03  0.89981293468E+03  0.00000000000E+00 0. -1.
         23    2    1    2    0    0  0.74062413366E+02  0.21782986420E+03  0.41172989314E+03  0.48078595875E+03  0.93265976743E+02 0.  0.
         13    1    3    3    0    0  0.64498824223E+02  0.55964690406E+02  0.15979869797E+03  0.18118435024E+03  0.00000000000E+00 0. -1.
        -13    1    3    3    0    0  0.95635891421E+01  0.16186517379E+03  0.25193119517E+03  0.29960160851E+03  0.00000000000E+00 0.  1.
         22    1    1    2    0    0 -0.74062413366E+02 -0.21782986420E+03 -0.84999078004E+03  0.88057902369E+03  0.00000000000E+00 0. -1.
<mgrwt>
<rscale>  0 0.12888918E+04</rscale>
<asrwt>0</asrwt>
<pdfrwt beam="1">  1        2 0.13843276E+00 0.12888918E+04</pdfrwt>
<pdfrwt beam="2">  1       -2 0.71008008E-01 0.12888918E+04</pdfrwt>
<totfact> 0.51850958E+01</totfact>
</mgrwt>
</event>
<event>
 6    1  0.2238133E-007  0.2052355E+04  0.7818608E-02  0.8582527E-01
         -2   -1    0    0    0  501 -0.00000000000E+00  0.00000000000E+00  0.73437960708E+03  0.73437960708E+03  0.00000000000E+00 0.  1.
          2   -1    0    0  501    0  0.00000000000E+00 -0.00000000000E+00 -0.14339181594E+04  0.14339181594E+04  0.00000000000E+00 0. -1.
         23    2    1    2    0    0  0.38194684467E+03 -0.49811031231E+03  0.50412742649E+03  0.81079673003E+03  0.96174840275E+02 0.  0.
         13    1    3    3    0    0  0.25910204522E+03 -0.28442023774E+03  0.34977293185E+03  0.51997100432E+03  0.00000000000E+00 0. -1.
        -13    1    3    3    0    0  0.12284479945E+03 -0.21369007456E+03  0.15435449464E+03  0.29082572571E+03  0.00000000000E+00 0.  1.
         22    1    1    2    0    0 -0.38194684467E+03  0.49811031231E+03 -0.12036659788E+04  0.13575010364E+04  0.00000000000E+00 0. -1.
<mgrwt>
<rscale>  0 0.20523550E+04</rscale>
<asrwt>0</asrwt>
<pdfrwt beam="1">  1        2 0.22060279E+00 0.20523550E+04</pdfrwt>
<pdfrwt beam="2">  1       -2 0.11298148E+00 0.20523550E+04</pdfrwt>
<totfact> 0.78837225E+00</totfact>
</mgrwt>
</event>
<event>
 6    1  0.2238133E-007  0.1245930E+04  0.7818608E-02  0.9073578E-01
          1   -1    0    0  501    0  0.00000000000E+00  0.00000000000E+00  0.78185968882E+03  0.78185968882E+03  0.00000000000E+00 0. -1.
         -1   -1    0    0    0  501 -0.00000000000E+00 -0.00000000000E+00 -0.49636191948E+03  0.49636191948E+03  0.00000000000E+00 0.  1.
         23    2    1    2    0    0 -0.26435275174E+03 -0.25780240793E+02 -0.43065238832E+03  0.51440353670E+03  0.92749775424E+02 0.  0.
         11    1    3    3    0    0 -0.86926273755E+02  0.26831497659E+02 -0.19149514943E+03  0.21200589282E+03  0.00000000000E+00 0. -1.
        -11    1    3    3    0    0 -0.17742647798E+03 -0.52611738452E+02 -0.23915723889E+03  0.30239764388E+03  0.00000000000E+00 0.  1.
         22    1    1    2    0    0  0.26435275174E+03  0.25780240793E+02  0.71615015767E+03  0.76381807160E+03  0.00000000000E+00 0. -1.
<mgrwt>
<rscale>  0 0.12459300E+04</rscale>
<asrwt>0</asrwt>
<pdfrwt beam="1">  1        1 0.12028611E+00 0.12459300E+04</pdfrwt>
<pdfrwt beam="2">  1       -1 0.76363372E-01 0.12459300E+04</pdfrwt>
<totfact> 0.38965934E+01</totfact>
</mgrwt>
</event>
<event>
 6    1  0.2238133E-007  0.1033676E+04  0.7818608E-02  0.9272362E-01
         -2   -1    0    0    0  501 -0.00000000000E+00  0.00000000000E+00  0.13578366190E+03  0.13578366190E+03  0.00000000000E+00 0.  1.
          2   -1    0    0  501    0  0.00000000000E+00 -0.00000000000E+00 -0.19672577007E+04  0.19672577007E+04  0.00000000000E+00 0. -1.
         23    2    1    2    0    0 -0.35471599921E+03  0.31836812667E+03 -0.13082104687E+04  0.13952373870E+04  0.89950160068E+02 0.  0.
         11    1    3    3    0    0 -0.13515729991E+03  0.16047919655E+03 -0.67032069939E+03  0.70238942779E+03  0.00000000000E+00 0. -1.
        -11    1    3    3    0    0 -0.21955869929E+03  0.15788893013E+03 -0.63788976936E+03  0.69284795918E+03  0.00000000000E+00 0.  1.
         22    1    1    2    0    0  0.35471599921E+03 -0.31836812667E+03 -0.52326357008E+03  0.70780397565E+03  0.00000000000E+00 0.  1.
<mgrwt>
<rscale>  0 0.10336759E+04</rscale>
<asrwt>0</asrwt>
<pdfrwt beam="1">  1        2 0.30265500E+00 0.10336759E+04</pdfrwt>
<pdfrwt beam="2">  1       -2 0.20889796E-01 0.10336759E+04</pdfrwt>
<totfact> 0.13781960E+02</totfact>
</mgrwt>
</event>
<event>
 6    1  0.2238133E-007  0.4119590E+04  0.7818608E-02  0.7980847E-01
          2   -1    0    0  501    0  0.00000000000E+00  0.00000000000E+00  0.30120913690E+04  0.30120913690E+04  0.00000000000E+00 0. -1.
         -2   -1    0    0    0  501 -0.00000000000E+00 -0.00000000000E+00 -0.14085744663E+04  0.14085744663E+04  0.00000000000E+00 0.  1.
         23    2    1    2    0    0 -0.47450387995E+03  0.75681863236E+03  0.27926005378E+04  0.29334374515E+04  0.92245018490E+02 0.  0.
         11    1    3    3    0    0 -0.42332175525E+03  0.63287323308E+03  0.24475293622E+04  0.25632264466E+04  0.00000000000E+00 0. -1.
        -11    1    3    3    0    0 -0.51182124699E+02  0.12394539928E+03  0.34507117559E+03  0.37021100485E+03  0.00000000000E+00 0.  1.
         22    1    1    2    0    0  0.47450387995E+03 -0.75681863236E+03 -0.11890836352E+04  0.14872283839E+04  0.00000000000E+00 0.  1.
<mgrwt>
<rscale>  0 0.41195898E+04</rscale>
<asrwt>0</asrwt>
<pdfrwt beam="1">  1        2 0.46339867E+00 0.41195898E+04</pdfrwt>
<pdfrwt beam="2">  1       -2 0.21670377E+00 0.41195898E+04</pdfrwt>
<totfact> 0.13857099E-01</totfact>
</mgrwt>
</event>
<event>
 6    1  0.2238133E-007  0.6336226E+03  0.7818608E-02  0.9838005E-01
          4   -1    0    0  501    0  0.00000000000E+00  0.00000000000E+00  0.44775414654E+03  0.44775414654E+03  0.00000000000E+00 0. -1.
         -4   -1    0    0    0  501 -0.00000000000E+00 -0.00000000000E+00 -0.22416187053E+03  0.22416187053E+03  0.00000000000E+00 0.  1.
         23    2    1    2    0    0 -0.27859416765E+03 -0.26157271920E+02  0.25613592464E+03  0.39021049317E+03  0.91431416732E+02 0.  0.
         13    1    3    3    0    0 -0.14853671721E+03  0.21877073385E+02  0.17080257125E+03  0.22740994052E+03  0.00000000000E+00 0.  1.
        -13    1    3    3    0    0 -0.13005745044E+03 -0.48034345305E+02  0.85333353389E+02  0.16280055265E+03  0.00000000000E+00 0. -1.
         22    1    1    2    0    0  0.27859416765E+03  0.26157271920E+02 -0.32543648631E+02  0.28170552389E+03  0.00000000000E+00 0. -1.
<mgrwt>
<rscale>  0 0.63362262E+03</rscale>
<asrwt>0</asrwt>
<pdfrwt beam="1">  1        4 0.68885253E-01 0.63362262E+03</pdfrwt>
<pdfrwt beam="2">  1       -4 0.34486442E-01 0.63362262E+03</pdfrwt>
<totfact> 0.31419881E+01</totfact>
</mgrwt>
</event>
<event>
 6    1  0.2238133E-007  0.1341001E+04  0.7818608E-02  0.8997668E-01
          2   -1    0    0  501    0  0.00000000000E+00  0.00000000000E+00  0.13501017885E+04  0.13501017885E+04  0.00000000000E+00 0. -1.
         -2   -1    0    0    0  501 -0.00000000000E+00 -0.00000000000E+00 -0.33299063284E+03  0.33299063284E+03  0.00000000000E+00 0.  1.
         23    2    1    2    0    0 -0.53162547660E+03 -0.28493187922E+03  0.86947874823E+03  0.10621196756E+04  0.91066396570E+02 0.  0.
         13    1    3    3    0    0 -0.13106345715E+02 -0.28698835400E+02  0.41284073574E+02  0.51959351249E+02  0.00000000000E+00 0. -1.
        -13    1    3    3    0    0 -0.51851913089E+03 -0.25623304382E+03  0.82819467465E+03  0.10101603244E+04  0.00000000000E+00 0.  1.
         22    1    1    2    0    0  0.53162547660E+03  0.28493187922E+03  0.14763240741E+03  0.62097274569E+03  0.00000000000E+00 0.  1.
<mgrwt>
<rscale>  0 0.13410015E+04</rscale>
<asrwt>0</asrwt>
<pdfrwt beam="1">  1        2 0.20770796E+00 0.13410015E+04</pdfrwt>
<pdfrwt beam="2">  1       -2 0.51229329E-01 0.13410015E+04</pdfrwt>
<totfact> 0.54393645E+01</totfact>
</mgrwt>
</event>
<event>
 6    1  0.2238133E-007  0.2455022E+04  0.7818608E-02  0.8419187E-01
         -2   -1    0    0    0  501 -0.00000000000E+00  0.00000000000E+00  0.23418402587E+04  0.23418402587E+04  0.00000000000E+00 0.  1.
          2   -1    0    0  501    0  0.00000000000E+00 -0.00000000000E+00 -0.64341867540E+03  0.64341867540E+03  0.00000000000E+00 0. -1.
         23    2    1    2    0    0  0.77855170025E+03 -0.55894112472E+03  0.17797837525E+04  0.20233973362E+04  0.89155167204E+02 0.  0.
         11    1    3    3    0    0  0.39229968818E+03 -0.28148069317E+03  0.80286827991E+03  0.93687133635E+03  0.00000000000E+00 0. -1.
        -11    1    3    3    0    0  0.38625201207E+03 -0.27746043155E+03  0.97691547256E+03  0.10865259999E+04  0.00000000000E+00 0.  1.
         22    1    1    2    0    0 -0.77855170025E+03  0.55894112472E+03 -0.81362169182E+02  0.96186159786E+03  0.00000000000E+00 0. -1.
<mgrwt>
<rscale>  0 0.24550224E+04</rscale>
<asrwt>0</asrwt>
<pdfrwt beam="1">  1        2 0.98987490E-01 0.24550224E+04</pdfrwt>
<pdfrwt beam="2">  1       -2 0.36028311E+00 0.24550224E+04</pdfrwt>
<totfact> 0.54620309E-01</totfact>
</mgrwt>
</event>
<event>
 6    1  0.2238133E-007  0.1764531E+04  0.7818608E-02  0.8725392E-01
         -2   -1    0    0    0  501 -0.00000000000E+00  0.00000000000E+00  0.11151675239E+04  0.11151675239E+04  0.00000000000E+00 0.  1.
          2   -1    0    0  501    0  0.00000000000E+00 -0.00000000000E+00 -0.69800505074E+03  0.69800505074E+03  0.00000000000E+00 0. -1.
         23    2    1    2    0    0  0.79492360614E+03  0.19299447212E+03 -0.12395646850E+03  0.83237692065E+03  0.91300197644E+02 0.  0.
         13    1    3    3    0    0  0.15691705129E+03  0.38844035080E+02 -0.61845320567E+02  0.17307993449E+03  0.00000000000E+00 0.  1.
        -13    1    3    3    0    0  0.63800655484E+03  0.15415043704E+03 -0.62111147938E+02  0.65929698616E+03  0.00000000000E+00 0. -1.
         22    1    1    2    0    0 -0.79492360614E+03 -0.19299447212E+03  0.54111894168E+03  0.98079565400E+03  0.00000000000E+00 0.  1.
<mgrwt>
<rscale>  0 0.17645312E+04</rscale>
<asrwt>0</asrwt>
<pdfrwt beam="1">  1        2 0.10738539E+00 0.17645312E+04</pdfrwt>
<pdfrwt beam="2">  1       -2 0.17156423E+00 0.17645312E+04</pdfrwt>
<totfact> 0.80822707E+00</totfact>
</mgrwt>
</event>
<event>
 6    1  0.2238133E-007  0.3579132E+04  0.7818608E-02  0.8095288E-01
         -2   -1    0    0    0  501 -0.00000000000E+00  0.00000000000E+00  0.12319906450E+04  0.12319906450E+04  0.00000000000E+00 0.  1.
          2   -1    0    0  501    0  0.00000000000E+00 -0.00000000000E+00 -0.25994898337E+04  0.25994898337E+04  0.00000000000E+00 0. -1.
         23    2    1    2    0    0 -0.16576634340E+04  0.66546121670E+03 -0.59007847718E+03  0.18833866272E+04  0.90916922990E+02 0.  0.
         11    1    3    3    0    0 -0.59541818985E+03  0.19263562566E+03 -0.20107662755E+03  0.65731508063E+03  0.00000000000E+00 0. -1.
        -11    1    3    3    0    0 -0.10622452442E+04  0.47282559104E+03 -0.38900184962E+03  0.12260715466E+04  0.00000000000E+00 0.  1.
         22    1    1    2    0    0  0.16576634340E+04 -0.66546121670E+03 -0.77742071149E+03  0.19480938515E+04  0.00000000000E+00 0. -1.
<mgrwt>
<rscale>  0 0.35791324E+04</rscale>
<asrwt>0</asrwt>
<pdfrwt beam="1">  1        2 0.39992151E+00 0.35791324E+04</pdfrwt>
<pdfrwt beam="2">  1       -2 0.18953702E+00 0.35791324E+04</pdfrwt>
<totfact> 0.38807765E-01</totfact>
</mgrwt>
</event>
<event>
 6    1  0.2238133E-007  0.1713958E+04  0.7818608E-02  0.8753443E-01
          2   -1    0    0  501    0  0.00000000000E+00  0.00000000000E+00  0.32388318834E+04  0.32388318834E+04  0.00000000000E+00 0. -1.
         -2   -1    0    0    0  501 -0.00000000000E+00 -0.00000000000E+00 -0.22675242916E+03  0.22675242916E+03  0.00000000000E+00 0.  1.
         23    2    1    2    0    0 -0.57097593467E+03  0.63477137873E+03  0.14351071816E+04  0.16723219865E+04  0.90443257156E+02 0.  0.
         11    1    3    3    0    0 -0.38397713266E+03  0.43441787422E+03  0.10533894431E+04  0.12024086854E+04  0.00000000000E+00 0. -1.
        -11    1    3    3    0    0 -0.18699880201E+03  0.20035350451E+03  0.38171773852E+03  0.46991330117E+03  0.00000000000E+00 0.  1.
         22    1    1    2    0    0  0.57097593467E+03 -0.63477137873E+03  0.15769722726E+04  0.17932623260E+04  0.00000000000E+00 0.  1.
<mgrwt>
<rscale>  0 0.17139580E+04</rscale>
<asrwt>0</asrwt>
<pdfrwt beam="1">  1        2 0.49828180E+00 0.17139580E+04</pdfrwt>
<pdfrwt beam="2">  1       -2 0.34884991E-01 0.17139580E+04</pdfrwt>
<totfact> 0.90226335E+00</totfact>
</mgrwt>
</event>
<event>
 6    1  0.2238133E-007  0.3718151E+04  0.7818608E-02  0.8063951E-01
          2   -1    0    0  501    0  0.00000000000E+00  0.00000000000E+00  0.27572382166E+04  0.27572382166E+04  0.00000000000E+00 0. -1.
         -2   -1    0    0    0  501 -0.00000000000E+00 -0.00000000000E+00 -0.12534868889E+04  0.12534868889E+04  0.00000000000E+00 0.  1.
         23    2    1    2    0    0 -0.44192451872E+03 -0.71709433773E+03  0.25387905029E+04  0.26762485550E+04  0.85601058679E+02 0.  0.
         13    1    3    3    0    0 -0.21874060107E+03 -0.43516614795E+03  0.14469290160E+04  0.15267025265E+04  0.00000000000E+00 0. -1.
        -13    1    3    3    0    0 -0.22318391765E+03 -0.28192818978E+03  0.10918614868E+04  0.11495460285E+04  0.00000000000E+00 0.  1.
         22    1    1    2    0    0  0.44192451872E+03  0.71709433773E+03 -0.10350391753E+04  0.13344765505E+04  0.00000000000E+00 0.  1.
<mgrwt>
<rscale>  0 0.37181511E+04</rscale>
<asrwt>0</asrwt>
<pdfrwt beam="1">  1        2 0.42419049E+00 0.37181511E+04</pdfrwt>
<pdfrwt beam="2">  1       -2 0.19284414E+00 0.37181511E+04</pdfrwt>
<totfact> 0.29376959E-01</totfact>
</mgrwt>
</event>
<event>
 6    1  0.2238133E-007  0.1422276E+04  0.7818608E-02  0.8937850E-01
          2   -1    0    0  501    0  0.00000000000E+00  0.00000000000E+00  0.24430139220E+04  0.24430139220E+04  0.00000000000E+00 0. -1.
         -2   -1    0    0    0  501 -0.00000000000E+00 -0.00000000000E+00 -0.20700542465E+03  0.20700542465E+03  0.00000000000E+00 0.  1.
         23    2    1    2    0    0 -0.40532329368E+03 -0.12114644677E+03  0.21810097301E+04  0.22234184812E+04  0.88446965538E+02 0.  0.
         13    1    3    3    0    0 -0.19078349192E+03 -0.84816441130E+02  0.12501615214E+04  0.12674762321E+04  0.00000000000E+00 0.  1.
        -13    1    3    3    0    0 -0.21453980176E+03 -0.36330005636E+02  0.93084820876E+03  0.95594224909E+03  0.00000000000E+00 0. -1.
         22    1    1    2    0    0  0.40532329368E+03  0.12114644677E+03  0.54998767177E+02  0.42660086539E+03  0.00000000000E+00 0.  1.
<mgrwt>
<rscale>  0 0.14222758E+04</rscale>
<asrwt>0</asrwt>
<pdfrwt beam="1">  1        2 0.37584827E+00 0.14222758E+04</pdfrwt>
<pdfrwt beam="2">  1       -2 0.31846990E-01 0.14222758E+04</pdfrwt>
<totfact> 0.33553006E+01</totfact>
</mgrwt>
</event>
<event>
 6    1  0.2238133E-007  0.2526556E+04  0.7818608E-02  0.8393586E-01
         -2   -1    0    0    0  501 -0.00000000000E+00  0.00000000000E+00  0.17032828057E+04  0.17032828057E+04  0.00000000000E+00 0.  1.
          2   -1    0    0  501    0  0.00000000000E+00 -0.00000000000E+00 -0.93693829324E+03  0.93693829324E+03  0.00000000000E+00 0. -1.
         23    2    1    2    0    0  0.44060404112E+03  0.69025201926E+02 -0.84961810694E+03  0.96384656237E+03  0.90845300370E+02 0.  0.
         13    1    3    3    0    0  0.13433760387E+03 -0.13936612284E+02 -0.30442590165E+03  0.33304046386E+03  0.00000000000E+00 0.  1.
        -13    1    3    3    0    0  0.30626643725E+03  0.82961814210E+02 -0.54519220530E+03  0.63080609851E+03  0.00000000000E+00 0. -1.
         22    1    1    2    0    0 -0.44060404112E+03 -0.69025201926E+02  0.16159626193E+04  0.16763745365E+04  0.00000000000E+00 0.  1.
<mgrwt>
<rscale>  0 0.25265557E+04</rscale>
<asrwt>0</asrwt>
<pdfrwt beam="1">  1        2 0.14414435E+00 0.25265557E+04</pdfrwt>
<pdfrwt beam="2">  1       -2 0.26204351E+00 0.25265557E+04</pdfrwt>
<totfact> 0.13360144E+00</totfact>
</mgrwt>
</event>
<event>
 6    1  0.2238133E-007  0.3519783E+04  0.7818608E-02  0.8109118E-01
         -2   -1    0    0    0  501 -0.00000000000E+00  0.00000000000E+00  0.20277407123E+04  0.20277407123E+04  0.00000000000E+00 0.  1.
          2   -1    0    0  501    0  0.00000000000E+00 -0.00000000000E+00 -0.15274228502E+04  0.15274228502E+04  0.00000000000E+00 0. -1.
         23    2    1    2    0    0 -0.11492002584E+01 -0.97669940723E+03 -0.12274612187E+04  0.15704309346E+04  0.75161320717E+02 0.  0.
         11    1    3    3    0    0 -0.27979182402E+02 -0.31440642549E+03 -0.43128467608E+03  0.53445365268E+03  0.00000000000E+00 0.  1.
        -11    1    3    3    0    0  0.26829982144E+02 -0.66229298174E+03 -0.79617654258E+03  0.10359772819E+04  0.00000000000E+00 0. -1.
         22    1    1    2    0    0  0.11492002584E+01  0.97669940723E+03  0.17277790807E+04  0.19847326280E+04  0.00000000000E+00 0.  1.
<mgrwt>
<rscale>  0 0.35197827E+04</rscale>
<asrwt>0</asrwt>
<pdfrwt beam="1">  1        2 0.23498813E+00 0.35197827E+04</pdfrwt>
<pdfrwt beam="2">  1       -2 0.31196011E+00 0.35197827E+04</pdfrwt>
<totfact> 0.26967462E-01</totfact>
</mgrwt>
</event>
<event>
 6    1  0.2238133E-007  0.4930822E+04  0.7818608E-02  0.7839268E-01
         -2   -1    0    0    0  501 -0.00000000000E+00  0.00000000000E+00  0.21215271802E+04  0.21215271802E+04  0.00000000000E+00 0.  1.
          2   -1    0    0  501    0  0.00000000000E+00 -0.00000000000E+00 -0.28650353643E+04  0.28650353643E+04  0.00000000000E+00 0. -1.
         23    2    1    2    0    0  0.54977032096E+02 -0.14228374961E+04  0.16622863703E+04  0.21909702185E+04  0.98313311366E+02 0.  0.
         11    1    3    3    0    0 -0.25943987004E+02 -0.42491549478E+03  0.47283252571E+03  0.63623648554E+03  0.00000000000E+00 0.  1.
        -11    1    3    3    0    0  0.80921019100E+02 -0.99792200135E+03  0.11894538446E+04  0.15547337330E+04  0.00000000000E+00 0. -1.
         22    1    1    2    0    0 -0.54977032096E+02  0.14228374961E+04 -0.24057945544E+04  0.27955923259E+04  0.00000000000E+00 0.  1.
<mgrwt>
<rscale>  0 0.49308216E+04</rscale>
<asrwt>0</asrwt>
<pdfrwt beam="1">  1        2 0.44077467E+00 0.49308216E+04</pdfrwt>
<pdfrwt beam="2">  1       -2 0.32638880E+00 0.49308216E+04</pdfrwt>
<totfact> 0.33768532E-02</totfact>
</mgrwt>
</event>
<event>
 6    1  0.2238133E-007  0.5220519E+04  0.7818608E-02  0.7795362E-01
         -2   -1    0    0    0  501 -0.00000000000E+00  0.00000000000E+00  0.16327221865E+04  0.16327221865E+04  0.00000000000E+00 0.  1.
          2   -1    0    0  501    0  0.00000000000E+00 -0.00000000000E+00 -0.41730650179E+04  0.41730650179E+04  0.00000000000E+00 0. -1.
         23    2    1    2    0    0  0.10172690997E+04 -0.86324786783E+03 -0.37645859261E+04  0.39950402708E+04  0.90588453145E+02 0.  0.
         11    1    3    3    0    0  0.34767719395E+03 -0.23990983526E+03 -0.11822526377E+04  0.12554510981E+04  0.00000000000E+00 0.  1.
        -11    1    3    3    0    0  0.66959190576E+03 -0.62333803257E+03 -0.25823332884E+04  0.27395891728E+04  0.00000000000E+00 0. -1.
         22    1    1    2    0    0 -0.10172690997E+04  0.86324786783E+03  0.12242430947E+04  0.18107469336E+04  0.00000000000E+00 0.  1.
<mgrwt>
<rscale>  0 0.52205195E+04</rscale>
<asrwt>0</asrwt>
<pdfrwt beam="1">  1        2 0.64201001E+00 0.52205195E+04</pdfrwt>
<pdfrwt beam="2">  1       -2 0.25118802E+00 0.52205195E+04</pdfrwt>
<totfact> 0.11020628E-02</totfact>
</mgrwt>
</event>
<event>
 6    1  0.2238133E-007  0.1229623E+04  0.7818608E-02  0.9087315E-01
         -2   -1    0    0    0  501 -0.00000000000E+00  0.00000000000E+00  0.48838831792E+03  0.48838831792E+03  0.00000000000E+00 0.  1.
          2   -1    0    0  501    0  0.00000000000E+00 -0.00000000000E+00 -0.77396051085E+03  0.77396051085E+03  0.00000000000E+00 0. -1.
         23    2    1    2    0    0 -0.33462108387E+03  0.58130620908E+02  0.37870911820E+03  0.51627906047E+03  0.88164807077E+02 0.  0.
         11    1    3    3    0    0 -0.88769718207E+02  0.24466160347E+02  0.51127575292E+02  0.10532181554E+03  0.00000000000E+00 0.  1.
        -11    1    3    3    0    0 -0.24585136567E+03  0.33664460561E+02  0.32758154291E+03  0.41095724493E+03  0.00000000000E+00 0. -1.
         22    1    1    2    0    0  0.33462108387E+03 -0.58130620908E+02 -0.66428131113E+03  0.74606976831E+03  0.00000000000E+00 0. -1.
<mgrwt>
<rscale>  0 0.12296231E+04</rscale>
<asrwt>0</asrwt>
<pdfrwt beam="1">  1        2 0.11907085E+00 0.12296231E+04</pdfrwt>
<pdfrwt beam="2">  1       -2 0.75136665E-01 0.12296231E+04</pdfrwt>
<totfact> 0.56394696E+01</totfact>
</mgrwt>
</event>
<event>
 6    1  0.2238133E-007  0.1034262E+04  0.7818608E-02  0.9271745E-01
         -2   -1    0    0    0  501 -0.00000000000E+00  0.00000000000E+00  0.20176837617E+03  0.20176837617E+03  0.00000000000E+00 0.  1.
          2   -1    0    0  501    0  0.00000000000E+00 -0.00000000000E+00 -0.13254038486E+04  0.13254038486E+04  0.00000000000E+00 0. -1.
         23    2    1    2    0    0 -0.36732356633E+03  0.22606433765E+02 -0.10944832465E+04  0.11580008479E+04  0.87376962581E+02 0.  0.
         11    1    3    3    0    0 -0.15609349631E+03 -0.29886734670E+02 -0.51626509067E+03  0.54017408337E+03  0.00000000000E+00 0. -1.
        -11    1    3    3    0    0 -0.21123007003E+03  0.52493168435E+02 -0.57821815588E+03  0.61782676455E+03  0.00000000000E+00 0.  1.
         22    1    1    2    0    0  0.36732356633E+03 -0.22606433765E+02 -0.29152225919E+02  0.36917137688E+03  0.00000000000E+00 0. -1.
<mgrwt>
<rscale>  0 0.10342622E+04</rscale>
<asrwt>0</asrwt>
<pdfrwt beam="1">  1        2 0.20390829E+00 0.10342622E+04</pdfrwt>
<pdfrwt beam="2">  1       -2 0.31041287E-01 0.10342622E+04</pdfrwt>
<totfact> 0.15298326E+02</totfact>
</mgrwt>
</event>
<event>
 6    1  0.2238133E-007  0.1650955E+04  0.7818608E-02  0.8789842E-01
          2   -1    0    0  501    0  0.00000000000E+00  0.00000000000E+00  0.68193592052E+03  0.68193592052E+03  0.00000000000E+00 0. -1.
         -2   -1    0    0    0  501 -0.00000000000E+00 -0.00000000000E+00 -0.99923342962E+03  0.99923342962E+03  0.00000000000E+00 0.  1.
         23    2    1    2    0    0  0.32397308205E+03 -0.27568123631E+03  0.55792890245E+03  0.70804038981E+03  0.95277654671E+02 0.  0.
         11    1    3    3    0    0  0.27589289635E+03 -0.19408476728E+03  0.39356456205E+03  0.51834240772E+03  0.00000000000E+00 0.  1.
        -11    1    3    3    0    0  0.48080185704E+02 -0.81596469027E+02  0.16436434040E+03  0.18969798209E+03  0.00000000000E+00 0. -1.
         22    1    1    2    0    0 -0.32397308205E+03  0.27568123631E+03 -0.87522641154E+03  0.97312896032E+03  0.00000000000E+00 0.  1.
<mgrwt>
<rscale>  0 0.16509551E+04</rscale>
<asrwt>0</asrwt>
<pdfrwt beam="1">  1        2 0.10491322E+00 0.16509551E+04</pdfrwt>
<pdfrwt beam="2">  1       -2 0.15372822E+00 0.16509551E+04</pdfrwt>
<totfact> 0.11345389E+01</totfact>
</mgrwt>
</event>
<event>
 6    1  0.2238133E-007  0.3357441E+04  0.7818608E-02  0.8148431E-01
         -2   -1    0    0    0  501 -0.00000000000E+00  0.00000000000E+00  0.15971216681E+04  0.15971216681E+04  0.00000000000E+00 0.  1.
          2   -1    0    0  501    0  0.00000000000E+00 -0.00000000000E+00 -0.17644888011E+04  0.17644888011E+04  0.00000000000E+00 0. -1.
         23    2    1    2    0    0 -0.57646440675E+03 -0.45538790646E+03  0.14262170133E+04  0.16068455878E+04  0.90379291372E+02 0.  0.
         13    1    3    3    0    0 -0.36857913753E+03 -0.33116744577E+03  0.10183500202E+04  0.11325013119E+04  0.00000000000E+00 0. -1.
        -13    1    3    3    0    0 -0.20788526922E+03 -0.12422046069E+03  0.40786699311E+03  0.47434427590E+03  0.00000000000E+00 0.  1.
         22    1    1    2    0    0  0.57646440675E+03  0.45538790646E+03 -0.15935841463E+04  0.17547648814E+04  0.00000000000E+00 0. -1.
<mgrwt>
<rscale>  0 0.33574415E+04</rscale>
<asrwt>0</asrwt>
<pdfrwt beam="1">  1        2 0.27145981E+00 0.33574415E+04</pdfrwt>
<pdfrwt beam="2">  1       -2 0.24571103E+00 0.33574415E+04</pdfrwt>
<totfact> 0.51267360E-01</totfact>
</mgrwt>
</event>
<event>
 6    1  0.2238133E-007  0.1909685E+04  0.7818608E-02  0.8650051E-01
          2   -1    0    0  501    0  0.00000000000E+00  0.00000000000E+00  0.51448211887E+03  0.51448211887E+03  0.00000000000E+00 0. -1.
         -2   -1    0    0    0  501 -0.00000000000E+00 -0.00000000000E+00 -0.17721202161E+04  0.17721202161E+04  0.00000000000E+00 0.  1.
         23    2    1    2    0    0 -0.37211969838E+03 -0.48354950397E+03 -0.15062284687E+04  0.16277469901E+04  0.92427652709E+02 0.  0.
         11    1    3    3    0    0 -0.12350686545E+03 -0.96560048042E+02 -0.35847311038E+03  0.39125536361E+03  0.00000000000E+00 0. -1.
        -11    1    3    3    0    0 -0.24861283293E+03 -0.38698945593E+03 -0.11477553583E+04  0.12364916264E+04  0.00000000000E+00 0.  1.
         22    1    1    2    0    0  0.37211969838E+03  0.48354950397E+03  0.24859037149E+03  0.65885534490E+03  0.00000000000E+00 0. -1.
<mgrwt>
<rscale>  0 0.19096850E+04</rscale>
<asrwt>0</asrwt>
<pdfrwt beam="1">  1        2 0.79151095E-01 0.19096850E+04</pdfrwt>
<pdfrwt beam="2">  1       -2 0.27263388E+00 0.19096850E+04</pdfrwt>
<totfact> 0.26043576E+00</totfact>
</mgrwt>
</event>
<event>
 6    1  0.2238133E-007  0.1950616E+04  0.7818608E-02  0.8630064E-01
          2   -1    0    0  501    0  0.00000000000E+00  0.00000000000E+00  0.18470824956E+04  0.18470824956E+04  0.00000000000E+00 0. -1.
         -2   -1    0    0    0  501 -0.00000000000E+00 -0.00000000000E+00 -0.51498825914E+03  0.51498825914E+03  0.00000000000E+00 0.  1.
         23    2    1    2    0    0  0.56350943614E+03 -0.59321547475E+03  0.13054007196E+04  0.15434377308E+04  0.93174598339E+02 0.  0.
         13    1    3    3    0    0  0.32646639231E+02 -0.68605396496E+02  0.98293401730E+02  0.12423403843E+03  0.00000000000E+00 0. -1.
        -13    1    3    3    0    0  0.53086279691E+03 -0.52461007825E+03  0.12071073179E+04  0.14192036923E+04  0.00000000000E+00 0.  1.
         22    1    1    2    0    0 -0.56350943614E+03  0.59321547475E+03  0.26693516800E+02  0.81863302397E+03  0.00000000000E+00 0.  1.
<mgrwt>
<rscale>  0 0.19506161E+04</rscale>
<asrwt>0</asrwt>
<pdfrwt beam="1">  1        2 0.28416653E+00 0.19506161E+04</pdfrwt>
<pdfrwt beam="2">  1       -2 0.79228964E-01 0.19506161E+04</pdfrwt>
<totfact> 0.10705588E+01</totfact>
</mgrwt>
</event>
<event>
 6    1  0.2238133E-007  0.1458566E+04  0.7818608E-02  0.8912483E-01
         -2   -1    0    0    0  501 -0.00000000000E+00  0.00000000000E+00  0.42242910259E+03  0.42242910259E+03  0.00000000000E+00 0.  1.
          2   -1    0    0  501    0  0.00000000000E+00 -0.00000000000E+00 -0.12590366306E+04  0.12590366306E+04  0.00000000000E+00 0. -1.
         23    2    1    2    0    0  0.53331910065E+03 -0.20570927734E+03  0.96969251673E+02  0.58679172991E+03  0.90420841696E+02 0.  0.
         11    1    3    3    0    0  0.40620502946E+03 -0.14656773619E+03  0.11104683085E+03  0.44588790732E+03  0.00000000000E+00 0.  1.
        -11    1    3    3    0    0  0.12711407119E+03 -0.59141541150E+02 -0.14077579178E+02  0.14090382259E+03  0.00000000000E+00 0. -1.
         22    1    1    2    0    0 -0.53331910065E+03  0.20570927734E+03 -0.93357677970E+03  0.10946740033E+04  0.00000000000E+00 0. -1.
<mgrwt>
<rscale>  0 0.14585660E+04</rscale>
<asrwt>0</asrwt>
<pdfrwt beam="1">  1        2 0.19369794E+00 0.14585660E+04</pdfrwt>
<pdfrwt beam="2">  1       -2 0.64989093E-01 0.14585660E+04</pdfrwt>
<totfact> 0.36981357E+01</totfact>
</mgrwt>
</event>
<event>
 6    1  0.2238133E-007  0.2317611E+04  0.7818608E-02  0.8471009E-01
         -2   -1    0    0    0  501 -0.00000000000E+00  0.00000000000E+00  0.11567024950E+04  0.11567024950E+04  0.00000000000E+00 0.  1.
          2   -1    0    0  501    0  0.00000000000E+00 -0.00000000000E+00 -0.11609125597E+04  0.11609125597E+04  0.00000000000E+00 0. -1.
         23    2    1    2    0    0  0.11025919387E+03 -0.60489016591E+03  0.97791649158E+03  0.11588994834E+04  0.93156564442E+02 0.  0.
         11    1    3    3    0    0  0.40682620130E+02 -0.11248177096E+03  0.25239993331E+03  0.27930798541E+03  0.00000000000E+00 0. -1.
        -11    1    3    3    0    0  0.69576573739E+02 -0.49240839495E+03  0.72551655827E+03  0.87959149800E+03  0.00000000000E+00 0.  1.
         22    1    1    2    0    0 -0.11025919387E+03  0.60489016591E+03 -0.98212655623E+03  0.11587155713E+04  0.00000000000E+00 0. -1.
<mgrwt>
<rscale>  0 0.23176112E+04</rscale>
<asrwt>0</asrwt>
<pdfrwt beam="1">  1        2 0.17860193E+00 0.23176112E+04</pdfrwt>
<pdfrwt beam="2">  1       -2 0.17795423E+00 0.23176112E+04</pdfrwt>
<totfact> 0.33913454E+00</totfact>
</mgrwt>
</event>
<event>
 6    1  0.2238133E-007  0.4788783E+04  0.7818608E-02  0.7861942E-01
          2   -1    0    0  501    0  0.00000000000E+00  0.00000000000E+00  0.14959649036E+04  0.14959649036E+04  0.00000000000E+00 0. -1.
         -2   -1    0    0    0  501 -0.00000000000E+00 -0.00000000000E+00 -0.38323831430E+04  0.38323831430E+04  0.00000000000E+00 0.  1.
         23    2    1    2    0    0  0.16196157618E+02  0.21954176903E+04 -0.22293669761E+04  0.31302622604E+04  0.91343061302E+02 0.  0.
         13    1    3    3    0    0 -0.12832432036E+02  0.14966274868E+04 -0.14687042858E+04  0.20969384312E+04  0.00000000000E+00 0. -1.
        -13    1    3    3    0    0  0.29028589654E+02  0.69879020353E+03 -0.76066269031E+03  0.10333238292E+04  0.00000000000E+00 0.  1.
         22    1    1    2    0    0 -0.16196157618E+02 -0.21954176903E+04 -0.10705126340E+03  0.21980857862E+04  0.00000000000E+00 0. -1.
<mgrwt>
<rscale>  0 0.47887830E+04</rscale>
<asrwt>0</asrwt>
<pdfrwt beam="1">  1        2 0.23014845E+00 0.47887830E+04</pdfrwt>
<pdfrwt beam="2">  1       -2 0.58959741E+00 0.47887830E+04</pdfrwt>
<totfact> 0.53270990E-03</totfact>
</mgrwt>
</event>
<event>
 6    1  0.2238133E-007  0.2724068E+04  0.7818608E-02  0.8327238E-01
         -2   -1    0    0    0  501 -0.00000000000E+00  0.00000000000E+00  0.11497427954E+04  0.11497427954E+04  0.00000000000E+00 0.  1.
          2   -1    0    0  501    0  0.00000000000E+00 -0.00000000000E+00 -0.16135235427E+04  0.16135235427E+04  0.00000000000E+00 0. -1.
         23    2    1    2    0    0  0.59430685570E+03 -0.12186947449E+04 -0.11856160708E+03  0.13641259682E+04  0.91461917209E+02 0.  0.
         13    1    3    3    0    0  0.36880373994E+03 -0.82112802816E+03 -0.11127318580E+03  0.90700008771E+03  0.00000000000E+00 0. -1.
        -13    1    3    3    0    0  0.22550311576E+03 -0.39756671678E+03 -0.72884212844E+01  0.45712588046E+03  0.00000000000E+00 0.  1.
         22    1    1    2    0    0 -0.59430685570E+03  0.12186947449E+04 -0.34521914017E+03  0.13991403699E+04  0.00000000000E+00 0.  1.
<mgrwt>
<rscale>  0 0.27240683E+04</rscale>
<asrwt>0</asrwt>
<pdfrwt beam="1">  1        2 0.24823439E+00 0.27240683E+04</pdfrwt>
<pdfrwt beam="2">  1       -2 0.17688351E+00 0.27240683E+04</pdfrwt>
<totfact> 0.18292091E+00</totfact>
</mgrwt>
</event>
<event>
 6    1  0.2238133E-007  0.1558505E+04  0.7818608E-02  0.8846453E-01
         -2   -1    0    0    0  501 -0.00000000000E+00  0.00000000000E+00  0.53593280700E+03  0.53593280700E+03  0.00000000000E+00 0.  1.
          2   -1    0    0  501    0  0.00000000000E+00 -0.00000000000E+00 -0.11330428600E+04  0.11330428600E+04  0.00000000000E+00 0. -1.
         23    2    1    2    0    0  0.55194338193E+03  0.86386936935E+02 -0.87723395095E+03  0.10440167900E+04  0.91254881590E+02 0.  0.
         13    1    3    3    0    0  0.40081043897E+03  0.21429233265E+02 -0.63414892753E+03  0.75050188695E+03  0.00000000000E+00 0.  1.
        -13    1    3    3    0    0  0.15113294296E+03  0.64957703670E+02 -0.24308502342E+03  0.29351490307E+03  0.00000000000E+00 0. -1.
         22    1    1    2    0    0 -0.55194338193E+03 -0.86386936935E+02  0.28012389795E+03  0.62495887699E+03  0.00000000000E+00 0.  1.
<mgrwt>
<rscale>  0 0.15585055E+04</rscale>
<asrwt>0</asrwt>
<pdfrwt beam="1">  1        2 0.17431428E+00 0.15585055E+04</pdfrwt>
<pdfrwt beam="2">  1       -2 0.82451202E-01 0.15585055E+04</pdfrwt>
<totfact> 0.25829014E+01</totfact>
</mgrwt>
</event>
<event>
 6    1  0.2238133E-007  0.1891411E+04  0.7818608E-02  0.8659143E-01
         -2   -1    0    0    0  501 -0.00000000000E+00  0.00000000000E+00  0.91379961475E+03  0.91379961475E+03  0.00000000000E+00 0.  1.
          2   -1    0    0  501    0  0.00000000000E+00 -0.00000000000E+00 -0.97872545477E+03  0.97872545477E+03  0.00000000000E+00 0. -1.
         23    2    1    2    0    0  0.76040041800E+02 -0.59135573794E+03 -0.76425479317E+03  0.97353394798E+03  0.90549777693E+02 0.  0.
         13    1    3    3    0    0  0.53894742696E+02 -0.23183360033E+03 -0.36560852529E+03  0.43625801460E+03  0.00000000000E+00 0. -1.
        -13    1    3    3    0    0  0.22145299105E+02 -0.35952213761E+03 -0.39864626787E+03  0.53727593339E+03  0.00000000000E+00 0.  1.
         22    1    1    2    0    0 -0.76040041800E+02  0.59135573794E+03  0.69932895315E+03  0.91899112154E+03  0.00000000000E+00 0.  1.
<mgrwt>
<rscale>  0 0.18914111E+04</rscale>
<asrwt>0</asrwt>
<pdfrwt beam="1">  1        2 0.15057315E+00 0.18914111E+04</pdfrwt>
<pdfrwt beam="2">  1       -2 0.14058456E+00 0.18914111E+04</pdfrwt>
<totfact> 0.86564961E+00</totfact>
</mgrwt>
</event>
<event>
 6    1  0.2238133E-007  0.1238255E+04  0.7818608E-02  0.9080016E-01
          2   -1    0    0  501    0  0.00000000000E+00  0.00000000000E+00  0.15525374260E+03  0.15525374260E+03  0.00000000000E+00 0. -1.
         -2   -1    0    0    0  501 -0.00000000000E+00 -0.00000000000E+00 -0.24689830764E+04  0.24689830764E+04  0.00000000000E+00 0.  1.
         23    2    1    2    0    0  0.39968807295E+03 -0.36700580892E+03 -0.17802859590E+04  0.18633126089E+04  0.89844104495E+02 0.  0.
         11    1    3    3    0    0  0.28482929076E+03 -0.30833429297E+03 -0.13057551126E+04  0.13715663218E+04  0.00000000000E+00 0. -1.
        -11    1    3    3    0    0  0.11485878220E+03 -0.58671515952E+02 -0.47453084644E+03  0.49174628708E+03  0.00000000000E+00 0.  1.
         22    1    1    2    0    0 -0.39968807295E+03  0.36700580892E+03 -0.53344337476E+03  0.76092421011E+03  0.00000000000E+00 0. -1.
<mgrwt>
<rscale>  0 0.12382550E+04</rscale>
<asrwt>0</asrwt>
<pdfrwt beam="1">  1        2 0.23885192E-01 0.12382550E+04</pdfrwt>
<pdfrwt beam="2">  1       -2 0.37984354E+00 0.12382550E+04</pdfrwt>
<totfact> 0.23212489E+00</totfact>
</mgrwt>
</event>
<event>
 6    1  0.2238133E-007  0.8768751E+03  0.7818608E-02  0.9454959E-01
          1   -1    0    0  501    0  0.00000000000E+00  0.00000000000E+00  0.16780573986E+04  0.16780573986E+04  0.00000000000E+00 0. -1.
         -1   -1    0    0    0  501 -0.00000000000E+00 -0.00000000000E+00 -0.11455358646E+03  0.11455358646E+03  0.00000000000E+00 0.  1.
         23    2    1    2    0    0  0.35706578264E+03  0.23959344325E+03  0.91029460607E+03  0.10105730972E+04  0.87867648978E+02 0.  0.
         11    1    3    3    0    0  0.10970452466E+03  0.61443793814E+02  0.36228390373E+03  0.38348409280E+03  0.00000000000E+00 0.  1.
        -11    1    3    3    0    0  0.24736125798E+03  0.17814964944E+03  0.54801070234E+03  0.62708900439E+03  0.00000000000E+00 0. -1.
         22    1    1    2    0    0 -0.35706578264E+03 -0.23959344325E+03  0.65320920607E+03  0.78203788788E+03  0.00000000000E+00 0. -1.
<mgrwt>
<rscale>  0 0.87687512E+03</rscale>
<asrwt>0</asrwt>
<pdfrwt beam="1">  1        1 0.25816266E+00 0.87687512E+03</pdfrwt>
<pdfrwt beam="2">  1       -1 0.17623630E-01 0.87687512E+03</pdfrwt>
<totfact> 0.12612977E+02</totfact>
</mgrwt>
</event>
<event>
 6    1  0.2238133E-007  0.2501033E+04  0.7818608E-02  0.8402618E-01
         -2   -1    0    0    0  501 -0.00000000000E+00  0.00000000000E+00  0.90411774357E+03  0.90411774357E+03  0.00000000000E+00 0.  1.
          2   -1    0    0  501    0  0.00000000000E+00 -0.00000000000E+00 -0.17296326576E+04  0.17296326576E+04  0.00000000000E+00 0. -1.
         23    2    1    2    0    0 -0.87143161232E+03  0.41593255812E+03 -0.12473644500E+04  0.15800189464E+04  0.90270992916E+02 0.  0.
         11    1    3    3    0    0 -0.39299409392E+03  0.22009311259E+03 -0.63663838301E+03  0.77986778802E+03  0.00000000000E+00 0.  1.
        -11    1    3    3    0    0 -0.47843751840E+03  0.19583944553E+03 -0.61072606696E+03  0.80015115841E+03  0.00000000000E+00 0. -1.
         22    1    1    2    0    0  0.87143161232E+03 -0.41593255812E+03  0.42184953589E+03  0.10537314548E+04  0.00000000000E+00 0.  1.
<mgrwt>
<rscale>  0 0.25010330E+04</rscale>
<asrwt>0</asrwt>
<pdfrwt beam="1">  1        2 0.26609733E+00 0.25010330E+04</pdfrwt>
<pdfrwt beam="2">  1       -2 0.13909504E+00 0.25010330E+04</pdfrwt>
<totfact> 0.30759808E+00</totfact>
</mgrwt>
</event>
<event>
 6    1  0.2238133E-007  0.3207021E+04  0.7818608E-02  0.8186965E-01
         -2   -1    0    0    0  501 -0.00000000000E+00  0.00000000000E+00  0.14471943155E+04  0.14471943155E+04  0.00000000000E+00 0.  1.
          2   -1    0    0  501    0  0.00000000000E+00 -0.00000000000E+00 -0.17767107504E+04  0.17767107504E+04  0.00000000000E+00 0. -1.
         23    2    1    2    0    0 -0.17554251949E+03 -0.47227143366E+03  0.13640113031E+04  0.14570174966E+04  0.92291208669E+02 0.  0.
         11    1    3    3    0    0 -0.12063289921E+03 -0.34976072066E+03  0.87717007178E+03  0.95200430299E+03  0.00000000000E+00 0. -1.
        -11    1    3    3    0    0 -0.54909620276E+02 -0.12251071300E+03  0.48684123132E+03  0.50501319360E+03  0.00000000000E+00 0.  1.
         22    1    1    2    0    0  0.17554251949E+03  0.47227143366E+03 -0.16935277380E+04  0.17668875693E+04  0.00000000000E+00 0. -1.
<mgrwt>
<rscale>  0 0.32070209E+04</rscale>
<asrwt>0</asrwt>
<pdfrwt beam="1">  1        2 0.27334011E+00 0.32070209E+04</pdfrwt>
<pdfrwt beam="2">  1       -2 0.22264528E+00 0.32070209E+04</pdfrwt>
<totfact> 0.71151988E-01</totfact>
</mgrwt>
</event>
<event>
 6    1  0.2238133E-007  0.2704182E+04  0.7818608E-02  0.8333649E-01
          2   -1    0    0  501    0  0.00000000000E+00  0.00000000000E+00  0.13186497058E+04  0.13186497058E+04  0.00000000000E+00 0. -1.
         -2   -1    0    0    0  501 -0.00000000000E+00 -0.00000000000E+00 -0.13863807468E+04  0.13863807468E+04  0.00000000000E+00 0.  1.
         23    2    1    2    0    0 -0.68794803207E+03 -0.36559940110E+03 -0.11374522005E+04  0.13816866667E+04  0.91242093171E+02 0.  0.
         13    1    3    3    0    0 -0.10806839129E+03 -0.31241237127E+02 -0.12727082620E+03  0.16986069379E+03  0.00000000000E+00 0. -1.
        -13    1    3    3    0    0 -0.57987964078E+03 -0.33435816398E+03 -0.10101813743E+04  0.12118259729E+04  0.00000000000E+00 0.  1.
         22    1    1    2    0    0  0.68794803207E+03  0.36559940110E+03  0.10697211595E+04  0.13233437860E+04  0.00000000000E+00 0. -1.
<mgrwt>
<rscale>  0 0.27041824E+04</rscale>
<asrwt>0</asrwt>
<pdfrwt beam="1">  1        2 0.20286919E+00 0.27041824E+04</pdfrwt>
<pdfrwt beam="2">  1       -2 0.21328935E+00 0.27041824E+04</pdfrwt>
<totfact> 0.15422283E+00</totfact>
</mgrwt>
</event>
<event>
 6    1  0.2238133E-007  0.8155599E+03  0.7818608E-02  0.9537764E-01
          2   -1    0    0  501    0  0.00000000000E+00  0.00000000000E+00  0.21939874906E+04  0.21939874906E+04  0.00000000000E+00 0. -1.
         -2   -1    0    0    0  501 -0.00000000000E+00 -0.00000000000E+00 -0.75790994136E+02  0.75790994136E+02  0.00000000000E+00 0.  1.
         23    2    1    2    0    0  0.31641944378E+02 -0.24229864623E+03  0.19632736359E+04  0.19804500566E+04  0.89605862147E+02 0.  0.
         13    1    3    3    0    0  0.54892091847E+01 -0.22297697579E+03  0.15595356116E+04  0.15754047693E+04  0.00000000000E+00 0. -1.
        -13    1    3    3    0    0  0.26152735193E+02 -0.19321670436E+02  0.40373802431E+03  0.40504528732E+03  0.00000000000E+00 0.  1.
         22    1    1    2    0    0 -0.31641944378E+02  0.24229864623E+03  0.15492286051E+03  0.28932842812E+03  0.00000000000E+00 0.  1.
<mgrwt>
<rscale>  0 0.81555991E+03</rscale>
<asrwt>0</asrwt>
<pdfrwt beam="1">  1        2 0.33753649E+00 0.81555991E+03</pdfrwt>
<pdfrwt beam="2">  1       -2 0.11660155E-01 0.81555991E+03</pdfrwt>
<totfact> 0.28417434E+02</totfact>
</mgrwt>
</event>
<event>
 6    1  0.2238133E-007  0.1667348E+04  0.7818608E-02  0.8780210E-01
         -2   -1    0    0    0  501 -0.00000000000E+00  0.00000000000E+00  0.12221205245E+04  0.12221205245E+04  0.00000000000E+00 0.  1.
          2   -1    0    0  501    0  0.00000000000E+00 -0.00000000000E+00 -0.56869343869E+03  0.56869343869E+03  0.00000000000E+00 0. -1.
         23    2    1    2    0    0  0.63959667430E+03  0.71039149712E+02  0.89239042327E+03  0.11043491475E+04  0.95372456582E+02 0.  0.
         11    1    3    3    0    0  0.34781197014E+03  0.35229985042E+02  0.56437997638E+03  0.66388182394E+03  0.00000000000E+00 0. -1.
        -11    1    3    3    0    0  0.29178470416E+03  0.35809164670E+02  0.32801044689E+03  0.44046732357E+03  0.00000000000E+00 0.  1.
         22    1    1    2    0    0 -0.63959667430E+03 -0.71039149712E+02 -0.23896333743E+03  0.68646481571E+03  0.00000000000E+00 0. -1.
<mgrwt>
<rscale>  0 0.16673475E+04</rscale>
<asrwt>0</asrwt>
<pdfrwt beam="1">  1        2 0.87491299E-01 0.16673475E+04</pdfrwt>
<pdfrwt beam="2">  1       -2 0.18801854E+00 0.16673475E+04</pdfrwt>
<totfact> 0.80587610E+00</totfact>
</mgrwt>
</event>
<event>
 6    1  0.2238133E-007  0.1645117E+04  0.7818608E-02  0.8793300E-01
          2   -1    0    0  501    0  0.00000000000E+00  0.00000000000E+00  0.35140426731E+04  0.35140426731E+04  0.00000000000E+00 0. -1.
         -2   -1    0    0    0  501 -0.00000000000E+00 -0.00000000000E+00 -0.19254247725E+03  0.19254247725E+03  0.00000000000E+00 0.  1.
         23    2    1    2    0    0  0.30754317396E+02  0.55926269600E+03  0.31761020773E+03  0.65092226778E+03  0.95409451597E+02 0.  0.
         13    1    3    3    0    0 -0.62783662771E+01  0.17886175302E+03  0.15027958433E+03  0.23369830561E+03  0.00000000000E+00 0. -1.
        -13    1    3    3    0    0  0.37032683673E+02  0.38040094298E+03  0.16733062340E+03  0.41722396217E+03  0.00000000000E+00 0.  1.
         22    1    1    2    0    0 -0.30754317396E+02 -0.55926269600E+03  0.30038899881E+04  0.30556628826E+04  0.00000000000E+00 0. -1.
<mgrwt>
<rscale>  0 0.16451170E+04</rscale>
<asrwt>0</asrwt>
<pdfrwt beam="1">  1        2 0.54062190E+00 0.16451170E+04</pdfrwt>
<pdfrwt beam="2">  1       -2 0.29621922E-01 0.16451170E+04</pdfrwt>
<totfact> 0.80639705E+00</totfact>
</mgrwt>
</event>
<event>
 6    1  0.2238133E-007  0.6275190E+04  0.7818608E-02  0.7657187E-01
          2   -1    0    0  501    0  0.00000000000E+00  0.00000000000E+00  0.46703848780E+04  0.46703848780E+04  0.00000000000E+00 0. -1.
         -2   -1    0    0    0  501 -0.00000000000E+00 -0.00000000000E+00 -0.21078568597E+04  0.21078568597E+04  0.00000000000E+00 0.  1.
         23    2    1    2    0    0  0.85371480639E+03 -0.18840859265E+04  0.38287928208E+04  0.43529509718E+04  0.99593923431E+02 0.  0.
         13    1    3    3    0    0  0.50006334662E+03 -0.10111698316E+04  0.21530848552E+04  0.24306999347E+04  0.00000000000E+00 0.  1.
        -13    1    3    3    0    0  0.35365145977E+03 -0.87291609492E+03  0.16757079655E+04  0.19222510371E+04  0.00000000000E+00 0. -1.
         22    1    1    2    0    0 -0.85371480639E+03  0.18840859265E+04 -0.12662648024E+04  0.24252907659E+04  0.00000000000E+00 0.  1.
<mgrwt>
<rscale>  0 0.62751901E+04</rscale>
<asrwt>0</asrwt>
<pdfrwt beam="1">  1        2 0.71852075E+00 0.62751901E+04</pdfrwt>
<pdfrwt beam="2">  1       -2 0.32428567E+00 0.62751901E+04</pdfrwt>
<totfact> 0.12066315E-03</totfact>
</mgrwt>
</event>
<event>
 6    1  0.2238133E-007  0.1393307E+04  0.7818608E-02  0.8958677E-01
         -2   -1    0    0    0  501 -0.00000000000E+00  0.00000000000E+00  0.10603013101E+04  0.10603013101E+04  0.00000000000E+00 0.  1.
          2   -1    0    0  501    0  0.00000000000E+00 -0.00000000000E+00 -0.45772488530E+03  0.45772488530E+03  0.00000000000E+00 0. -1.
         23    2    1    2    0    0  0.24190788590E+03 -0.37070773813E+03 -0.27935819948E+03  0.53123729503E+03  0.90710570739E+02 0.  0.
         11    1    3    3    0    0  0.41319101592E+02 -0.64181310556E+02 -0.92748546895E+02  0.12011994727E+03  0.00000000000E+00 0.  1.
        -11    1    3    3    0    0  0.20058878430E+03 -0.30652642758E+03 -0.18660965259E+03  0.41111734776E+03  0.00000000000E+00 0. -1.
         22    1    1    2    0    0 -0.24190788590E+03  0.37070773813E+03  0.88193462429E+03  0.98678890037E+03  0.00000000000E+00 0.  1.
<mgrwt>
<rscale>  0 0.13933073E+04</rscale>
<asrwt>0</asrwt>
<pdfrwt beam="1">  1        2 0.70419214E-01 0.13933073E+04</pdfrwt>
<pdfrwt beam="2">  1       -2 0.16312328E+00 0.13933073E+04</pdfrwt>
<totfact> 0.15850356E+01</totfact>
</mgrwt>
</event>
<event>
 6    1  0.2238133E-007  0.7834051E+03  0.7818608E-02  0.9584353E-01
          2   -1    0    0  501    0  0.00000000000E+00  0.00000000000E+00  0.18673040286E+03  0.18673040286E+03  0.00000000000E+00 0. -1.
         -2   -1    0    0    0  501 -0.00000000000E+00 -0.00000000000E+00 -0.82167052980E+03  0.82167052980E+03  0.00000000000E+00 0.  1.
         23    2    1    2    0    0 -0.24878360153E+03  0.34002610380E+02  0.59026926043E+02  0.27040382661E+03  0.81145508456E+02 0.  0.
         13    1    3    3    0    0 -0.11971761520E+03  0.57014469625E+02  0.34680996103E+02  0.13706103979E+03  0.00000000000E+00 0. -1.
        -13    1    3    3    0    0 -0.12906598633E+03 -0.23011859245E+02  0.24345929940E+02  0.13334278682E+03  0.00000000000E+00 0.  1.
         22    1    1    2    0    0  0.24878360153E+03 -0.34002610380E+02 -0.69396705299E+03  0.73799710605E+03  0.00000000000E+00 0.  1.
<mgrwt>
<rscale>  0 0.78340505E+03</rscale>
<asrwt>0</asrwt>
<pdfrwt beam="1">  1        2 0.28727753E-01 0.78340505E+03</pdfrwt>
<pdfrwt beam="2">  1       -2 0.12641085E+00 0.78340505E+03</pdfrwt>
<totfact> 0.87845299E+01</totfact>
</mgrwt>
</event>
<event>
 6    1  0.2238133E-007  0.2030766E+04  0.7818608E-02  0.8592370E-01
         -2   -1    0    0    0  501 -0.00000000000E+00  0.00000000000E+00  0.56350883581E+03  0.56350883581E+03  0.00000000000E+00 0.  1.
          2   -1    0    0  501    0  0.00000000000E+00 -0.00000000000E+00 -0.18296127390E+04  0.18296127390E+04  0.00000000000E+00 0. -1.
         23    2    1    2    0    0  0.20006197052E+03  0.89191683594E+03 -0.11501093633E+04  0.14717122371E+04  0.87435273019E+02 0.  0.
         11    1    3    3    0    0  0.14096308852E+03  0.63314007547E+03 -0.75029239485E+03  0.99180422729E+03  0.00000000000E+00 0. -1.
        -11    1    3    3    0    0  0.59098882000E+02  0.25877676047E+03 -0.39981696847E+03  0.47990800982E+03  0.00000000000E+00 0.  1.
         22    1    1    2    0    0 -0.20006197052E+03 -0.89191683594E+03 -0.11599453983E+03  0.92140933767E+03  0.00000000000E+00 0.  1.
<mgrwt>
<rscale>  0 0.20307663E+04</rscale>
<asrwt>0</asrwt>
<pdfrwt beam="1">  1        2 0.28147888E+00 0.20307663E+04</pdfrwt>
<pdfrwt beam="2">  1       -2 0.86693668E-01 0.20307663E+04</pdfrwt>
<totfact> 0.88680350E+00</totfact>
</mgrwt>
</event>
<event>
 6    1  0.2238133E-007  0.2511866E+04  0.7818608E-02  0.8398770E-01
         -2   -1    0    0    0  501 -0.00000000000E+00  0.00000000000E+00  0.20800290395E+04  0.20800290395E+04  0.00000000000E+00 0.  1.
          2   -1    0    0  501    0  0.00000000000E+00 -0.00000000000E+00 -0.75833916002E+03  0.75833916002E+03  0.00000000000E+00 0. -1.
         23    2    1    2    0    0  0.70254316284E+03 -0.75542423727E+03  0.14678283550E+04  0.17964521147E+04  0.92127340317E+02 0.  0.
         13    1    3    3    0    0  0.37322012413E+03 -0.35068602373E+03  0.78005725436E+03  0.93314697041E+03  0.00000000000E+00 0. -1.
        -13    1    3    3    0    0  0.32932303871E+03 -0.40473821354E+03  0.68777110059E+03  0.86330514428E+03  0.00000000000E+00 0.  1.
         22    1    1    2    0    0 -0.70254316284E+03  0.75542423727E+03 -0.14613847545E+03  0.10419160849E+04  0.00000000000E+00 0. -1.
<mgrwt>
<rscale>  0 0.25118658E+04</rscale>
<asrwt>0</asrwt>
<pdfrwt beam="1">  1        2 0.11666756E+00 0.25118658E+04</pdfrwt>
<pdfrwt beam="2">  1       -2 0.32000446E+00 0.25118658E+04</pdfrwt>
<totfact> 0.78880155E-01</totfact>
</mgrwt>
</event>
<event>
 6    1  0.2238133E-007  0.1555044E+04  0.7818608E-02  0.8848652E-01
          2   -1    0    0  501    0  0.00000000000E+00  0.00000000000E+00  0.19365140309E+04  0.19365140309E+04  0.00000000000E+00 0. -1.
         -2   -1    0    0    0  501 -0.00000000000E+00 -0.00000000000E+00 -0.31217992490E+03  0.31217992490E+03  0.00000000000E+00 0.  1.
         23    2    1    2    0    0  0.47511412104E+03  0.19200804091E+03  0.16555635307E+04  0.17352976247E+04  0.88129032452E+02 0.  0.
         11    1    3    3    0    0  0.29187461135E+03  0.12691301797E+03  0.88204206694E+03  0.93770779602E+03  0.00000000000E+00 0. -1.
        -11    1    3    3    0    0  0.18323950970E+03  0.65095022940E+02  0.77352146373E+03  0.79758982865E+03  0.00000000000E+00 0.  1.
         22    1    1    2    0    0 -0.47511412104E+03 -0.19200804091E+03 -0.31229424711E+02  0.51339633107E+03  0.00000000000E+00 0.  1.
<mgrwt>
<rscale>  0 0.15550444E+04</rscale>
<asrwt>0</asrwt>
<pdfrwt beam="1">  1        2 0.29792523E+00 0.15550444E+04</pdfrwt>
<pdfrwt beam="2">  1       -2 0.48027682E-01 0.15550444E+04</pdfrwt>
<totfact> 0.28644906E+01</totfact>
</mgrwt>
</event>
<event>
 6    1  0.2238133E-007  0.1571466E+04  0.7818608E-02  0.8838272E-01
         -2   -1    0    0    0  501 -0.00000000000E+00  0.00000000000E+00  0.84156820707E+03  0.84156820707E+03  0.00000000000E+00 0.  1.
          2   -1    0    0  501    0  0.00000000000E+00 -0.00000000000E+00 -0.73360239533E+03  0.73360239533E+03  0.00000000000E+00 0. -1.
         23    2    1    2    0    0 -0.30106277846E+03  0.50563806040E+03  0.57238095744E+03  0.82551063131E+03  0.86828550961E+02 0.  0.
         13    1    3    3    0    0 -0.24166909504E+03  0.32833687576E+03  0.40173983020E+03  0.57236696852E+03  0.00000000000E+00 0. -1.
        -13    1    3    3    0    0 -0.59393683423E+02  0.17730118464E+03  0.17064112724E+03  0.25314366279E+03  0.00000000000E+00 0.  1.
         22    1    1    2    0    0  0.30106277846E+03 -0.50563806040E+03 -0.46441514571E+03  0.74965997109E+03  0.00000000000E+00 0. -1.
<mgrwt>
<rscale>  0 0.15714661E+04</rscale>
<asrwt>0</asrwt>
<pdfrwt beam="1">  1        2 0.11286191E+00 0.15714661E+04</pdfrwt>
<pdfrwt beam="2">  1       -2 0.12947203E+00 0.15714661E+04</pdfrwt>
<totfact> 0.16268569E+01</totfact>
</mgrwt>
</event>
<event>
 6    1  0.2238133E-007  0.1884872E+04  0.7818608E-02  0.8662423E-01
          2   -1    0    0  501    0  0.00000000000E+00  0.00000000000E+00  0.28177188050E+04  0.28177188050E+04  0.00000000000E+00 0. -1.
         -2   -1    0    0    0  501 -0.00000000000E+00 -0.00000000000E+00 -0.31521452753E+03  0.31521452753E+03  0.00000000000E+00 0.  1.
         23    2    1    2    0    0  0.44053061749E+03 -0.33823761147E+03  0.25152407268E+04  0.25773848433E+04  0.89469603503E+02 0.  0.
         13    1    3    3    0    0  0.31332650089E+03 -0.21268638830E+03  0.18630176327E+04  0.19011164340E+04  0.00000000000E+00 0. -1.
        -13    1    3    3    0    0  0.12720411660E+03 -0.12555122317E+03  0.65222309415E+03  0.67626840933E+03  0.00000000000E+00 0.  1.
         22    1    1    2    0    0 -0.44053061749E+03  0.33823761147E+03 -0.12736449325E+02  0.55554848924E+03  0.00000000000E+00 0.  1.
<mgrwt>
<rscale>  0 0.18848723E+04</rscale>
<asrwt>0</asrwt>
<pdfrwt beam="1">  1        2 0.43349518E+00 0.18848723E+04</pdfrwt>
<pdfrwt beam="2">  1       -2 0.48494545E-01 0.18848723E+04</pdfrwt>
<totfact> 0.85378998E+00</totfact>
</mgrwt>
</event>
<event>
 6    1  0.2238133E-007  0.1255568E+04  0.7818608E-02  0.9065561E-01
         -1   -1    0    0    0  501 -0.00000000000E+00  0.00000000000E+00  0.12178537937E+04  0.12178537937E+04  0.00000000000E+00 0.  1.
          1   -1    0    0  501    0  0.00000000000E+00 -0.00000000000E+00 -0.32361267569E+03  0.32361267569E+03  0.00000000000E+00 0. -1.
         23    2    1    2    0    0  0.27204780882E+03  0.52634367940E+03  0.20629392085E+03  0.63354630485E+03  0.88181968014E+02 0.  0.
         11    1    3    3    0    0  0.26166943080E+03  0.45909664565E+03  0.16342997986E+03  0.55312745310E+03  0.00000000000E+00 0. -1.
        -11    1    3    3    0    0  0.10378378017E+02  0.67247033750E+02  0.42863940995E+02  0.80418851745E+02  0.00000000000E+00 0.  1.
         22    1    1    2    0    0 -0.27204780882E+03 -0.52634367940E+03  0.68794719721E+03  0.90792016459E+03  0.00000000000E+00 0.  1.
<mgrwt>
<rscale>  0 0.12555683E+04</rscale>
<asrwt>0</asrwt>
<pdfrwt beam="1">  1        1 0.49786566E-01 0.12555683E+04</pdfrwt>
<pdfrwt beam="2">  1       -1 0.18736212E+00 0.12555683E+04</pdfrwt>
<totfact> 0.14433900E+01</totfact>
</mgrwt>
</event>
<event>
 6    1  0.2238133E-007  0.2745749E+04  0.7818608E-02  0.8320312E-01
          2   -1    0    0  501    0  0.00000000000E+00  0.00000000000E+00  0.46849138231E+04  0.46849138231E+04  0.00000000000E+00 0. -1.
         -2   -1    0    0    0  501 -0.00000000000E+00 -0.00000000000E+00 -0.40230931620E+03  0.40230931620E+03  0.00000000000E+00 0.  1.
         23    2    1    2    0    0  0.58621597501E+03 -0.11230074003E+04  0.31164606808E+04  0.33653967213E+04  0.93664968446E+02 0.  0.
         11    1    3    3    0    0  0.51433840997E+03 -0.92689598409E+03  0.26589544080E+04  0.28624672416E+04  0.00000000000E+00 0. -1.
        -11    1    3    3    0    0  0.71877565046E+02 -0.19611141623E+03  0.45750627275E+03  0.50292947969E+03  0.00000000000E+00 0.  1.
         22    1    1    2    0    0 -0.58621597501E+03  0.11230074003E+04  0.11661438261E+04  0.17218264180E+04  0.00000000000E+00 0.  1.
<mgrwt>
<rscale>  0 0.27457491E+04</rscale>
<asrwt>0</asrwt>
<pdfrwt beam="1">  1        2 0.72075593E+00 0.27457491E+04</pdfrwt>
<pdfrwt beam="2">  1       -2 0.61893744E-01 0.27457491E+04</pdfrwt>
<totfact> 0.16924757E-01</totfact>
</mgrwt>
</event>
<event>
 6    1  0.2238133E-007  0.2936371E+03  0.7818608E-02  0.1088465E+00
         -2   -1    0    0    0  501 -0.00000000000E+00  0.00000000000E+00  0.89061396808E+01  0.89061396808E+01  0.00000000000E+00 0.  1.
          2   -1    0    0  501    0  0.00000000000E+00 -0.00000000000E+00 -0.24203173681E+04  0.24203173681E+04  0.00000000000E+00 0. -1.
         23    2    1    2    0    0 -0.13228161967E+02 -0.11496931400E+03 -0.18650519196E+04  0.18707421547E+04  0.88682687463E+02 0.  0.
         13    1    3    3    0    0 -0.42083583689E+02 -0.60250167029E+02 -0.13481564119E+04  0.13501580728E+04  0.00000000000E+00 0. -1.
        -13    1    3    3    0    0  0.28855421723E+02 -0.54719146967E+02 -0.51689550771E+03  0.52058408187E+03  0.00000000000E+00 0.  1.
         22    1    1    2    0    0  0.13228161967E+02  0.11496931400E+03 -0.54635930879E+03  0.55848135308E+03  0.00000000000E+00 0.  1.
<mgrwt>
<rscale>  0 0.29363709E+03</rscale>
<asrwt>0</asrwt>
<pdfrwt beam="1">  1        2 0.37235684E+00 0.29363709E+03</pdfrwt>
<pdfrwt beam="2">  1       -2 0.13701741E-02 0.29363709E+03</pdfrwt>
<totfact> 0.59702633E+03</totfact>
</mgrwt>
</event>
<event>
 6    1  0.2238133E-007  0.1941457E+04  0.7818608E-02  0.8634491E-01
         -2   -1    0    0    0  501 -0.00000000000E+00  0.00000000000E+00  0.22199645383E+03  0.22199645383E+03  0.00000000000E+00 0.  1.
          2   -1    0    0  501    0  0.00000000000E+00 -0.00000000000E+00 -0.42447250075E+04  0.42447250075E+04  0.00000000000E+00 0. -1.
         23    2    1    2    0    0 -0.67023537812E+03 -0.54723479603E+03 -0.10264576972E+04  0.13480165331E+04  0.12186790098E+03 0.  0.
         11    1    3    3    0    0 -0.47064914661E+03 -0.32284841709E+03 -0.62066836728E+03  0.84319092841E+03  0.00000000000E+00 0.  1.
        -11    1    3    3    0    0 -0.19958623151E+03 -0.22438637895E+03 -0.40578932991E+03  0.50482560467E+03  0.00000000000E+00 0. -1.
         22    1    1    2    0    0  0.67023537812E+03  0.54723479603E+03 -0.29962708564E+04  0.31187049282E+04  0.00000000000E+00 0. -1.
<mgrwt>
<rscale>  0 0.19414571E+04</rscale>
<asrwt>0</asrwt>
<pdfrwt beam="1">  1        2 0.65303461E+00 0.19414571E+04</pdfrwt>
<pdfrwt beam="2">  1       -2 0.34153301E-01 0.19414571E+04</pdfrwt>
<totfact> 0.16158873E+00</totfact>
</mgrwt>
</event>
<event>
 6    1  0.2238133E-007  0.3436063E+04  0.7818608E-02  0.8129112E-01
         -1   -1    0    0    0  501 -0.00000000000E+00  0.00000000000E+00  0.10062371189E+04  0.10062371189E+04  0.00000000000E+00 0.  1.
          1   -1    0    0  501    0  0.00000000000E+00 -0.00000000000E+00 -0.29333366258E+04  0.29333366258E+04  0.00000000000E+00 0. -1.
         23    2    1    2    0    0  0.39982690199E+03  0.17644286861E+03 -0.28678372253E+04  0.29022786602E+04  0.87962681834E+02 0.  0.
         13    1    3    3    0    0  0.32715418473E+03  0.10500291081E+03 -0.22550669238E+04  0.22810923485E+04  0.00000000000E+00 0.  1.
        -13    1    3    3    0    0  0.72672717265E+02  0.71439957804E+02 -0.61277030148E+03  0.62118631165E+03  0.00000000000E+00 0. -1.
         22    1    1    2    0    0 -0.39982690199E+03 -0.17644286861E+03  0.94073771840E+03  0.10372950845E+04  0.00000000000E+00 0.  1.
<mgrwt>
<rscale>  0 0.34360630E+04</rscale>
<asrwt>0</asrwt>
<pdfrwt beam="1">  1        1 0.45128255E+00 0.34360630E+04</pdfrwt>
<pdfrwt beam="2">  1       -1 0.15480571E+00 0.34360630E+04</pdfrwt>
<totfact> 0.17542239E-01</totfact>
</mgrwt>
</event>
<event>
 6    1  0.2238133E-007  0.2336462E+04  0.7818608E-02  0.8463682E-01
          1   -1    0    0  501    0  0.00000000000E+00  0.00000000000E+00  0.29323321972E+04  0.29323321972E+04  0.00000000000E+00 0. -1.
         -1   -1    0    0    0  501 -0.00000000000E+00 -0.00000000000E+00 -0.46541933075E+03  0.46541933075E+03  0.00000000000E+00 0.  1.
         23    2    1    2    0    0 -0.16506369414E+03  0.85046937026E+03  0.99470426294E+02  0.87677396353E+03  0.91071645098E+02 0.  0.
         13    1    3    3    0    0 -0.25813616296E+02  0.33240014535E+03  0.61034693763E+02  0.33894163695E+03  0.00000000000E+00 0.  1.
        -13    1    3    3    0    0 -0.13925007785E+03  0.51806922491E+03  0.38435732531E+02  0.53783232658E+03  0.00000000000E+00 0. -1.
         22    1    1    2    0    0  0.16506369414E+03 -0.85046937026E+03  0.23674424402E+04  0.25209775645E+04  0.00000000000E+00 0. -1.
<mgrwt>
<rscale>  0 0.23364624E+04</rscale>
<asrwt>0</asrwt>
<pdfrwt beam="1">  1        1 0.45112802E+00 0.23364624E+04</pdfrwt>
<pdfrwt beam="2">  1       -1 0.71602976E-01 0.23364624E+04</pdfrwt>
<totfact> 0.11881619E+00</totfact>
</mgrwt>
</event>
<event>
 6    1  0.2238133E-007  0.7821384E+03  0.7818608E-02  0.9586237E-01
         -2   -1    0    0    0  501 -0.00000000000E+00  0.00000000000E+00  0.83279198799E+02  0.83279198799E+02  0.00000000000E+00 0.  1.
          2   -1    0    0  501    0  0.00000000000E+00 -0.00000000000E+00 -0.18364143659E+04  0.18364143659E+04  0.00000000000E+00 0. -1.
         23    2    1    2    0    0 -0.17227568041E+03  0.20223904930E+03 -0.15748412294E+04  0.15997431446E+04  0.92052635282E+02 0.  0.
         11    1    3    3    0    0 -0.14025842368E+03  0.16777639498E+03 -0.10346383486E+04  0.10574960314E+04  0.00000000000E+00 0. -1.
        -11    1    3    3    0    0 -0.32017256736E+02  0.34462654324E+02 -0.54020288080E+03  0.54224711313E+03  0.00000000000E+00 0.  1.
         22    1    1    2    0    0  0.17227568041E+03 -0.20223904930E+03 -0.17829393772E+03  0.31995042014E+03  0.00000000000E+00 0.  1.
<mgrwt>
<rscale>  0 0.78213839E+03</rscale>
<asrwt>0</asrwt>
<pdfrwt beam="1">  1        2 0.28252528E+00 0.78213839E+03</pdfrwt>
<pdfrwt beam="2">  1       -2 0.12812185E-01 0.78213839E+03</pdfrwt>
<totfact> 0.38252721E+02</totfact>
</mgrwt>
</event>
<event>
 6    1  0.2238133E-007  0.2960135E+04  0.7818608E-02  0.8255207E-01
         -2   -1    0    0    0  501 -0.00000000000E+00  0.00000000000E+00  0.13646174140E+04  0.13646174140E+04  0.00000000000E+00 0.  1.
          2   -1    0    0  501    0  0.00000000000E+00 -0.00000000000E+00 -0.16052852912E+04  0.16052852912E+04  0.00000000000E+00 0. -1.
         23    2    1    2    0    0  0.36781848297E+03  0.14236124032E+03  0.13092830797E+04  0.13705574867E+04  0.92997216956E+02 0.  0.
         13    1    3    3    0    0  0.25790468036E+03  0.11624454536E+03  0.78988301623E+03  0.83901299025E+03  0.00000000000E+00 0.  1.
        -13    1    3    3    0    0  0.10991380261E+03  0.26116694958E+02  0.51940006347E+03  0.53154449644E+03  0.00000000000E+00 0. -1.
         22    1    1    2    0    0 -0.36781848297E+03 -0.14236124032E+03 -0.15499509570E+04  0.15993452186E+04  0.00000000000E+00 0. -1.
<mgrwt>
<rscale>  0 0.29601353E+04</rscale>
<asrwt>0</asrwt>
<pdfrwt beam="1">  1        2 0.24696697E+00 0.29601353E+04</pdfrwt>
<pdfrwt beam="2">  1       -2 0.20994114E+00 0.29601353E+04</pdfrwt>
<totfact> 0.10903237E+00</totfact>
</mgrwt>
</event>
<event>
 6    1  0.2238133E-007  0.3327709E+04  0.7818608E-02  0.8155881E-01
          2   -1    0    0  501    0  0.00000000000E+00  0.00000000000E+00  0.22241595148E+04  0.22241595148E+04  0.00000000000E+00 0. -1.
         -2   -1    0    0    0  501 -0.00000000000E+00 -0.00000000000E+00 -0.12446999354E+04  0.12446999354E+04  0.00000000000E+00 0.  1.
         23    2    1    2    0    0  0.16226931194E+04 -0.12443552467E+03  0.13278577473E+03  0.16343367082E+04  0.69334364372E+02 0.  0.
         13    1    3    3    0    0  0.14326370053E+04 -0.12523733950E+03  0.13343596262E+03  0.14442777906E+04  0.00000000000E+00 0. -1.
        -13    1    3    3    0    0  0.19005611410E+03  0.80181482712E+00 -0.65018789422E+00  0.19005891760E+03  0.00000000000E+00 0.  1.
         22    1    1    2    0    0 -0.16226931194E+04  0.12443552467E+03  0.84667380462E+03  0.18345227420E+04  0.00000000000E+00 0.  1.
<mgrwt>
<rscale>  0 0.33277086E+04</rscale>
<asrwt>0</asrwt>
<pdfrwt beam="1">  1        2 0.34217839E+00 0.33277086E+04</pdfrwt>
<pdfrwt beam="2">  1       -2 0.19149230E+00 0.33277086E+04</pdfrwt>
<totfact> 0.63169300E-01</totfact>
</mgrwt>
</event>
<event>
 6    1  0.2238133E-007  0.2779435E+04  0.7818608E-02  0.8309682E-01
         -2   -1    0    0    0  501 -0.00000000000E+00  0.00000000000E+00  0.10845722631E+04  0.10845722631E+04  0.00000000000E+00 0.  1.
          2   -1    0    0  501    0  0.00000000000E+00 -0.00000000000E+00 -0.17807149466E+04  0.17807149466E+04  0.00000000000E+00 0. -1.
         23    2    1    2    0    0 -0.16567282252E+03  0.13337112733E+04 -0.70703032498E+03  0.15212813371E+04  0.90397905825E+02 0.  0.
         11    1    3    3    0    0  0.88569602309E+01  0.16348282949E+03 -0.79799415844E+02  0.18213464265E+03  0.00000000000E+00 0. -1.
        -11    1    3    3    0    0 -0.17452978275E+03  0.11702284438E+04 -0.62723090914E+03  0.13391466944E+04  0.00000000000E+00 0.  1.
         22    1    1    2    0    0  0.16567282252E+03 -0.13337112733E+04  0.10887641504E+02  0.13440058726E+04  0.00000000000E+00 0.  1.
<mgrwt>
<rscale>  0 0.27794345E+04</rscale>
<asrwt>0</asrwt>
<pdfrwt beam="1">  1        2 0.27395614E+00 0.27794345E+04</pdfrwt>
<pdfrwt beam="2">  1       -2 0.16685727E+00 0.27794345E+04</pdfrwt>
<totfact> 0.17306505E+00</totfact>
</mgrwt>
</event>
<event>
 6    1  0.2238133E-007  0.3243825E+04  0.7818608E-02  0.8177338E-01
          2   -1    0    0  501    0  0.00000000000E+00  0.00000000000E+00  0.22340073284E+04  0.22340073284E+04  0.00000000000E+00 0. -1.
         -2   -1    0    0    0  501 -0.00000000000E+00 -0.00000000000E+00 -0.11775253072E+04  0.11775253072E+04  0.00000000000E+00 0.  1.
         23    2    1    2    0    0 -0.10777392337E+04 -0.11986383615E+04  0.70531405942E+03  0.17618130490E+04  0.90892903158E+02 0.  0.
         11    1    3    3    0    0 -0.83756015600E+03 -0.87603572142E+03  0.51536283240E+03  0.13170210511E+04  0.00000000000E+00 0.  1.
        -11    1    3    3    0    0 -0.24017907766E+03 -0.32260264005E+03  0.18995122702E+03  0.44479199785E+03  0.00000000000E+00 0. -1.
         22    1    1    2    0    0  0.10777392337E+04  0.11986383615E+04  0.35116796178E+03  0.16497195867E+04  0.00000000000E+00 0. -1.
<mgrwt>
<rscale>  0 0.32438250E+04</rscale>
<asrwt>0</asrwt>
<pdfrwt beam="1">  1        2 0.34369343E+00 0.32438250E+04</pdfrwt>
<pdfrwt beam="2">  1       -2 0.18115774E+00 0.32438250E+04</pdfrwt>
<totfact> 0.73798438E-01</totfact>
</mgrwt>
</event>
<event>
 6    1  0.2238133E-007  0.3568735E+04  0.7818608E-02  0.8097691E-01
          2   -1    0    0  501    0  0.00000000000E+00  0.00000000000E+00  0.33688304140E+04  0.33688304140E+04  0.00000000000E+00 0. -1.
         -2   -1    0    0    0  501 -0.00000000000E+00 -0.00000000000E+00 -0.94512559873E+03  0.94512559873E+03  0.00000000000E+00 0.  1.
         23    2    1    2    0    0 -0.16552933677E+03  0.12596897803E+04  0.27251781741E+04  0.30081595163E+04  0.90605138598E+02 0.  0.
         11    1    3    3    0    0 -0.10681838111E+03  0.61892963786E+03  0.14349690881E+04  0.15664036347E+04  0.00000000000E+00 0. -1.
        -11    1    3    3    0    0 -0.58710955657E+02  0.64076014241E+03  0.12902090860E+04  0.14417558816E+04  0.00000000000E+00 0.  1.
         22    1    1    2    0    0  0.16552933677E+03 -0.12596897803E+04 -0.30147335887E+03  0.13057964964E+04  0.00000000000E+00 0.  1.
<mgrwt>
<rscale>  0 0.35687353E+04</rscale>
<asrwt>0</asrwt>
<pdfrwt beam="1">  1        2 0.51828160E+00 0.35687353E+04</pdfrwt>
<pdfrwt beam="2">  1       -2 0.14540394E+00 0.35687353E+04</pdfrwt>
<totfact> 0.26573970E-01</totfact>
</mgrwt>
</event>
<event>
 6    1  0.2238133E-007  0.1136950E+04  0.7818608E-02  0.9169908E-01
         -2   -1    0    0    0  501 -0.00000000000E+00  0.00000000000E+00  0.99172555956E+02  0.99172555956E+02  0.00000000000E+00 0.  1.
          2   -1    0    0  501    0  0.00000000000E+00 -0.00000000000E+00 -0.32585993659E+04  0.32585993659E+04  0.00000000000E+00 0. -1.
         23    2    1    2    0    0  0.10768737588E+03  0.49469042803E+03 -0.85033376620E+03  0.99382905555E+03  0.91178326383E+02 0.  0.
         13    1    3    3    0    0  0.53961731086E+02  0.38876308713E+03 -0.69654787948E+03  0.79951707595E+03  0.00000000000E+00 0. -1.
        -13    1    3    3    0    0  0.53725644794E+02  0.10592734090E+03 -0.15378588672E+03  0.19431197959E+03  0.00000000000E+00 0.  1.
         22    1    1    2    0    0 -0.10768737588E+03 -0.49469042803E+03 -0.23090930438E+04  0.23639428663E+04  0.00000000000E+00 0. -1.
<mgrwt>
<rscale>  0 0.11369497E+04</rscale>
<asrwt>0</asrwt>
<pdfrwt beam="1">  1        2 0.50132285E+00 0.11369497E+04</pdfrwt>
<pdfrwt beam="2">  1       -2 0.15257320E-01 0.11369497E+04</pdfrwt>
<totfact> 0.41045036E+01</totfact>
</mgrwt>
</event>
<event>
 6    1  0.2238133E-007  0.3360202E+04  0.7818608E-02  0.8147744E-01
         -2   -1    0    0    0  501 -0.00000000000E+00  0.00000000000E+00  0.13513249712E+04  0.13513249712E+04  0.00000000000E+00 0.  1.
          2   -1    0    0  501    0  0.00000000000E+00 -0.00000000000E+00 -0.20888681756E+04  0.20888681756E+04  0.00000000000E+00 0. -1.
         23    2    1    2    0    0 -0.12297887862E+04  0.36518563842E+03 -0.14782918851E+04  0.19588256646E+04  0.76877030704E+02 0.  0.
         11    1    3    3    0    0 -0.63446269677E+03  0.15132046304E+03 -0.72819547092E+03  0.97760392797E+03  0.00000000000E+00 0.  1.
        -11    1    3    3    0    0 -0.59532608944E+03  0.21386517538E+03 -0.75009641413E+03  0.98122173667E+03  0.00000000000E+00 0. -1.
         22    1    1    2    0    0  0.12297887862E+04 -0.36518563842E+03  0.74074868062E+03  0.14813674821E+04  0.00000000000E+00 0.  1.
<mgrwt>
<rscale>  0 0.33602022E+04</rscale>
<asrwt>0</asrwt>
<pdfrwt beam="1">  1        2 0.32136433E+00 0.33602022E+04</pdfrwt>
<pdfrwt beam="2">  1       -2 0.20789615E+00 0.33602022E+04</pdfrwt>
<totfact> 0.58531838E-01</totfact>
</mgrwt>
</event>
<event>
 6    1  0.2238133E-007  0.1971267E+04  0.7818608E-02  0.8620173E-01
         -2   -1    0    0    0  501 -0.00000000000E+00  0.00000000000E+00  0.60048273595E+03  0.60048273595E+03  0.00000000000E+00 0.  1.
          2   -1    0    0  501    0  0.00000000000E+00 -0.00000000000E+00 -0.16178212094E+04  0.16178212094E+04  0.00000000000E+00 0. -1.
         23    2    1    2    0    0 -0.18012787322E+03 -0.16673186829E+03 -0.15815071398E+04  0.16030545239E+04  0.91506319900E+02 0.  0.
         11    1    3    3    0    0 -0.12595409033E+03 -0.55265881424E+02 -0.78366540271E+03  0.79564452736E+03  0.00000000000E+00 0.  1.
        -11    1    3    3    0    0 -0.54173782886E+02 -0.11146598687E+03 -0.79784173711E+03  0.80740999651E+03  0.00000000000E+00 0. -1.
         22    1    1    2    0    0  0.18012787322E+03  0.16673186829E+03  0.56416866633E+03  0.61524942152E+03  0.00000000000E+00 0.  1.
<mgrwt>
<rscale>  0 0.19712673E+04</rscale>
<asrwt>0</asrwt>
<pdfrwt beam="1">  1        2 0.24889557E+00 0.19712673E+04</pdfrwt>
<pdfrwt beam="2">  1       -2 0.92381959E-01 0.19712673E+04</pdfrwt>
<totfact> 0.10096160E+01</totfact>
</mgrwt>
</event>
<event>
 6    1  0.2238133E-007  0.2371583E+04  0.7818608E-02  0.8450220E-01
          2   -1    0    0  501    0  0.00000000000E+00  0.00000000000E+00  0.28482885620E+04  0.28482885620E+04  0.00000000000E+00 0. -1.
         -2   -1    0    0    0  501 -0.00000000000E+00 -0.00000000000E+00 -0.49366541045E+03  0.49366541045E+03  0.00000000000E+00 0.  1.
         23    2    1    2    0    0  0.97114221399E+03  0.15960467786E+03  0.25110598898E+03  0.10195898093E+04  0.88984878380E+02 0.  0.
         11    1    3    3    0    0  0.23923471492E+03  0.16480747044E+02  0.93261303316E+02  0.25729853195E+03  0.00000000000E+00 0. -1.
        -11    1    3    3    0    0  0.73190749907E+03  0.14312393081E+03  0.15784468566E+03  0.76229127737E+03  0.00000000000E+00 0.  1.
         22    1    1    2    0    0 -0.97114221399E+03 -0.15960467786E+03  0.21035171626E+04  0.23223641631E+04  0.00000000000E+00 0. -1.
<mgrwt>
<rscale>  0 0.23715831E+04</rscale>
<asrwt>0</asrwt>
<pdfrwt beam="1">  1        2 0.43819823E+00 0.23715831E+04</pdfrwt>
<pdfrwt beam="2">  1       -2 0.75948526E-01 0.23715831E+04</pdfrwt>
<totfact> 0.30257031E+00</totfact>
</mgrwt>
</event>
<event>
 6    1  0.2238133E-007  0.3731914E+04  0.7818608E-02  0.8060926E-01
          2   -1    0    0  501    0  0.00000000000E+00  0.00000000000E+00  0.15048700085E+04  0.15048700085E+04  0.00000000000E+00 0. -1.
         -2   -1    0    0    0  501 -0.00000000000E+00 -0.00000000000E+00 -0.23136857974E+04  0.23136857974E+04  0.00000000000E+00 0.  1.
         23    2    1    2    0    0 -0.40372566123E+03 -0.50744585562E+03  0.13853527404E+04  0.15305717062E+04  0.54330713752E+02 0.  0.
         11    1    3    3    0    0 -0.30630536479E+03 -0.41786953918E+03  0.11210741991E+04  0.12350082138E+04  0.00000000000E+00 0. -1.
        -11    1    3    3    0    0 -0.97420296443E+02 -0.89576316436E+02  0.26427854134E+03  0.29556349240E+03  0.00000000000E+00 0.  1.
         22    1    1    2    0    0  0.40372566123E+03  0.50744585562E+03 -0.21941685293E+04  0.22879840998E+04  0.00000000000E+00 0.  1.
<mgrwt>
<rscale>  0 0.37319145E+04</rscale>
<asrwt>0</asrwt>
<pdfrwt beam="1">  1        2 0.23151847E+00 0.37319145E+04</pdfrwt>
<pdfrwt beam="2">  1       -2 0.35595166E+00 0.37319145E+04</pdfrwt>
<totfact> 0.14503998E-01</totfact>
</mgrwt>
</event>
<event>
 6    1  0.2238133E-007  0.2597341E+04  0.7818608E-02  0.8369105E-01
          2   -1    0    0  501    0  0.00000000000E+00  0.00000000000E+00  0.13978387339E+04  0.13978387339E+04  0.00000000000E+00 0. -1.
         -2   -1    0    0    0  501 -0.00000000000E+00 -0.00000000000E+00 -0.12065378318E+04  0.12065378318E+04  0.00000000000E+00 0.  1.
         23    2    1    2    0    0 -0.49841386013E+03 -0.81687166555E+03 -0.78299885849E+03  0.12387427505E+04  0.75502950620E+02 0.  0.
         13    1    3    3    0    0 -0.41715743325E+02 -0.11459362090E+03 -0.90647828965E+02  0.15195041983E+03  0.00000000000E+00 0. -1.
        -13    1    3    3    0    0 -0.45669811681E+03 -0.70227804465E+03 -0.69235102953E+03  0.10867923307E+04  0.00000000000E+00 0.  1.
         22    1    1    2    0    0  0.49841386013E+03  0.81687166555E+03  0.97429976060E+03  0.13656338153E+04  0.00000000000E+00 0. -1.
<mgrwt>
<rscale>  0 0.25973412E+04</rscale>
<asrwt>0</asrwt>
<pdfrwt beam="1">  1        2 0.21505211E+00 0.25973412E+04</pdfrwt>
<pdfrwt beam="2">  1       -2 0.18562120E+00 0.25973412E+04</pdfrwt>
<totfact> 0.21306711E+00</totfact>
</mgrwt>
</event>
<event>
 6    1  0.2238133E-007  0.4361590E+04  0.7818608E-02  0.7935327E-01
         -2   -1    0    0    0  501 -0.00000000000E+00  0.00000000000E+00  0.17034836103E+04  0.17034836103E+04  0.00000000000E+00 0.  1.
          2   -1    0    0  501    0  0.00000000000E+00 -0.00000000000E+00 -0.27918481302E+04  0.27918481302E+04  0.00000000000E+00 0. -1.
         23    2    1    2    0    0 -0.16046843187E+04 -0.81904585755E+03 -0.18092822056E+04  0.25548240263E+04  0.88180644183E+02 0.  0.
         11    1    3    3    0    0 -0.82987836665E+03 -0.37487137365E+03 -0.92456180820E+03  0.12977061252E+04  0.00000000000E+00 0. -1.
        -11    1    3    3    0    0 -0.77480595207E+03 -0.44417448390E+03 -0.88472039744E+03  0.12571179011E+04  0.00000000000E+00 0.  1.
         22    1    1    2    0    0  0.16046843187E+04  0.81904585755E+03  0.72091768570E+03  0.19405077143E+04  0.00000000000E+00 0.  1.
<mgrwt>
<rscale>  0 0.43615903E+04</rscale>
<asrwt>0</asrwt>
<pdfrwt beam="1">  1        2 0.42951509E+00 0.43615903E+04</pdfrwt>
<pdfrwt beam="2">  1       -2 0.26207441E+00 0.43615903E+04</pdfrwt>
<totfact> 0.97082449E-02</totfact>
</mgrwt>
</event>
<event>
 6    1  0.2238133E-007  0.1417096E+04  0.7818608E-02  0.8941536E-01
          2   -1    0    0  501    0  0.00000000000E+00  0.00000000000E+00  0.23178966517E+04  0.23178966517E+04  0.00000000000E+00 0. -1.
         -2   -1    0    0    0  501 -0.00000000000E+00 -0.00000000000E+00 -0.21659296284E+03  0.21659296284E+03  0.00000000000E+00 0.  1.
         23    2    1    2    0    0 -0.69801811124E+03  0.80455760907E+02  0.11714366880E+04  0.13690047144E+04  0.90595701028E+02 0.  0.
         11    1    3    3    0    0 -0.13091746689E+03  0.10453168357E+02  0.15681333068E+03  0.20454601571E+03  0.00000000000E+00 0. -1.
        -11    1    3    3    0    0 -0.56710064435E+03  0.70002592550E+02  0.10146233573E+04  0.11644586987E+04  0.00000000000E+00 0.  1.
         22    1    1    2    0    0  0.69801811124E+03 -0.80455760907E+02  0.92986700085E+03  0.11654849001E+04  0.00000000000E+00 0. -1.
<mgrwt>
<rscale>  0 0.14170958E+04</rscale>
<asrwt>0</asrwt>
<pdfrwt beam="1">  1        2 0.35659947E+00 0.14170958E+04</pdfrwt>
<pdfrwt beam="2">  1       -2 0.33321996E-01 0.14170958E+04</pdfrwt>
<totfact> 0.36300387E+01</totfact>
</mgrwt>
</event>
<event>
 6    1  0.2238133E-007  0.4513624E+03  0.7818608E-02  0.1027317E+00
         -2   -1    0    0    0  501 -0.00000000000E+00  0.00000000000E+00  0.15787046538E+03  0.15787046538E+03  0.00000000000E+00 0.  1.
          2   -1    0    0  501    0  0.00000000000E+00 -0.00000000000E+00 -0.32261890320E+03  0.32261890320E+03  0.00000000000E+00 0. -1.
         23    2    1    2    0    0  0.18171135355E+03 -0.33545147444E+01  0.38383200803E+02  0.20792243848E+03  0.93424844345E+02 0.  0.
         11    1    3    3    0    0  0.11517631079E+03  0.14759899630E+02  0.66088437192E+02  0.13360807885E+03  0.00000000000E+00 0.  1.
        -11    1    3    3    0    0  0.66535042765E+02 -0.18114414374E+02 -0.27705236389E+02  0.74314359630E+02  0.00000000000E+00 0. -1.
         22    1    1    2    0    0 -0.18171135355E+03  0.33545147444E+01 -0.20313163862E+03  0.27256693011E+03  0.00000000000E+00 0.  1.
<mgrwt>
<rscale>  0 0.45136237E+03</rscale>
<asrwt>0</asrwt>
<pdfrwt beam="1">  1        2 0.49633677E-01 0.45136237E+03</pdfrwt>
<pdfrwt beam="2">  1       -2 0.24287764E-01 0.45136237E+03</pdfrwt>
<totfact> 0.15220052E+03</totfact>
</mgrwt>
</event>
<event>
 6    1  0.2238133E-007  0.1908109E+04  0.7818608E-02  0.8650831E-01
          2   -1    0    0  501    0  0.00000000000E+00  0.00000000000E+00  0.26799807309E+04  0.26799807309E+04  0.00000000000E+00 0. -1.
         -2   -1    0    0    0  501 -0.00000000000E+00 -0.00000000000E+00 -0.33963664514E+03  0.33963664514E+03  0.00000000000E+00 0.  1.
         23    2    1    2    0    0  0.63203621498E+03  0.66335866319E+03  0.15811157202E+04  0.18296836786E+04  0.91109550603E+02 0.  0.
         13    1    3    3    0    0  0.19265041229E+03  0.25818781362E+03  0.59378277675E+03  0.67553912871E+03  0.00000000000E+00 0.  1.
        -13    1    3    3    0    0  0.43938580269E+03  0.40517084957E+03  0.98733294342E+03  0.11541445499E+04  0.00000000000E+00 0. -1.
         22    1    1    2    0    0 -0.63203621498E+03 -0.66335866319E+03  0.75922836554E+03  0.11899336974E+04  0.00000000000E+00 0.  1.
<mgrwt>
<rscale>  0 0.19081087E+04</rscale>
<asrwt>0</asrwt>
<pdfrwt beam="1">  1        2 0.41230471E+00 0.19081087E+04</pdfrwt>
<pdfrwt beam="2">  1       -2 0.52251793E-01 0.19081087E+04</pdfrwt>
<totfact> 0.88444334E+00</totfact>
</mgrwt>
</event>
<event>
 6    1  0.2971779E-007  0.2674858E+04  0.7818608E-02  0.8343209E-01
         -2   -1    0    0    0  501 -0.00000000000E+00  0.00000000000E+00  0.71189157574E+03  0.71189157574E+03  0.00000000000E+00 0.  1.
          2   -1    0    0  501    0  0.00000000000E+00 -0.00000000000E+00 -0.25126253174E+04  0.25126253174E+04  0.00000000000E+00 0. -1.
         23    2    1    2    0    0  0.28090990498E+03  0.10278520047E+04  0.70072461281E+02  0.10715408210E+04  0.88878923596E+02 0.  0.
         11    1    3    3    0    0  0.15936832230E+03  0.48370123944E+03  0.69363927151E+02  0.51398103620E+03  0.00000000000E+00 0. -1.
        -11    1    3    3    0    0  0.12154158267E+03  0.54415076522E+03  0.70853412992E+00  0.55755978481E+03  0.00000000000E+00 0.  1.
         22    1    1    2    0    0 -0.28090990498E+03 -0.10278520047E+04 -0.18708062029E+04  0.21529760721E+04  0.00000000000E+00 0. -1.
<mgrwt>
<rscale>  0 0.26748583E+04</rscale>
<asrwt>0</asrwt>
<pdfrwt beam="1">  1        2 0.38655774E+00 0.26748583E+04</pdfrwt>
<pdfrwt beam="2">  1       -2 0.10952178E+00 0.26748583E+04</pdfrwt>
<totfact> 0.19974963E+00</totfact>
</mgrwt>
</event>
<event>
 6    1  0.2238133E-007  0.5438901E+03  0.7818608E-02  0.1002918E+00
         -2   -1    0    0    0  501 -0.00000000000E+00  0.00000000000E+00  0.19001664250E+03  0.19001664250E+03  0.00000000000E+00 0.  1.
          2   -1    0    0  501    0  0.00000000000E+00 -0.00000000000E+00 -0.38919799966E+03  0.38919799966E+03  0.00000000000E+00 0. -1.
         23    2    1    2    0    0 -0.10367130679E+03 -0.17587476576E+03  0.75780002137E+02  0.23674796905E+03  0.92883362574E+02 0.  0.
         11    1    3    3    0    0 -0.44263807149E+02 -0.70197423561E+01  0.21436587759E+02  0.49679862125E+02  0.00000000000E+00 0. -1.
        -11    1    3    3    0    0 -0.59407499641E+02 -0.16885502340E+03  0.54343414378E+02  0.18706810693E+03  0.00000000000E+00 0.  1.
         22    1    1    2    0    0  0.10367130679E+03  0.17587476576E+03 -0.27496135930E+03  0.34246667311E+03  0.00000000000E+00 0. -1.
<mgrwt>
<rscale>  0 0.54389005E+03</rscale>
<asrwt>0</asrwt>
<pdfrwt beam="1">  1        2 0.59876615E-01 0.54389005E+03</pdfrwt>
<pdfrwt beam="2">  1       -2 0.29233330E-01 0.54389005E+03</pdfrwt>
<totfact> 0.88537264E+02</totfact>
</mgrwt>
</event>
<event>
 6    1  0.2238133E-007  0.5321826E+03  0.7818608E-02  0.1005704E+00
         -2   -1    0    0    0  501 -0.00000000000E+00  0.00000000000E+00  0.52816602857E+02  0.52816602857E+02  0.00000000000E+00 0.  1.
          2   -1    0    0  501    0  0.00000000000E+00 -0.00000000000E+00 -0.13405742479E+04  0.13405742479E+04  0.00000000000E+00 0. -1.
         23    2    1    2    0    0 -0.22655368749E+02  0.23162119774E+03 -0.94026764826E+03  0.97516729470E+03  0.11263373082E+03 0.  0.
         13    1    3    3    0    0  0.39675370270E+02  0.70691046770E+02 -0.21846642927E+03  0.23302132910E+03  0.00000000000E+00 0.  1.
        -13    1    3    3    0    0 -0.62330739020E+02  0.16093015097E+03 -0.72180121900E+03  0.74214596561E+03  0.00000000000E+00 0. -1.
         22    1    1    2    0    0  0.22655368749E+02 -0.23162119774E+03 -0.34748999677E+03  0.41822355604E+03  0.00000000000E+00 0.  1.
<mgrwt>
<rscale>  0 0.53218259E+03</rscale>
<asrwt>0</asrwt>
<pdfrwt beam="1">  1        2 0.20624217E+00 0.53218259E+03</pdfrwt>
<pdfrwt beam="2">  1       -2 0.81256321E-02 0.53218259E+03</pdfrwt>
<totfact> 0.15255556E+03</totfact>
</mgrwt>
</event>
<event>
 6    1  0.2238133E-007  0.3550746E+04  0.7818608E-02  0.8101868E-01
          2   -1    0    0  501    0  0.00000000000E+00  0.00000000000E+00  0.13849832768E+04  0.13849832768E+04  0.00000000000E+00 0. -1.
         -2   -1    0    0    0  501 -0.00000000000E+00 -0.00000000000E+00 -0.22758029935E+04  0.22758029935E+04  0.00000000000E+00 0.  1.
         23    2    1    2    0    0 -0.25180581823E+03 -0.17589635541E+03 -0.22472875714E+04  0.22699768876E+04  0.90265960435E+02 0.  0.
         13    1    3    3    0    0 -0.11080507737E+03 -0.13045848481E+03 -0.11222408495E+04  0.11352187920E+04  0.00000000000E+00 0. -1.
        -13    1    3    3    0    0 -0.14100074086E+03 -0.45437870597E+02 -0.11250467219E+04  0.11347580956E+04  0.00000000000E+00 0.  1.
         22    1    1    2    0    0  0.25180581823E+03  0.17589635541E+03  0.13564678547E+04  0.13908093826E+04  0.00000000000E+00 0. -1.
<mgrwt>
<rscale>  0 0.35507459E+04</rscale>
<asrwt>0</asrwt>
<pdfrwt beam="1">  1        2 0.21307435E+00 0.35507459E+04</pdfrwt>
<pdfrwt beam="2">  1       -2 0.35012353E+00 0.35507459E+04</pdfrwt>
<totfact> 0.18750848E-01</totfact>
</mgrwt>
</event>
<event>
 6    1  0.2238133E-007  0.2138720E+04  0.7818608E-02  0.8544376E-01
         -2   -1    0    0    0  501 -0.00000000000E+00  0.00000000000E+00  0.14946842790E+04  0.14946842790E+04  0.00000000000E+00 0.  1.
          2   -1    0    0  501    0  0.00000000000E+00 -0.00000000000E+00 -0.76506539472E+03  0.76506539472E+03  0.00000000000E+00 0. -1.
         23    2    1    2    0    0  0.77595728454E+03  0.66751981466E+03  0.45482060363E+02  0.10285975287E+04  0.90839681760E+02 0.  0.
         13    1    3    3    0    0  0.65604611228E+03  0.55872023596E+03  0.71181762736E+02  0.86465695328E+03  0.00000000000E+00 0.  1.
        -13    1    3    3    0    0  0.11991117226E+03  0.10879957870E+03 -0.25699702373E+02  0.16394057539E+03  0.00000000000E+00 0. -1.
         22    1    1    2    0    0 -0.77595728454E+03 -0.66751981466E+03  0.68413682392E+03  0.12311521450E+04  0.00000000000E+00 0. -1.
<mgrwt>
<rscale>  0 0.21387204E+04</rscale>
<asrwt>0</asrwt>
<pdfrwt beam="1">  1        2 0.11770237E+00 0.21387204E+04</pdfrwt>
<pdfrwt beam="2">  1       -2 0.22995143E+00 0.21387204E+04</pdfrwt>
<totfact> 0.28708447E+00</totfact>
</mgrwt>
</event>
<event>
 6    1  0.2238133E-007  0.1397640E+04  0.7818608E-02  0.8955528E-01
         -2   -1    0    0    0  501 -0.00000000000E+00  0.00000000000E+00  0.35812036082E+03  0.35812036082E+03  0.00000000000E+00 0.  1.
          2   -1    0    0  501    0  0.00000000000E+00 -0.00000000000E+00 -0.13636463868E+04  0.13636463868E+04  0.00000000000E+00 0. -1.
         23    2    1    2    0    0  0.21375489788E+03  0.35528777160E+03  0.18352642874E+03  0.46249461774E+03  0.91097554199E+02 0.  0.
         13    1    3    3    0    0  0.78546227341E+02  0.20203361206E+03  0.65290169273E+02  0.22638439971E+03  0.00000000000E+00 0.  1.
        -13    1    3    3    0    0  0.13520867053E+03  0.15325415955E+03  0.11823625947E+03  0.23611021803E+03  0.00000000000E+00 0. -1.
         22    1    1    2    0    0 -0.21375489788E+03 -0.35528777160E+03 -0.11890524547E+04  0.12592721299E+04  0.00000000000E+00 0. -1.
<mgrwt>
<rscale>  0 0.13976402E+04</rscale>
<asrwt>0</asrwt>
<pdfrwt beam="1">  1        2 0.20979175E+00 0.13976402E+04</pdfrwt>
<pdfrwt beam="2">  1       -2 0.55095441E-01 0.13976402E+04</pdfrwt>
<totfact> 0.45781392E+01</totfact>
</mgrwt>
</event>
<event>
 6    1  0.2238133E-007  0.6465617E+03  0.7818608E-02  0.9813252E-01
         -2   -1    0    0    0  501 -0.00000000000E+00  0.00000000000E+00  0.66397124415E+02  0.66397124415E+02  0.00000000000E+00 0.  1.
          2   -1    0    0  501    0  0.00000000000E+00 -0.00000000000E+00 -0.15740218264E+04  0.15740218264E+04  0.00000000000E+00 0. -1.
         23    2    1    2    0    0  0.31669578609E+03 -0.38440338796E+01 -0.77621722582E+03  0.84338200455E+03  0.92027313411E+02 0.  0.
         11    1    3    3    0    0  0.24232441916E+03 -0.29398921643E+01 -0.67917050234E+03  0.72111187643E+03  0.00000000000E+00 0. -1.
        -11    1    3    3    0    0  0.74371366924E+02 -0.90414171530E+00 -0.97046723484E+02  0.12227012812E+03  0.00000000000E+00 0.  1.
         22    1    1    2    0    0 -0.31669578609E+03  0.38440338796E+01 -0.73140747616E+03  0.79703694626E+03  0.00000000000E+00 0. -1.
<mgrwt>
<rscale>  0 0.64656175E+03</rscale>
<asrwt>0</asrwt>
<pdfrwt beam="1">  1        2 0.24215720E+00 0.64656175E+03</pdfrwt>
<pdfrwt beam="2">  1       -2 0.10214943E-01 0.64656175E+03</pdfrwt>
<totfact> 0.77912707E+02</totfact>
</mgrwt>
</event>
<event>
 6    1  0.2238133E-007  0.3657805E+04  0.7818608E-02  0.8077378E-01
          1   -1    0    0  501    0  0.00000000000E+00  0.00000000000E+00  0.29379255061E+04  0.29379255061E+04  0.00000000000E+00 0. -1.
         -1   -1    0    0    0  501 -0.00000000000E+00 -0.00000000000E+00 -0.11385191124E+04  0.11385191124E+04  0.00000000000E+00 0.  1.
         23    2    1    2    0    0 -0.11982628788E+04  0.13379529957E+04  0.12779483345E+04  0.22061851036E+04  0.90269709375E+02 0.  0.
         11    1    3    3    0    0 -0.53048636566E+03  0.57010249813E+03  0.60597466461E+03  0.98673093429E+03  0.00000000000E+00 0. -1.
        -11    1    3    3    0    0 -0.66777651312E+03  0.76785049755E+03  0.67197366992E+03  0.12194541693E+04  0.00000000000E+00 0.  1.
         22    1    1    2    0    0  0.11982628788E+04 -0.13379529957E+04  0.52145805921E+03  0.18702595148E+04  0.00000000000E+00 0.  1.
<mgrwt>
<rscale>  0 0.36578050E+04</rscale>
<asrwt>0</asrwt>
<pdfrwt beam="1">  1        1 0.45198854E+00 0.36578050E+04</pdfrwt>
<pdfrwt beam="2">  1       -1 0.17515679E+00 0.36578050E+04</pdfrwt>
<totfact> 0.12040033E-01</totfact>
</mgrwt>
</event>
<event>
 6    1  0.2238133E-007  0.1923247E+04  0.7818608E-02  0.8643370E-01
         -2   -1    0    0    0  501 -0.00000000000E+00  0.00000000000E+00  0.38244579584E+03  0.38244579584E+03  0.00000000000E+00 0.  1.
          2   -1    0    0  501    0  0.00000000000E+00 -0.00000000000E+00 -0.24179117540E+04  0.24179117540E+04  0.00000000000E+00 0. -1.
         23    2    1    2    0    0 -0.82069224439E+02  0.17112857235E+03 -0.23893311033E+04  0.23988094371E+04  0.96763879642E+02 0.  0.
         11    1    3    3    0    0  0.77802128322E+01  0.87789037323E+02 -0.82840971474E+03  0.83308469092E+03  0.00000000000E+00 0.  1.
        -11    1    3    3    0    0 -0.89849437271E+02  0.83339535028E+02 -0.15609213885E+04  0.15657247461E+04  0.00000000000E+00 0. -1.
         22    1    1    2    0    0  0.82069224439E+02 -0.17112857235E+03  0.35386514517E+03  0.40154811273E+03  0.00000000000E+00 0.  1.
<mgrwt>
<rscale>  0 0.19232474E+04</rscale>
<asrwt>0</asrwt>
<pdfrwt beam="1">  1        2 0.37198642E+00 0.19232474E+04</pdfrwt>
<pdfrwt beam="2">  1       -2 0.58837815E-01 0.19232474E+04</pdfrwt>
<totfact> 0.98018980E+00</totfact>
</mgrwt>
</event>
<event>
 6    1  0.2238133E-007  0.4149899E+04  0.7818608E-02  0.7974971E-01
          1   -1    0    0  501    0  0.00000000000E+00  0.00000000000E+00  0.28473905072E+04  0.28473905072E+04  0.00000000000E+00 0. -1.
         -1   -1    0    0    0  501 -0.00000000000E+00 -0.00000000000E+00 -0.15120564999E+04  0.15120564999E+04  0.00000000000E+00 0.  1.
         23    2    1    2    0    0  0.38027565114E+03 -0.16425095662E+04  0.19367478856E+04  0.25694341861E+04  0.92479286314E+02 0.  0.
         11    1    3    3    0    0  0.64255737543E+02 -0.21919850120E+03  0.30794090456E+03  0.38341150665E+03  0.00000000000E+00 0.  1.
        -11    1    3    3    0    0  0.31601991360E+03 -0.14233110650E+04  0.16288069811E+04  0.21860226795E+04  0.00000000000E+00 0. -1.
         22    1    1    2    0    0 -0.38027565114E+03  0.16425095662E+04 -0.60141387833E+03  0.17900128209E+04  0.00000000000E+00 0.  1.
<mgrwt>
<rscale>  0 0.41498990E+04</rscale>
<asrwt>0</asrwt>
<pdfrwt beam="1">  1        1 0.43806008E+00 0.41498990E+04</pdfrwt>
<pdfrwt beam="2">  1       -1 0.23262408E+00 0.41498990E+04</pdfrwt>
<totfact> 0.54031591E-02</totfact>
</mgrwt>
</event>
<event>
 6    1  0.2238133E-007  0.3151219E+04  0.7818608E-02  0.8201820E-01
          2   -1    0    0  501    0  0.00000000000E+00  0.00000000000E+00  0.29881078832E+04  0.29881078832E+04  0.00000000000E+00 0. -1.
         -2   -1    0    0    0  501 -0.00000000000E+00 -0.00000000000E+00 -0.83080826322E+03  0.83080826322E+03  0.00000000000E+00 0.  1.
         23    2    1    2    0    0  0.83546888012E+03  0.10010647844E+04  0.21487879988E+04  0.25149945998E+04  0.88142051642E+02 0.  0.
         13    1    3    3    0    0  0.35157664296E+03  0.37632278492E+03  0.78674692337E+03  0.94031680606E+03  0.00000000000E+00 0.  1.
        -13    1    3    3    0    0  0.48389223716E+03  0.62474199944E+03  0.13620410754E+04  0.15746777937E+04  0.00000000000E+00 0. -1.
         22    1    1    2    0    0 -0.83546888012E+03 -0.10010647844E+04  0.85116212608E+01  0.13039215467E+04  0.00000000000E+00 0.  1.
<mgrwt>
<rscale>  0 0.31512186E+04</rscale>
<asrwt>0</asrwt>
<pdfrwt beam="1">  1        2 0.45970890E+00 0.31512186E+04</pdfrwt>
<pdfrwt beam="2">  1       -2 0.12781666E+00 0.31512186E+04</pdfrwt>
<totfact> 0.67839077E-01</totfact>
</mgrwt>
</event>
<event>
 6    1  0.2238133E-007  0.1507252E+04  0.7818608E-02  0.8879644E-01
          2   -1    0    0  501    0  0.00000000000E+00  0.00000000000E+00  0.93881209203E+03  0.93881209203E+03  0.00000000000E+00 0. -1.
         -2   -1    0    0    0  501 -0.00000000000E+00 -0.00000000000E+00 -0.60496921013E+03  0.60496921013E+03  0.00000000000E+00 0.  1.
         23    2    1    2    0    0 -0.57816085649E+03 -0.47558087137E+03  0.22689284281E+03  0.78755021840E+03  0.91147370777E+02 0.  0.
         13    1    3    3    0    0 -0.39897511807E+03 -0.35842639793E+03  0.19710219255E+03  0.57140169922E+03  0.00000000000E+00 0. -1.
        -13    1    3    3    0    0 -0.17918573842E+03 -0.11715447344E+03  0.29790650268E+02  0.21614851918E+03  0.00000000000E+00 0.  1.
         22    1    1    2    0    0  0.57816085649E+03  0.47558087137E+03  0.10695003908E+03  0.75623108376E+03  0.00000000000E+00 0. -1.
<mgrwt>
<rscale>  0 0.15072523E+04</rscale>
<asrwt>0</asrwt>
<pdfrwt beam="1">  1        2 0.14443263E+00 0.15072523E+04</pdfrwt>
<pdfrwt beam="2">  1       -2 0.93072186E-01 0.15072523E+04</pdfrwt>
<totfact> 0.26079561E+01</totfact>
</mgrwt>
</event>
<event>
 6    1  0.2238133E-007  0.2112898E+04  0.7818608E-02  0.8555583E-01
         -2   -1    0    0    0  501 -0.00000000000E+00  0.00000000000E+00  0.77383595003E+03  0.77383595003E+03  0.00000000000E+00 0.  1.
          2   -1    0    0  501    0  0.00000000000E+00 -0.00000000000E+00 -0.14422753538E+04  0.14422753538E+04  0.00000000000E+00 0. -1.
         23    2    1    2    0    0 -0.39471424824E+03 -0.31694275985E+03  0.63528212659E+03  0.81756138355E+03  0.92580692968E+02 0.  0.
         11    1    3    3    0    0 -0.21930441194E+03 -0.20090943859E+03  0.30505695371E+03  0.42605019964E+03  0.00000000000E+00 0.  1.
        -11    1    3    3    0    0 -0.17540983631E+03 -0.11603332126E+03  0.33022517289E+03  0.39151118391E+03  0.00000000000E+00 0. -1.
         22    1    1    2    0    0  0.39471424824E+03  0.31694275985E+03 -0.13037215304E+04  0.13985499203E+04  0.00000000000E+00 0. -1.
<mgrwt>
<rscale>  0 0.21128980E+04</rscale>
<asrwt>0</asrwt>
<pdfrwt beam="1">  1        2 0.22188852E+00 0.21128980E+04</pdfrwt>
<pdfrwt beam="2">  1       -2 0.11905168E+00 0.21128980E+04</pdfrwt>
<totfact> 0.68255377E+00</totfact>
</mgrwt>
</event>
<event>
 6    1  0.2238133E-007  0.2324813E+04  0.7818608E-02  0.8468202E-01
         -2   -1    0    0    0  501 -0.00000000000E+00  0.00000000000E+00  0.12406081860E+04  0.12406081860E+04  0.00000000000E+00 0.  1.
          2   -1    0    0  501    0  0.00000000000E+00 -0.00000000000E+00 -0.10891338462E+04  0.10891338462E+04  0.00000000000E+00 0. -1.
         23    2    1    2    0    0 -0.10721149520E+04  0.23562317868E+02 -0.36897526663E+03  0.11377464593E+04  0.91315964049E+02 0.  0.
         13    1    3    3    0    0 -0.58293043814E+03 -0.13648471289E+02 -0.23942475210E+03  0.63033196682E+03  0.00000000000E+00 0.  1.
        -13    1    3    3    0    0 -0.48918451381E+03  0.37210789157E+02 -0.12955051453E+03  0.50741449250E+03  0.00000000000E+00 0. -1.
         22    1    1    2    0    0  0.10721149520E+04 -0.23562317868E+02  0.52044960648E+03  0.11919955729E+04  0.00000000000E+00 0.  1.
<mgrwt>
<rscale>  0 0.23248126E+04</rscale>
<asrwt>0</asrwt>
<pdfrwt beam="1">  1        2 0.16755905E+00 0.23248126E+04</pdfrwt>
<pdfrwt beam="2">  1       -2 0.19086280E+00 0.23248126E+04</pdfrwt>
<totfact> 0.30615719E+00</totfact>
</mgrwt>
</event>
<event>
 6    1  0.2238133E-007  0.3846983E+04  0.7818608E-02  0.8036147E-01
          2   -1    0    0  501    0  0.00000000000E+00  0.00000000000E+00  0.16266400753E+04  0.16266400753E+04  0.00000000000E+00 0. -1.
         -2   -1    0    0    0  501 -0.00000000000E+00 -0.00000000000E+00 -0.22745168783E+04  0.22745168783E+04  0.00000000000E+00 0.  1.
         23    2    1    2    0    0  0.65406116519E+03 -0.55738819521E+03  0.14197326981E+04  0.16620752987E+04  0.91519159720E+02 0.  0.
         11    1    3    3    0    0  0.19905288316E+03 -0.14716561418E+03  0.48403824839E+03  0.54366606864E+03  0.00000000000E+00 0. -1.
        -11    1    3    3    0    0  0.45500828203E+03 -0.41022258103E+03  0.93569444970E+03  0.11184092301E+04  0.00000000000E+00 0.  1.
         22    1    1    2    0    0 -0.65406116519E+03  0.55738819521E+03 -0.20676095011E+04  0.22390816548E+04  0.00000000000E+00 0.  1.
<mgrwt>
<rscale>  0 0.38469834E+04</rscale>
<asrwt>0</asrwt>
<pdfrwt beam="1">  1        2 0.25025232E+00 0.38469834E+04</pdfrwt>
<pdfrwt beam="2">  1       -2 0.34992567E+00 0.38469834E+04</pdfrwt>
<totfact> 0.13400929E-01</totfact>
</mgrwt>
</event>
<event>
 6    1  0.2238133E-007  0.8566175E+03  0.7818608E-02  0.9481498E-01
         -2   -1    0    0    0  501 -0.00000000000E+00  0.00000000000E+00  0.22941929177E+03  0.22941929177E+03  0.00000000000E+00 0.  1.
          2   -1    0    0  501    0  0.00000000000E+00 -0.00000000000E+00 -0.79962064916E+03  0.79962064916E+03  0.00000000000E+00 0. -1.
         23    2    1    2    0    0  0.13469838923E+03 -0.34953474042E+03 -0.52602967600E+03  0.65185387510E+03  0.88814771414E+02 0.  0.
         13    1    3    3    0    0  0.98785520483E+01 -0.14509222480E+03 -0.19611469705E+03  0.24415223507E+03  0.00000000000E+00 0.  1.
        -13    1    3    3    0    0  0.12481983718E+03 -0.20444251562E+03 -0.32991497895E+03  0.40770164003E+03  0.00000000000E+00 0. -1.
         22    1    1    2    0    0 -0.13469838923E+03  0.34953474042E+03 -0.44171681388E+02  0.37718606583E+03  0.00000000000E+00 0.  1.
<mgrwt>
<rscale>  0 0.85661754E+03</rscale>
<asrwt>0</asrwt>
<pdfrwt beam="1">  1        2 0.12301856E+00 0.85661754E+03</pdfrwt>
<pdfrwt beam="2">  1       -2 0.35295276E-01 0.85661754E+03</pdfrwt>
<totfact> 0.26070387E+02</totfact>
</mgrwt>
</event>
<event>
 6    1  0.2238133E-007  0.1129293E+04  0.7818608E-02  0.9177102E-01
         -2   -1    0    0    0  501 -0.00000000000E+00  0.00000000000E+00  0.14898996595E+03  0.14898996595E+03  0.00000000000E+00 0.  1.
          2   -1    0    0  501    0  0.00000000000E+00 -0.00000000000E+00 -0.21399150507E+04  0.21399150507E+04  0.00000000000E+00 0. -1.
         23    2    1    2    0    0  0.26458875629E+03  0.18710950622E+03 -0.19300448997E+04  0.19591724368E+04  0.90918342274E+02 0.  0.
         13    1    3    3    0    0  0.14304849078E+03  0.60679764790E+02 -0.10896720939E+04  0.11006953151E+04  0.00000000000E+00 0. -1.
        -13    1    3    3    0    0  0.12154026551E+03  0.12642974143E+03 -0.84037280585E+03  0.85847712169E+03  0.00000000000E+00 0.  1.
         22    1    1    2    0    0 -0.26458875629E+03 -0.18710950622E+03 -0.60880185017E+02  0.32973257983E+03  0.00000000000E+00 0.  1.
<mgrwt>
<rscale>  0 0.11292934E+04</rscale>
<asrwt>0</asrwt>
<pdfrwt beam="1">  1        2 0.32921768E+00 0.11292934E+04</pdfrwt>
<pdfrwt beam="2">  1       -2 0.22921535E-01 0.11292934E+04</pdfrwt>
<totfact> 0.93113783E+01</totfact>
</mgrwt>
</event>
<event>
 6    1  0.2579544E-007  0.3855045E+04  0.7818608E-02  0.8034444E-01
          2   -1    0    0  501    0  0.00000000000E+00  0.00000000000E+00  0.19070629867E+04  0.19070629867E+04  0.00000000000E+00 0. -1.
         -2   -1    0    0    0  501 -0.00000000000E+00 -0.00000000000E+00 -0.19482017585E+04  0.19482017585E+04  0.00000000000E+00 0.  1.
         23    2    1    2    0    0 -0.67889906546E+03  0.14592320425E+03 -0.18176270229E+04  0.19478822380E+04  0.90992835003E+02 0.  0.
         11    1    3    3    0    0 -0.30034160797E+03  0.10907746647E+03 -0.86506980489E+03  0.92219777841E+03  0.00000000000E+00 0. -1.
        -11    1    3    3    0    0 -0.37855745749E+03  0.36845737783E+02 -0.95255721803E+03  0.10256844596E+04  0.00000000000E+00 0.  1.
         22    1    1    2    0    0  0.67889906546E+03 -0.14592320425E+03  0.17764882511E+04  0.19073825072E+04  0.00000000000E+00 0. -1.
<mgrwt>
<rscale>  0 0.38550452E+04</rscale>
<asrwt>0</asrwt>
<pdfrwt beam="1">  1        2 0.29339430E+00 0.38550452E+04</pdfrwt>
<pdfrwt beam="2">  1       -2 0.29972335E+00 0.38550452E+04</pdfrwt>
<totfact> 0.19165942E-01</totfact>
</mgrwt>
</event>
<event>
 6    1  0.2238133E-007  0.3658709E+04  0.7818608E-02  0.8077175E-01
          2   -1    0    0  501    0  0.00000000000E+00  0.00000000000E+00  0.38102100531E+04  0.38102100531E+04  0.00000000000E+00 0. -1.
         -2   -1    0    0    0  501 -0.00000000000E+00 -0.00000000000E+00 -0.87830784614E+03  0.87830784614E+03  0.00000000000E+00 0.  1.
         23    2    1    2    0    0  0.10199335672E+04  0.34285715026E+03  0.33609221447E+04  0.35301252136E+04  0.90392775095E+02 0.  0.
         13    1    3    3    0    0  0.96668205631E+03  0.30223634473E+03  0.31548617447E+04  0.33134534302E+04  0.00000000000E+00 0. -1.
        -13    1    3    3    0    0  0.53251510927E+02  0.40620805535E+02  0.20606040006E+03  0.21667178342E+03  0.00000000000E+00 0.  1.
         22    1    1    2    0    0 -0.10199335672E+04 -0.34285715026E+03 -0.42901993779E+03  0.11583926856E+04  0.00000000000E+00 0.  1.
<mgrwt>
<rscale>  0 0.36587087E+04</rscale>
<asrwt>0</asrwt>
<pdfrwt beam="1">  1        2 0.58618615E+00 0.36587087E+04</pdfrwt>
<pdfrwt beam="2">  1       -2 0.13512429E+00 0.36587087E+04</pdfrwt>
<totfact> 0.15362219E-01</totfact>
</mgrwt>
</event>
<event>
 6    1  0.2238133E-007  0.1731288E+04  0.7818608E-02  0.8743718E-01
          2   -1    0    0  501    0  0.00000000000E+00  0.00000000000E+00  0.27527972453E+04  0.27527972453E+04  0.00000000000E+00 0. -1.
         -2   -1    0    0    0  501 -0.00000000000E+00 -0.00000000000E+00 -0.27221009581E+03  0.27221009581E+03  0.00000000000E+00 0.  1.
         23    2    1    2    0    0  0.32543722388E+03 -0.45704258546E+03  0.23900692041E+04  0.24566845367E+04  0.89837634652E+02 0.  0.
         13    1    3    3    0    0  0.28834527151E+03 -0.34952288855E+03  0.18387852689E+04  0.18937899858E+04  0.00000000000E+00 0.  1.
        -13    1    3    3    0    0  0.37091952374E+02 -0.10751969691E+03  0.55128393524E+03  0.56289455088E+03  0.00000000000E+00 0. -1.
         22    1    1    2    0    0 -0.32543722388E+03  0.45704258546E+03  0.90517945357E+02  0.56832280444E+03  0.00000000000E+00 0.  1.
<mgrwt>
<rscale>  0 0.17312876E+04</rscale>
<asrwt>0</asrwt>
<pdfrwt beam="1">  1        2 0.42350725E+00 0.17312876E+04</pdfrwt>
<pdfrwt beam="2">  1       -2 0.41878478E-01 0.17312876E+04</pdfrwt>
<totfact> 0.12699749E+01</totfact>
</mgrwt>
</event>
<event>
 6    1  0.2238133E-007  0.2692236E+04  0.7818608E-02  0.8337528E-01
          2   -1    0    0  501    0  0.00000000000E+00  0.00000000000E+00  0.21168940547E+04  0.21168940547E+04  0.00000000000E+00 0. -1.
         -2   -1    0    0    0  501 -0.00000000000E+00 -0.00000000000E+00 -0.85598704537E+03  0.85598704537E+03  0.00000000000E+00 0.  1.
         23    2    1    2    0    0  0.58630174075E+03 -0.19117135572E+03  0.19503861878E+04  0.20478525838E+04  0.96941759704E+02 0.  0.
         11    1    3    3    0    0  0.31765165497E+03 -0.11005394504E+03  0.12180131933E+04  0.12635547412E+04  0.00000000000E+00 0. -1.
        -11    1    3    3    0    0  0.26865008578E+03 -0.81117410683E+02  0.73237299447E+03  0.78429784262E+03  0.00000000000E+00 0.  1.
         22    1    1    2    0    0 -0.58630174075E+03  0.19117135572E+03 -0.68947917847E+03  0.92502851632E+03  0.00000000000E+00 0.  1.
<mgrwt>
<rscale>  0 0.26922362E+04</rscale>
<asrwt>0</asrwt>
<pdfrwt beam="1">  1        2 0.32567601E+00 0.26922362E+04</pdfrwt>
<pdfrwt beam="2">  1       -2 0.13169032E+00 0.26922362E+04</pdfrwt>
<totfact> 0.21212026E+00</totfact>
</mgrwt>
</event>
<event>
 6    1  0.2238133E-007  0.4292490E+04  0.7818608E-02  0.7948008E-01
          2   -1    0    0  501    0  0.00000000000E+00  0.00000000000E+00  0.17485545207E+04  0.17485545207E+04  0.00000000000E+00 0. -1.
         -2   -1    0    0    0  501 -0.00000000000E+00 -0.00000000000E+00 -0.26343864356E+04  0.26343864356E+04  0.00000000000E+00 0.  1.
         23    2    1    2    0    0 -0.13817015491E+04 -0.14743107383E+04 -0.11788716227E+04  0.23412349064E+04  0.94611099316E+02 0.  0.
         13    1    3    3    0    0 -0.84194383961E+03 -0.84158108221E+03 -0.66422964659E+03  0.13632054762E+04  0.00000000000E+00 0.  1.
        -13    1    3    3    0    0 -0.53975770950E+03 -0.63272965612E+03 -0.51464197609E+03  0.97802943015E+03  0.00000000000E+00 0. -1.
         22    1    1    2    0    0  0.13817015491E+04  0.14743107383E+04  0.29303970777E+03  0.20417060499E+04  0.00000000000E+00 0. -1.
<mgrwt>
<rscale>  0 0.42924903E+04</rscale>
<asrwt>0</asrwt>
<pdfrwt beam="1">  1        2 0.26900839E+00 0.42924903E+04</pdfrwt>
<pdfrwt beam="2">  1       -2 0.40529022E+00 0.42924903E+04</pdfrwt>
<totfact> 0.48655734E-02</totfact>
</mgrwt>
</event>
<event>
 6    1  0.2238133E-007  0.1974139E+04  0.7818608E-02  0.8618808E-01
          2   -1    0    0  501    0  0.00000000000E+00  0.00000000000E+00  0.23388231361E+04  0.23388231361E+04  0.00000000000E+00 0. -1.
         -2   -1    0    0    0  501 -0.00000000000E+00 -0.00000000000E+00 -0.41657962761E+03  0.41657962761E+03  0.00000000000E+00 0.  1.
         23    2    1    2    0    0 -0.29756626393E+02  0.37575654918E+03  0.22333206922E+04  0.22666825418E+04  0.89721737812E+02 0.  0.
         11    1    3    3    0    0 -0.54899398536E+00  0.26244281896E+03  0.13147101110E+04  0.13406488021E+04  0.00000000000E+00 0.  1.
        -11    1    3    3    0    0 -0.29207632407E+02  0.11331373022E+03  0.91861058123E+03  0.92603373978E+03  0.00000000000E+00 0. -1.
         22    1    1    2    0    0  0.29756626393E+02 -0.37575654918E+03 -0.31107718369E+03  0.48872022188E+03  0.00000000000E+00 0.  1.
<mgrwt>
<rscale>  0 0.19741389E+04</rscale>
<asrwt>0</asrwt>
<pdfrwt beam="1">  1        2 0.35981894E+00 0.19741389E+04</pdfrwt>
<pdfrwt beam="2">  1       -2 0.64089175E-01 0.19741389E+04</pdfrwt>
<totfact> 0.90298649E+00</totfact>
</mgrwt>
</event>
<event>
 6    1  0.2238133E-007  0.1740375E+04  0.7818608E-02  0.8738666E-01
         -1   -1    0    0    0  501 -0.00000000000E+00  0.00000000000E+00  0.39806330561E+03  0.39806330561E+03  0.00000000000E+00 0.  1.
          1   -1    0    0  501    0  0.00000000000E+00 -0.00000000000E+00 -0.19022765837E+04  0.19022765837E+04  0.00000000000E+00 0. -1.
         23    2    1    2    0    0 -0.71491447324E+03  0.12024851111E+02 -0.14040837715E+04  0.15783473553E+04  0.92096881016E+02 0.  0.
         11    1    3    3    0    0 -0.66070388697E+03  0.29420257887E+01 -0.13391566421E+04  0.14932778689E+04  0.00000000000E+00 0. -1.
        -11    1    3    3    0    0 -0.54210586263E+02  0.90828253228E+01 -0.64927129474E+02  0.85069486425E+02  0.00000000000E+00 0.  1.
         22    1    1    2    0    0  0.71491447324E+03 -0.12024851111E+02 -0.10012950659E+03  0.72199253402E+03  0.00000000000E+00 0.  1.
<mgrwt>
<rscale>  0 0.17403753E+04</rscale>
<asrwt>0</asrwt>
<pdfrwt beam="1">  1        1 0.29265794E+00 0.17403753E+04</pdfrwt>
<pdfrwt beam="2">  1       -1 0.61240508E-01 0.17403753E+04</pdfrwt>
<totfact> 0.89047866E+00</totfact>
</mgrwt>
</event>
<event>
 6    1  0.2238133E-007  0.3213066E+04  0.7818608E-02  0.8185375E-01
          2   -1    0    0  501    0  0.00000000000E+00  0.00000000000E+00  0.23505996837E+04  0.23505996837E+04  0.00000000000E+00 0. -1.
         -2   -1    0    0    0  501 -0.00000000000E+00 -0.00000000000E+00 -0.10979953909E+04  0.10979953909E+04  0.00000000000E+00 0.  1.
         23    2    1    2    0    0  0.11150022047E+04  0.19669312604E+03 -0.59491489906E+03  0.12817436107E+04  0.83814343232E+02 0.  0.
         11    1    3    3    0    0  0.31377305961E+03  0.28729250349E+02 -0.19605182964E+03  0.37110001706E+03  0.00000000000E+00 0. -1.
        -11    1    3    3    0    0  0.80122914506E+03  0.16796387569E+03 -0.39886306943E+03  0.91064359361E+03  0.00000000000E+00 0.  1.
         22    1    1    2    0    0 -0.11150022047E+04 -0.19669312604E+03  0.18475191919E+04  0.21668514639E+04  0.00000000000E+00 0. -1.
<mgrwt>
<rscale>  0 0.32130656E+04</rscale>
<asrwt>0</asrwt>
<pdfrwt beam="1">  1        2 0.36163072E+00 0.32130656E+04</pdfrwt>
<pdfrwt beam="2">  1       -2 0.16892237E+00 0.32130656E+04</pdfrwt>
<totfact> 0.77415496E-01</totfact>
</mgrwt>
</event>
<event>
 6    1  0.2238133E-007  0.3327396E+04  0.7818608E-02  0.8155959E-01
         -2   -1    0    0    0  501 -0.00000000000E+00  0.00000000000E+00  0.15259406407E+04  0.15259406407E+04  0.00000000000E+00 0.  1.
          2   -1    0    0  501    0  0.00000000000E+00 -0.00000000000E+00 -0.18138914116E+04  0.18138914116E+04  0.00000000000E+00 0. -1.
         23    2    1    2    0    0  0.54907404526E+03 -0.15179348032E+04  0.25512575962E+03  0.16367347292E+04  0.90570671497E+02 0.  0.
         11    1    3    3    0    0  0.15357814027E+03 -0.46708787461E+03  0.11742133301E+03  0.50551468547E+03  0.00000000000E+00 0. -1.
        -11    1    3    3    0    0  0.39549590498E+03 -0.10508469286E+04  0.13770442662E+03  0.11312200437E+04  0.00000000000E+00 0.  1.
         22    1    1    2    0    0 -0.54907404526E+03  0.15179348032E+04 -0.54307653053E+03  0.17030973231E+04  0.00000000000E+00 0. -1.
<mgrwt>
<rscale>  0 0.33273958E+04</rscale>
<asrwt>0</asrwt>
<pdfrwt beam="1">  1        2 0.27906022E+00 0.33273958E+04</pdfrwt>
<pdfrwt beam="2">  1       -2 0.23476010E+00 0.33273958E+04</pdfrwt>
<totfact> 0.56405416E-01</totfact>
</mgrwt>
</event>
<event>
 6    1  0.2238133E-007  0.2125987E+04  0.7818608E-02  0.8549881E-01
         -2   -1    0    0    0  501 -0.00000000000E+00  0.00000000000E+00  0.41717285257E+03  0.41717285257E+03  0.00000000000E+00 0.  1.
          2   -1    0    0  501    0  0.00000000000E+00 -0.00000000000E+00 -0.27086027717E+04  0.27086027717E+04  0.00000000000E+00 0. -1.
         23    2    1    2    0    0 -0.16612569334E+03  0.49463039864E+03  0.21065820742E+03  0.56986052977E+03  0.90039801183E+02 0.  0.
         13    1    3    3    0    0 -0.13691133719E+03  0.47286241606E+03  0.18802196669E+03  0.52696853676E+03  0.00000000000E+00 0.  1.
        -13    1    3    3    0    0 -0.29214356144E+02  0.21767982575E+02  0.22636240731E+02  0.42891993014E+02  0.00000000000E+00 0. -1.
         22    1    1    2    0    0  0.16612569334E+03 -0.49463039864E+03 -0.25020881266E+04  0.25559150945E+04  0.00000000000E+00 0. -1.
<mgrwt>
<rscale>  0 0.21259873E+04</rscale>
<asrwt>0</asrwt>
<pdfrwt beam="1">  1        2 0.41670811E+00 0.21259873E+04</pdfrwt>
<pdfrwt beam="2">  1       -2 0.64180439E-01 0.21259873E+04</pdfrwt>
<totfact> 0.54180566E+00</totfact>
</mgrwt>
</event>
<event>
 6    1  0.2255400E-007  0.3523651E+04  0.7818608E-02  0.8108208E-01
         -2   -1    0    0    0  501 -0.00000000000E+00  0.00000000000E+00  0.15927683041E+04  0.15927683041E+04  0.00000000000E+00 0.  1.
          2   -1    0    0  501    0  0.00000000000E+00 -0.00000000000E+00 -0.19488270333E+04  0.19488270333E+04  0.00000000000E+00 0. -1.
         23    2    1    2    0    0  0.13430544967E+04 -0.67982075729E+03 -0.10959998026E+04  0.18642568398E+04  0.91029413322E+02 0.  0.
         13    1    3    3    0    0  0.57540664364E+03 -0.24323459022E+03 -0.43776955971E+03  0.76282242942E+03  0.00000000000E+00 0.  1.
        -13    1    3    3    0    0  0.76764785309E+03 -0.43658616707E+03 -0.65823024293E+03  0.11014344104E+04  0.00000000000E+00 0. -1.
         22    1    1    2    0    0 -0.13430544967E+04  0.67982075729E+03  0.73994107351E+03  0.16773384976E+04  0.00000000000E+00 0.  1.
<mgrwt>
<rscale>  0 0.35236515E+04</rscale>
<asrwt>0</asrwt>
<pdfrwt beam="1">  1        2 0.29981954E+00 0.35236515E+04</pdfrwt>
<pdfrwt beam="2">  1       -2 0.24504128E+00 0.35236515E+04</pdfrwt>
<totfact> 0.40340130E-01</totfact>
</mgrwt>
</event>
<event>
 6    1  0.2238133E-007  0.2509156E+04  0.7818608E-02  0.8399731E-01
          2   -1    0    0  501    0  0.00000000000E+00  0.00000000000E+00  0.35190488858E+04  0.35190488858E+04  0.00000000000E+00 0. -1.
         -2   -1    0    0    0  501 -0.00000000000E+00 -0.00000000000E+00 -0.44727021774E+03  0.44727021774E+03  0.00000000000E+00 0.  1.
         23    2    1    2    0    0  0.98266211168E+03  0.72317179301E+03  0.10873490411E+04  0.16368206141E+04  0.90837864845E+02 0.  0.
         13    1    3    3    0    0  0.74457620156E+03  0.58668081104E+03  0.81391967026E+03  0.12494211954E+04  0.00000000000E+00 0. -1.
        -13    1    3    3    0    0  0.23808591012E+03  0.13649098197E+03  0.27342937086E+03  0.38739941869E+03  0.00000000000E+00 0.  1.
         22    1    1    2    0    0 -0.98266211168E+03 -0.72317179301E+03  0.19844296269E+04  0.23294984894E+04  0.00000000000E+00 0. -1.
<mgrwt>
<rscale>  0 0.25091558E+04</rscale>
<asrwt>0</asrwt>
<pdfrwt beam="1">  1        2 0.54139212E+00 0.25091558E+04</pdfrwt>
<pdfrwt beam="2">  1       -2 0.68810805E-01 0.25091558E+04</pdfrwt>
<totfact> 0.13575287E+00</totfact>
</mgrwt>
</event>
<event>
 6    1  0.2238133E-007  0.4103048E+04  0.7818608E-02  0.7984075E-01
         -2   -1    0    0    0  501 -0.00000000000E+00  0.00000000000E+00  0.24430702601E+04  0.24430702601E+04  0.00000000000E+00 0.  1.
          2   -1    0    0  501    0  0.00000000000E+00 -0.00000000000E+00 -0.17227302266E+04  0.17227302266E+04  0.00000000000E+00 0. -1.
         23    2    1    2    0    0  0.17718368078E+03  0.16050667131E+04  0.16432639554E+04  0.23058483971E+04  0.94800807736E+02 0.  0.
         13    1    3    3    0    0  0.13967403010E+03  0.11434514009E+04  0.12290493016E+04  0.16845035253E+04  0.00000000000E+00 0. -1.
        -13    1    3    3    0    0  0.37509650688E+02  0.46161531213E+03  0.41421465384E+03  0.62134487183E+03  0.00000000000E+00 0.  1.
         22    1    1    2    0    0 -0.17718368078E+03 -0.16050667131E+04 -0.92292392185E+03  0.18599520896E+04  0.00000000000E+00 0. -1.
<mgrwt>
<rscale>  0 0.41030481E+04</rscale>
<asrwt>0</asrwt>
<pdfrwt beam="1">  1        2 0.26503542E+00 0.41030481E+04</pdfrwt>
<pdfrwt beam="2">  1       -2 0.37585696E+00 0.41030481E+04</pdfrwt>
<totfact> 0.79319277E-02</totfact>
</mgrwt>
</event>
<event>
 6    1  0.2238133E-007  0.4956168E+03  0.7818608E-02  0.1014929E+00
          2   -1    0    0  501    0  0.00000000000E+00  0.00000000000E+00  0.11562799825E+04  0.11562799825E+04  0.00000000000E+00 0. -1.
         -2   -1    0    0    0  501 -0.00000000000E+00 -0.00000000000E+00 -0.53109101538E+02  0.53109101538E+02  0.00000000000E+00 0.  1.
         23    2    1    2    0    0  0.20025389474E+03 -0.52968810697E+02  0.27723829411E+03  0.35787751319E+03  0.91147822033E+02 0.  0.
         13    1    3    3    0    0  0.13330109333E+03 -0.77009714650E+02  0.20635460298E+03  0.25745271373E+03  0.00000000000E+00 0. -1.
        -13    1    3    3    0    0  0.66952801405E+02  0.24040903953E+02  0.70883691123E+02  0.10042479946E+03  0.00000000000E+00 0.  1.
         22    1    1    2    0    0 -0.20025389474E+03  0.52968810697E+02  0.82593258682E+03  0.85151157082E+03  0.00000000000E+00 0. -1.
<mgrwt>
<rscale>  0 0.49561675E+03</rscale>
<asrwt>0</asrwt>
<pdfrwt beam="1">  1        2 0.17788921E+00 0.49561675E+03</pdfrwt>
<pdfrwt beam="2">  1       -2 0.81706319E-02 0.49561675E+03</pdfrwt>
<totfact> 0.19330668E+03</totfact>
</mgrwt>
</event>
<event>
 6    1  0.2238133E-007  0.1551806E+04  0.7818608E-02  0.8850715E-01
          2   -1    0    0  501    0  0.00000000000E+00  0.00000000000E+00  0.21000796969E+04  0.21000796969E+04  0.00000000000E+00 0. -1.
         -2   -1    0    0    0  501 -0.00000000000E+00 -0.00000000000E+00 -0.28666801197E+03  0.28666801197E+03  0.00000000000E+00 0.  1.
         23    2    1    2    0    0  0.41650386182E+03  0.21562617558E+03  0.18552580631E+04  0.19158748663E+04  0.92864998842E+02 0.  0.
         11    1    3    3    0    0  0.20056236825E+03  0.52781137226E+02  0.77385493466E+03  0.80116326170E+03  0.00000000000E+00 0.  1.
        -11    1    3    3    0    0  0.21594149357E+03  0.16284503835E+03  0.10814031285E+04  0.11147116046E+04  0.00000000000E+00 0. -1.
         22    1    1    2    0    0 -0.41650386182E+03 -0.21562617558E+03 -0.41846378193E+02  0.47087284258E+03  0.00000000000E+00 0.  1.
<mgrwt>
<rscale>  0 0.15518063E+04</rscale>
<asrwt>0</asrwt>
<pdfrwt beam="1">  1        2 0.32308918E+00 0.15518063E+04</pdfrwt>
<pdfrwt beam="2">  1       -2 0.44102772E-01 0.15518063E+04</pdfrwt>
<totfact> 0.27584982E+01</totfact>
</mgrwt>
</event>
<event>
 6    1  0.2297272E-007  0.2765631E+04  0.7818608E-02  0.8314019E-01
         -1   -1    0    0    0  501 -0.00000000000E+00  0.00000000000E+00  0.16653283426E+04  0.16653283426E+04  0.00000000000E+00 0.  1.
          1   -1    0    0  501    0  0.00000000000E+00 -0.00000000000E+00 -0.11482294085E+04  0.11482294085E+04  0.00000000000E+00 0. -1.
         23    2    1    2    0    0 -0.28093850907E+03  0.20460441784E+03  0.16188692616E+04  0.16582710906E+04  0.91301204486E+02 0.  0.
         11    1    3    3    0    0 -0.90230746043E+02  0.12030149691E+03  0.63770097844E+03  0.65519201429E+03  0.00000000000E+00 0. -1.
        -11    1    3    3    0    0 -0.19070776302E+03  0.84302920931E+02  0.98116828316E+03  0.10030790763E+04  0.00000000000E+00 0.  1.
         22    1    1    2    0    0  0.28093850907E+03 -0.20460441784E+03 -0.11017703274E+04  0.11552866606E+04  0.00000000000E+00 0. -1.
<mgrwt>
<rscale>  0 0.27656312E+04</rscale>
<asrwt>0</asrwt>
<pdfrwt beam="1">  1        1 0.17665068E+00 0.27656312E+04</pdfrwt>
<pdfrwt beam="2">  1       -1 0.25620436E+00 0.27656312E+04</pdfrwt>
<totfact> 0.64340017E-01</totfact>
</mgrwt>
</event>
<event>
 6    1  0.2238133E-007  0.1816362E+04  0.7818608E-02  0.8697647E-01
          1   -1    0    0  501    0  0.00000000000E+00  0.00000000000E+00  0.11361021443E+04  0.11361021443E+04  0.00000000000E+00 0. -1.
         -1   -1    0    0    0  501 -0.00000000000E+00 -0.00000000000E+00 -0.72598441629E+03  0.72598441629E+03  0.00000000000E+00 0.  1.
         23    2    1    2    0    0 -0.64697572149E+03  0.17461913811E+03  0.83068750657E+03  0.10709175734E+04  0.88052756291E+02 0.  0.
         11    1    3    3    0    0 -0.24392009078E+03  0.64494356213E+02  0.38209359287E+03  0.45787776358E+03  0.00000000000E+00 0. -1.
        -11    1    3    3    0    0 -0.40305563071E+03  0.11012478190E+03  0.44859391370E+03  0.61303980984E+03  0.00000000000E+00 0.  1.
         22    1    1    2    0    0  0.64697572149E+03 -0.17461913811E+03 -0.42056977858E+03  0.79116898716E+03  0.00000000000E+00 0.  1.
<mgrwt>
<rscale>  0 0.18163617E+04</rscale>
<asrwt>0</asrwt>
<pdfrwt beam="1">  1        1 0.17478494E+00 0.18163617E+04</pdfrwt>
<pdfrwt beam="2">  1       -1 0.11168991E+00 0.18163617E+04</pdfrwt>
<totfact> 0.82634440E+00</totfact>
</mgrwt>
</event>
<event>
 6    1  0.2368612E-007  0.2415820E+04  0.7818608E-02  0.8433604E-01
          1   -1    0    0  501    0  0.00000000000E+00  0.00000000000E+00  0.20949262667E+04  0.20949262667E+04  0.00000000000E+00 0. -1.
         -1   -1    0    0    0  501 -0.00000000000E+00 -0.00000000000E+00 -0.69646672626E+03  0.69646672626E+03  0.00000000000E+00 0.  1.
         23    2    1    2    0    0 -0.32633478593E+03 -0.48794822245E+03  0.19177933206E+04  0.20076229785E+04  0.89615529199E+02 0.  0.
         13    1    3    3    0    0 -0.16377160832E+03 -0.26232114286E+03  0.86097323864E+03  0.91482699968E+03  0.00000000000E+00 0.  1.
        -13    1    3    3    0    0 -0.16256317761E+03 -0.22562707959E+03  0.10568200820E+04  0.10927959789E+04  0.00000000000E+00 0. -1.
         22    1    1    2    0    0  0.32633478593E+03  0.48794822245E+03 -0.51933378016E+03  0.78377001443E+03  0.00000000000E+00 0.  1.
<mgrwt>
<rscale>  0 0.24158199E+04</rscale>
<asrwt>0</asrwt>
<pdfrwt beam="1">  1        1 0.32229635E+00 0.24158199E+04</pdfrwt>
<pdfrwt beam="2">  1       -1 0.10714873E+00 0.24158199E+04</pdfrwt>
<totfact> 0.18660541E+00</totfact>
</mgrwt>
</event>
<event>
 6    1  0.2238133E-007  0.1860694E+04  0.7818608E-02  0.8674673E-01
         -2   -1    0    0    0  501 -0.00000000000E+00  0.00000000000E+00  0.43913669928E+03  0.43913669928E+03  0.00000000000E+00 0.  1.
          2   -1    0    0  501    0  0.00000000000E+00 -0.00000000000E+00 -0.19710168510E+04  0.19710168510E+04  0.00000000000E+00 0. -1.
         23    2    1    2    0    0  0.55240742580E+03 -0.63682482115E+03 -0.12706344365E+04  0.15275725961E+04  0.90919460651E+02 0.  0.
         11    1    3    3    0    0  0.44186441575E+03 -0.46479189586E+03 -0.91549070793E+03  0.11177651384E+04  0.00000000000E+00 0. -1.
        -11    1    3    3    0    0  0.11054301005E+03 -0.17203292529E+03 -0.35514372854E+03  0.40980745769E+03  0.00000000000E+00 0.  1.
         22    1    1    2    0    0 -0.55240742580E+03  0.63682482115E+03 -0.26124571524E+03  0.88258095416E+03  0.00000000000E+00 0.  1.
<mgrwt>
<rscale>  0 0.18606943E+04</rscale>
<asrwt>0</asrwt>
<pdfrwt beam="1">  1        2 0.30323337E+00 0.18606943E+04</pdfrwt>
<pdfrwt beam="2">  1       -2 0.67559491E-01 0.18606943E+04</pdfrwt>
<totfact> 0.13082288E+01</totfact>
</mgrwt>
</event>
<event>
 6    1  0.2238133E-007  0.1594502E+04  0.7818608E-02  0.8823933E-01
         -1   -1    0    0    0  501 -0.00000000000E+00  0.00000000000E+00  0.48238583651E+03  0.48238583651E+03  0.00000000000E+00 0.  1.
          1   -1    0    0  501    0  0.00000000000E+00 -0.00000000000E+00 -0.13176369307E+04  0.13176369307E+04  0.00000000000E+00 0. -1.
         23    2    1    2    0    0 -0.79110524353E+03  0.62691562314E+02 -0.37269762764E+03  0.88147312359E+03  0.91178986900E+02 0.  0.
         11    1    3    3    0    0 -0.55391879709E+03  0.72272798578E+02 -0.29485608545E+03  0.63165615830E+03  0.00000000000E+00 0. -1.
        -11    1    3    3    0    0 -0.23718644643E+03 -0.95812362644E+01 -0.77841542183E+02  0.24981696529E+03  0.00000000000E+00 0.  1.
         22    1    1    2    0    0  0.79110524353E+03 -0.62691562314E+02 -0.46255346652E+03  0.91854964357E+03  0.00000000000E+00 0. -1.
<mgrwt>
<rscale>  0 0.15945023E+04</rscale>
<asrwt>0</asrwt>
<pdfrwt beam="1">  1        1 0.20271337E+00 0.15945023E+04</pdfrwt>
<pdfrwt beam="2">  1       -1 0.74213207E-01 0.15945023E+04</pdfrwt>
<totfact> 0.15417892E+01</totfact>
</mgrwt>
</event>
<event>
 6    1  0.2238133E-007  0.1547324E+04  0.7818608E-02  0.8853579E-01
          2   -1    0    0  501    0  0.00000000000E+00  0.00000000000E+00  0.44984073181E+03  0.44984073181E+03  0.00000000000E+00 0. -1.
         -2   -1    0    0    0  501 -0.00000000000E+00 -0.00000000000E+00 -0.13305880585E+04  0.13305880585E+04  0.00000000000E+00 0.  1.
         23    2    1    2    0    0 -0.25170969685E+03  0.26011051759E+03  0.34135392943E+03  0.50585171023E+03  0.91368455997E+02 0.  0.
         13    1    3    3    0    0 -0.13413844841E+03  0.14608229532E+03  0.12476024666E+03  0.23430381878E+03  0.00000000000E+00 0. -1.
        -13    1    3    3    0    0 -0.11757124844E+03  0.11402822228E+03  0.21659368277E+03  0.27154789145E+03  0.00000000000E+00 0.  1.
         22    1    1    2    0    0  0.25170969685E+03 -0.26011051759E+03 -0.12221012561E+04  0.12745770801E+04  0.00000000000E+00 0.  1.
<mgrwt>
<rscale>  0 0.15473238E+04</rscale>
<asrwt>0</asrwt>
<pdfrwt beam="1">  1        2 0.69206268E-01 0.15473238E+04</pdfrwt>
<pdfrwt beam="2">  1       -2 0.20470585E+00 0.15473238E+04</pdfrwt>
<totfact> 0.82919634E+00</totfact>
</mgrwt>
</event>
<event>
 6    1  0.2238133E-007  0.2739593E+04  0.7818608E-02  0.8322272E-01
          1   -1    0    0  501    0  0.00000000000E+00  0.00000000000E+00  0.24316456264E+04  0.24316456264E+04  0.00000000000E+00 0. -1.
         -1   -1    0    0    0  501 -0.00000000000E+00 -0.00000000000E+00 -0.77163458319E+03  0.77163458319E+03  0.00000000000E+00 0.  1.
         23    2    1    2    0    0 -0.54941499520E+03  0.63276782950E+03  0.20955067650E+04  0.22588711422E+04  0.95384862820E+02 0.  0.
         13    1    3    3    0    0 -0.41219349430E+03  0.44792913702E+03  0.14115136621E+04  0.15371775456E+04  0.00000000000E+00 0. -1.
        -13    1    3    3    0    0 -0.13722150090E+03  0.18483869248E+03  0.68399310285E+03  0.72169359654E+03  0.00000000000E+00 0.  1.
         22    1    1    2    0    0  0.54941499520E+03 -0.63276782950E+03 -0.43549572171E+03  0.94440906742E+03  0.00000000000E+00 0.  1.
<mgrwt>
<rscale>  0 0.27395926E+04</rscale>
<asrwt>0</asrwt>
<pdfrwt beam="1">  1        1 0.37409932E+00 0.27395926E+04</pdfrwt>
<pdfrwt beam="2">  1       -1 0.11871301E+00 0.27395926E+04</pdfrwt>
<totfact> 0.83534903E-01</totfact>
</mgrwt>
</event>
<event>
 6    1  0.2238133E-007  0.1387068E+04  0.7818608E-02  0.8963233E-01
         -1   -1    0    0    0  501 -0.00000000000E+00  0.00000000000E+00  0.15461295773E+04  0.15461295773E+04  0.00000000000E+00 0.  1.
          1   -1    0    0  501    0  0.00000000000E+00 -0.00000000000E+00 -0.31109237361E+03  0.31109237361E+03  0.00000000000E+00 0. -1.
         23    2    1    2    0    0  0.33553130202E+03 -0.42291543106E+02  0.14263893967E+04  0.14686534357E+04  0.89366513332E+02 0.  0.
         11    1    3    3    0    0  0.54817639056E+02 -0.18081021039E+02  0.13393470382E+03  0.14584375805E+03  0.00000000000E+00 0.  1.
        -11    1    3    3    0    0  0.28071366296E+03 -0.24210522067E+02  0.12924546929E+04  0.13228096776E+04  0.00000000000E+00 0. -1.
         22    1    1    2    0    0 -0.33553130202E+03  0.42291543106E+02 -0.19135219306E+03  0.38856851524E+03  0.00000000000E+00 0. -1.
<mgrwt>
<rscale>  0 0.13870676E+04</rscale>
<asrwt>0</asrwt>
<pdfrwt beam="1">  1        1 0.47860366E-01 0.13870676E+04</pdfrwt>
<pdfrwt beam="2">  1       -1 0.23786608E+00 0.13870676E+04</pdfrwt>
<totfact> 0.68380313E+00</totfact>
</mgrwt>
</event>
<event>
 6    1  0.2238133E-007  0.3359612E+04  0.7818608E-02  0.8147891E-01
          2   -1    0    0  501    0  0.00000000000E+00  0.00000000000E+00  0.29263215779E+04  0.29263215779E+04  0.00000000000E+00 0. -1.
         -2   -1    0    0    0  501 -0.00000000000E+00 -0.00000000000E+00 -0.96426459883E+03  0.96426459883E+03  0.00000000000E+00 0.  1.
         23    2    1    2    0    0 -0.14558615427E+04  0.82523689499E+03  0.11332868790E+04  0.20231256970E+04  0.90275530834E+02 0.  0.
         11    1    3    3    0    0 -0.10452150887E+04  0.55416933489E+03  0.82923964015E+03  0.14447202546E+04  0.00000000000E+00 0.  1.
        -11    1    3    3    0    0 -0.41064645402E+03  0.27106756011E+03  0.30404723888E+03  0.57840544241E+03  0.00000000000E+00 0. -1.
         22    1    1    2    0    0  0.14558615427E+04 -0.82523689499E+03  0.82877009999E+03  0.18674604796E+04  0.00000000000E+00 0. -1.
<mgrwt>
<rscale>  0 0.33596121E+04</rscale>
<asrwt>0</asrwt>
<pdfrwt beam="1">  1        2 0.45020332E+00 0.33596121E+04</pdfrwt>
<pdfrwt beam="2">  1       -2 0.14834840E+00 0.33596121E+04</pdfrwt>
<totfact> 0.49598143E-01</totfact>
</mgrwt>
</event>
<event>
 6    1  0.2238133E-007  0.1584971E+04  0.7818608E-02  0.8829834E-01
         -2   -1    0    0    0  501 -0.00000000000E+00  0.00000000000E+00  0.96442633706E+03  0.96442633706E+03  0.00000000000E+00 0.  1.
          2   -1    0    0  501    0  0.00000000000E+00 -0.00000000000E+00 -0.65119874044E+03  0.65119874044E+03  0.00000000000E+00 0. -1.
         23    2    1    2    0    0  0.42925669058E+03  0.16832166074E+03 -0.49611708034E+03  0.68415726056E+03  0.96672187772E+02 0.  0.
         11    1    3    3    0    0  0.40084242390E+03  0.15038914741E+03 -0.41454173520E+03  0.59593321327E+03  0.00000000000E+00 0.  1.
        -11    1    3    3    0    0  0.28414266678E+02  0.17932513335E+02 -0.81575345135E+02  0.88224047285E+02  0.00000000000E+00 0. -1.
         22    1    1    2    0    0 -0.42925669058E+03 -0.16832166074E+03  0.80934467696E+03  0.93146781695E+03  0.00000000000E+00 0.  1.
<mgrwt>
<rscale>  0 0.15849709E+04</rscale>
<asrwt>0</asrwt>
<pdfrwt beam="1">  1        2 0.10018442E+00 0.15849709E+04</pdfrwt>
<pdfrwt beam="2">  1       -2 0.14837328E+00 0.15849709E+04</pdfrwt>
<totfact> 0.13273589E+01</totfact>
</mgrwt>
</event>
<event>
 6    1  0.2238133E-007  0.3212004E+04  0.7818608E-02  0.8185654E-01
          2   -1    0    0  501    0  0.00000000000E+00  0.00000000000E+00  0.16475669403E+04  0.16475669403E+04  0.00000000000E+00 0. -1.
         -2   -1    0    0    0  501 -0.00000000000E+00 -0.00000000000E+00 -0.15654858564E+04  0.15654858564E+04  0.00000000000E+00 0.  1.
         23    2    1    2    0    0  0.10396888246E+04  0.10694975686E+04  0.63300557976E+03  0.16229912566E+04  0.92879781593E+02 0.  0.
         11    1    3    3    0    0  0.14744758909E+03  0.15775062134E+03  0.57229251008E+02  0.22338584833E+03  0.00000000000E+00 0.  1.
        -11    1    3    3    0    0  0.89224123549E+03  0.91174694727E+03  0.57577632875E+03  0.13996054083E+04  0.00000000000E+00 0. -1.
         22    1    1    2    0    0 -0.10396888246E+04 -0.10694975686E+04 -0.55092449582E+03  0.15900615401E+04  0.00000000000E+00 0.  1.
<mgrwt>
<rscale>  0 0.32120042E+04</rscale>
<asrwt>0</asrwt>
<pdfrwt beam="1">  1        2 0.25347184E+00 0.32120042E+04</pdfrwt>
<pdfrwt beam="2">  1       -2 0.24084398E+00 0.32120042E+04</pdfrwt>
<totfact> 0.64586675E-01</totfact>
</mgrwt>
</event>
<event>
 6    1  0.2238133E-007  0.4737853E+04  0.7818608E-02  0.7870269E-01
          2   -1    0    0  501    0  0.00000000000E+00  0.00000000000E+00  0.43123400449E+04  0.43123400449E+04  0.00000000000E+00 0. -1.
         -2   -1    0    0    0  501 -0.00000000000E+00 -0.00000000000E+00 -0.13013381848E+04  0.13013381848E+04  0.00000000000E+00 0.  1.
         23    2    1    2    0    0 -0.17574393511E+03  0.19542031233E+03  0.42945184335E+04  0.43035294506E+04  0.91663119676E+02 0.  0.
         11    1    3    3    0    0 -0.11883824524E+03  0.13146011608E+03  0.21454014192E+04  0.21527079551E+04  0.00000000000E+00 0.  1.
        -11    1    3    3    0    0 -0.56905689873E+02  0.63960196248E+02  0.21491170143E+04  0.21508214955E+04  0.00000000000E+00 0. -1.
         22    1    1    2    0    0  0.17574393511E+03 -0.19542031233E+03 -0.12835165734E+04  0.13101487791E+04  0.00000000000E+00 0.  1.
<mgrwt>
<rscale>  0 0.47378530E+04</rscale>
<asrwt>0</asrwt>
<pdfrwt beam="1">  1        2 0.66343693E+00 0.47378530E+04</pdfrwt>
<pdfrwt beam="2">  1       -2 0.20020588E+00 0.47378530E+04</pdfrwt>
<totfact> 0.18090339E-02</totfact>
</mgrwt>
</event>
<event>
 6    1  0.2238133E-007  0.2756129E+04  0.7818608E-02  0.8317020E-01
         -1   -1    0    0    0  501 -0.00000000000E+00  0.00000000000E+00  0.15392197679E+04  0.15392197679E+04  0.00000000000E+00 0.  1.
          1   -1    0    0  501    0  0.00000000000E+00 -0.00000000000E+00 -0.12337818109E+04  0.12337818109E+04  0.00000000000E+00 0. -1.
         23    2    1    2    0    0 -0.62258708736E+03 -0.11548113940E+04 -0.26610157312E+03  0.13419664738E+04  0.94127213864E+02 0.  0.
         13    1    3    3    0    0 -0.53163884472E+03 -0.10445804547E+04 -0.24641555395E+03  0.11977098199E+04  0.00000000000E+00 0. -1.
        -13    1    3    3    0    0 -0.90948242634E+02 -0.11023093934E+03 -0.19686019162E+02  0.14425665384E+03  0.00000000000E+00 0.  1.
         22    1    1    2    0    0  0.62258708736E+03  0.11548113940E+04  0.57153953018E+03  0.14310351050E+04  0.00000000000E+00 0. -1.
<mgrwt>
<rscale>  0 0.27561287E+04</rscale>
<asrwt>0</asrwt>
<pdfrwt beam="1">  1        1 0.18981259E+00 0.27561287E+04</pdfrwt>
<pdfrwt beam="2">  1       -1 0.23680304E+00 0.27561287E+04</pdfrwt>
<totfact> 0.74662306E-01</totfact>
</mgrwt>
</event>
<event>
 6    1  0.2238133E-007  0.6910028E+03  0.7818608E-02  0.9732743E-01
         -2   -1    0    0    0  501 -0.00000000000E+00  0.00000000000E+00  0.23085517394E+03  0.23085517394E+03  0.00000000000E+00 0.  1.
          2   -1    0    0  501    0  0.00000000000E+00 -0.00000000000E+00 -0.51708272197E+03  0.51708272197E+03  0.00000000000E+00 0. -1.
         23    2    1    2    0    0  0.19712184549E+03  0.14882811999E+03 -0.39760230165E+03  0.47699294390E+03  0.91803305986E+02 0.  0.
         11    1    3    3    0    0  0.15766272189E+03  0.12924469951E+03 -0.24799307669E+03  0.32103316388E+03  0.00000000000E+00 0. -1.
        -11    1    3    3    0    0  0.39459123604E+02  0.19583420480E+02 -0.14960922495E+03  0.15595978002E+03  0.00000000000E+00 0.  1.
         22    1    1    2    0    0 -0.19712184549E+03 -0.14882811999E+03  0.11137475362E+03  0.27094495200E+03  0.00000000000E+00 0.  1.
<mgrwt>
<rscale>  0 0.69100281E+03</rscale>
<asrwt>0</asrwt>
<pdfrwt beam="1">  1        2 0.79551187E-01 0.69100281E+03</pdfrwt>
<pdfrwt beam="2">  1       -2 0.35516181E-01 0.69100281E+03</pdfrwt>
<totfact> 0.44421144E+02</totfact>
</mgrwt>
</event>
<event>
 6    1  0.2238133E-007  0.8465507E+03  0.7818608E-02  0.9494978E-01
          1   -1    0    0  501    0  0.00000000000E+00  0.00000000000E+00  0.16643005320E+04  0.16643005320E+04  0.00000000000E+00 0. -1.
         -1   -1    0    0    0  501 -0.00000000000E+00 -0.00000000000E+00 -0.10765004830E+03  0.10765004830E+03  0.00000000000E+00 0.  1.
         23    2    1    2    0    0  0.14970796948E+03 -0.93540824924E+02  0.15812729425E+04  0.15937130210E+04  0.91294646717E+02 0.  0.
         11    1    3    3    0    0  0.10300338301E+03 -0.22092772449E+02  0.64379915902E+03  0.65236120720E+03  0.00000000000E+00 0. -1.
        -11    1    3    3    0    0  0.46704586466E+02 -0.71448052475E+02  0.93747378349E+03  0.94135181380E+03  0.00000000000E+00 0.  1.
         22    1    1    2    0    0 -0.14970796948E+03  0.93540824924E+02 -0.24622458847E+02  0.17823755927E+03  0.00000000000E+00 0.  1.
<mgrwt>
<rscale>  0 0.84655073E+03</rscale>
<asrwt>0</asrwt>
<pdfrwt beam="1">  1        1 0.25604622E+00 0.84655073E+03</pdfrwt>
<pdfrwt beam="2">  1       -1 0.16561547E-01 0.84655073E+03</pdfrwt>
<totfact> 0.14308959E+02</totfact>
</mgrwt>
</event>
<event>
 6    1  0.2238133E-007  0.2199838E+04  0.7818608E-02  0.8518496E-01
          2   -1    0    0  501    0  0.00000000000E+00  0.00000000000E+00  0.15433191833E+04  0.15433191833E+04  0.00000000000E+00 0. -1.
         -2   -1    0    0    0  501 -0.00000000000E+00 -0.00000000000E+00 -0.78390892355E+03  0.78390892355E+03  0.00000000000E+00 0.  1.
         23    2    1    2    0    0  0.10911351396E+04  0.74152599860E+02  0.28394255766E+03  0.11346912996E+04  0.10405031758E+03 0.  0.
         11    1    3    3    0    0  0.67529187011E+03  0.57690921702E+00  0.15112802611E+03  0.69199647610E+03  0.00000000000E+00 0. -1.
        -11    1    3    3    0    0  0.41584326945E+03  0.73575690643E+02  0.13281453155E+03  0.44269482354E+03  0.00000000000E+00 0.  1.
         22    1    1    2    0    0 -0.10911351396E+04 -0.74152599860E+02  0.47546770211E+03  0.11925368072E+04  0.00000000000E+00 0. -1.
<mgrwt>
<rscale>  0 0.21998379E+04</rscale>
<asrwt>0</asrwt>
<pdfrwt beam="1">  1        2 0.23743372E+00 0.21998379E+04</pdfrwt>
<pdfrwt beam="2">  1       -2 0.12060137E+00 0.21998379E+04</pdfrwt>
<totfact> 0.57530080E+00</totfact>
</mgrwt>
</event>
<event>
 6    1  0.2238133E-007  0.6790734E+03  0.7818608E-02  0.9753704E-01
          2   -1    0    0  501    0  0.00000000000E+00  0.00000000000E+00  0.12353188900E+04  0.12353188900E+04  0.00000000000E+00 0. -1.
         -2   -1    0    0    0  501 -0.00000000000E+00 -0.00000000000E+00 -0.93324232050E+02  0.93324232050E+02  0.00000000000E+00 0.  1.
         23    2    1    2    0    0  0.25138842311E+03  0.18937011250E+03  0.36423737072E+03  0.48961774900E+03  0.89439919083E+02 0.  0.
         11    1    3    3    0    0  0.22868139678E+03  0.18264702225E+03  0.36246342625E+03  0.46586999403E+03  0.00000000000E+00 0.  1.
        -11    1    3    3    0    0  0.22707026327E+02  0.67230902489E+01  0.17739444735E+01  0.23747754970E+02  0.00000000000E+00 0. -1.
         22    1    1    2    0    0 -0.25138842311E+03 -0.18937011250E+03  0.77775728724E+03  0.83902537306E+03  0.00000000000E+00 0. -1.
<mgrwt>
<rscale>  0 0.67907345E+03</rscale>
<asrwt>0</asrwt>
<pdfrwt beam="1">  1        2 0.19004905E+00 0.67907345E+03</pdfrwt>
<pdfrwt beam="2">  1       -2 0.14357575E-01 0.67907345E+03</pdfrwt>
<totfact> 0.68799936E+02</totfact>
</mgrwt>
</event>
<event>
 6    1  0.2238133E-007  0.2315421E+04  0.7818608E-02  0.8471865E-01
         -2   -1    0    0    0  501 -0.00000000000E+00  0.00000000000E+00  0.55946960861E+03  0.55946960861E+03  0.00000000000E+00 0.  1.
          2   -1    0    0  501    0  0.00000000000E+00 -0.00000000000E+00 -0.23956507463E+04  0.23956507463E+04  0.00000000000E+00 0. -1.
         23    2    1    2    0    0 -0.11404542443E+04 -0.12043976411E+03 -0.11041238239E+04  0.15945875435E+04  0.92078201617E+02 0.  0.
         11    1    3    3    0    0 -0.84695656307E+03 -0.85650380482E+02 -0.76225153438E+03  0.11426717854E+04  0.00000000000E+00 0. -1.
        -11    1    3    3    0    0 -0.29349768127E+03 -0.34789383624E+02 -0.34187228948E+03  0.45191575812E+03  0.00000000000E+00 0.  1.
         22    1    1    2    0    0  0.11404542443E+04  0.12043976411E+03 -0.73205731384E+03  0.13605328114E+04  0.00000000000E+00 0.  1.
<mgrwt>
<rscale>  0 0.23154212E+04</rscale>
<asrwt>0</asrwt>
<pdfrwt beam="1">  1        2 0.36856165E+00 0.23154212E+04</pdfrwt>
<pdfrwt beam="2">  1       -2 0.86072247E-01 0.23154212E+04</pdfrwt>
<totfact> 0.42387934E+00</totfact>
</mgrwt>
</event>
<event>
 6    1  0.2238133E-007  0.2078037E+04  0.7818608E-02  0.8570980E-01
          2   -1    0    0  501    0  0.00000000000E+00  0.00000000000E+00  0.34611107220E+03  0.34611107220E+03  0.00000000000E+00 0. -1.
         -2   -1    0    0    0  501 -0.00000000000E+00 -0.00000000000E+00 -0.31191123763E+04  0.31191123763E+04  0.00000000000E+00 0.  1.
         23    2    1    2    0    0 -0.54184180203E+03 -0.63928871108E+03 -0.37049089822E+03  0.92075123506E+03  0.90756469015E+02 0.  0.
         13    1    3    3    0    0 -0.29717233279E+03 -0.28270108643E+03 -0.19277429619E+03  0.45320329755E+03  0.00000000000E+00 0. -1.
        -13    1    3    3    0    0 -0.24466946924E+03 -0.35658762465E+03 -0.17771660203E+03  0.46754793751E+03  0.00000000000E+00 0.  1.
         22    1    1    2    0    0  0.54184180203E+03  0.63928871108E+03 -0.24025104059E+04  0.25444722134E+04  0.00000000000E+00 0.  1.
<mgrwt>
<rscale>  0 0.20780369E+04</rscale>
<asrwt>0</asrwt>
<pdfrwt beam="1">  1        2 0.53247855E-01 0.20780369E+04</pdfrwt>
<pdfrwt beam="2">  1       -2 0.47986346E+00 0.20780369E+04</pdfrwt>
<totfact> 0.19091944E-01</totfact>
</mgrwt>
</event>
<event>
 6    1  0.2238133E-007  0.1139546E+04  0.7818608E-02  0.9167482E-01
          2   -1    0    0  501    0  0.00000000000E+00  0.00000000000E+00  0.13703685951E+04  0.13703685951E+04  0.00000000000E+00 0. -1.
         -2   -1    0    0    0  501 -0.00000000000E+00 -0.00000000000E+00 -0.23690062910E+03  0.23690062910E+03  0.00000000000E+00 0.  1.
         23    2    1    2    0    0 -0.23647639838E+03 -0.88040833985E+02  0.12852392455E+04  0.13128090457E+04  0.89193030049E+02 0.  0.
         13    1    3    3    0    0 -0.24275695649E+03 -0.76656815080E+02  0.12284782251E+04  0.12545779995E+04  0.00000000000E+00 0. -1.
        -13    1    3    3    0    0  0.62805581078E+01 -0.11384018905E+02  0.56761020420E+02  0.58231046150E+02  0.00000000000E+00 0.  1.
         22    1    1    2    0    0  0.23647639838E+03  0.88040833985E+02 -0.15177127957E+03  0.29446017853E+03  0.00000000000E+00 0.  1.
<mgrwt>
<rscale>  0 0.11395458E+04</rscale>
<asrwt>0</asrwt>
<pdfrwt beam="1">  1        2 0.21082593E+00 0.11395458E+04</pdfrwt>
<pdfrwt beam="2">  1       -2 0.36446251E-01 0.11395458E+04</pdfrwt>
<totfact> 0.10555808E+02</totfact>
</mgrwt>
</event>
<event>
 6    1  0.2238133E-007  0.2324914E+04  0.7818608E-02  0.8468162E-01
          2   -1    0    0  501    0  0.00000000000E+00  0.00000000000E+00  0.29031077779E+04  0.29031077779E+04  0.00000000000E+00 0. -1.
         -2   -1    0    0    0  501 -0.00000000000E+00 -0.00000000000E+00 -0.46546887530E+03  0.46546887530E+03  0.00000000000E+00 0.  1.
         23    2    1    2    0    0  0.75558641824E+03 -0.64736594470E+03  0.35222353259E+03  0.10579596864E+04  0.72275717612E+02 0.  0.
         11    1    3    3    0    0  0.52114557010E+03 -0.40893750940E+03  0.21412796731E+03  0.69618487359E+03  0.00000000000E+00 0.  1.
        -11    1    3    3    0    0  0.23444084814E+03 -0.23842843531E+03  0.13809556528E+03  0.36177481282E+03  0.00000000000E+00 0. -1.
         22    1    1    2    0    0 -0.75558641824E+03  0.64736594470E+03  0.20854153700E+04  0.23106169668E+04  0.00000000000E+00 0. -1.
<mgrwt>
<rscale>  0 0.23249140E+04</rscale>
<asrwt>0</asrwt>
<pdfrwt beam="1">  1        2 0.44663195E+00 0.23249140E+04</pdfrwt>
<pdfrwt beam="2">  1       -2 0.71610598E-01 0.23249140E+04</pdfrwt>
<totfact> 0.32021396E+00</totfact>
</mgrwt>
</event>
<event>
 6    1  0.2238133E-007  0.2927968E+04  0.7818608E-02  0.8264604E-01
         -2   -1    0    0    0  501 -0.00000000000E+00  0.00000000000E+00  0.86011118005E+03  0.86011118005E+03  0.00000000000E+00 0.  1.
          2   -1    0    0  501    0  0.00000000000E+00 -0.00000000000E+00 -0.24918281738E+04  0.24918281738E+04  0.00000000000E+00 0. -1.
         23    2    1    2    0    0  0.33121098206E+03  0.66493657402E+03  0.62563753360E+03  0.97549435674E+03  0.91244476501E+02 0.  0.
         13    1    3    3    0    0  0.28004729773E+03  0.53902334618E+03  0.46440578130E+03  0.76462107373E+03  0.00000000000E+00 0. -1.
        -13    1    3    3    0    0  0.51163684330E+02  0.12591322783E+03  0.16123175230E+03  0.21087328301E+03  0.00000000000E+00 0.  1.
         22    1    1    2    0    0 -0.33121098206E+03 -0.66493657402E+03 -0.22573545273E+04  0.23764449971E+04  0.00000000000E+00 0. -1.
<mgrwt>
<rscale>  0 0.29279681E+04</rscale>
<asrwt>0</asrwt>
<pdfrwt beam="1">  1        2 0.38335817E+00 0.29279681E+04</pdfrwt>
<pdfrwt beam="2">  1       -2 0.13232480E+00 0.29279681E+04</pdfrwt>
<totfact> 0.12579160E+00</totfact>
</mgrwt>
</event>
<event>
 6    1  0.2238133E-007  0.3032869E+04  0.7818608E-02  0.8234407E-01
         -2   -1    0    0    0  501 -0.00000000000E+00  0.00000000000E+00  0.20204937830E+04  0.20204937830E+04  0.00000000000E+00 0.  1.
          2   -1    0    0  501    0  0.00000000000E+00 -0.00000000000E+00 -0.11381244609E+04  0.11381244609E+04  0.00000000000E+00 0. -1.
         23    2    1    2    0    0  0.47510740742E+03 -0.14365250670E+04  0.36098656956E+03  0.15582522572E+04  0.92235985155E+02 0.  0.
         13    1    3    3    0    0  0.15859523678E+03 -0.53543964129E+03  0.17538633538E+03  0.58532762213E+03  0.00000000000E+00 0. -1.
        -13    1    3    3    0    0  0.31651217064E+03 -0.90108542574E+03  0.18560023418E+03  0.97292463510E+03  0.00000000000E+00 0.  1.
         22    1    1    2    0    0 -0.47510740742E+03  0.14365250670E+04  0.52138275257E+03  0.16003659867E+04  0.00000000000E+00 0. -1.
<mgrwt>
<rscale>  0 0.30328689E+04</rscale>
<asrwt>0</asrwt>
<pdfrwt beam="1">  1        2 0.17509607E+00 0.30328689E+04</pdfrwt>
<pdfrwt beam="2">  1       -2 0.31084520E+00 0.30328689E+04</pdfrwt>
<totfact> 0.48047956E-01</totfact>
</mgrwt>
</event>
<event>
 6    1  0.2238133E-007  0.5476947E+03  0.7818608E-02  0.1002029E+00
          2   -1    0    0  501    0  0.00000000000E+00  0.00000000000E+00  0.87185090984E+03  0.87185090984E+03  0.00000000000E+00 0. -1.
         -2   -1    0    0    0  501 -0.00000000000E+00 -0.00000000000E+00 -0.86015142765E+02  0.86015142765E+02  0.00000000000E+00 0.  1.
         23    2    1    2    0    0 -0.20888109132E+03  0.13757317081E+03  0.25024284037E+03  0.36675060637E+03  0.96575568738E+02 0.  0.
         11    1    3    3    0    0 -0.15873347140E+03  0.75923612778E+02  0.11601294247E+03  0.21075984613E+03  0.00000000000E+00 0.  1.
        -11    1    3    3    0    0 -0.50147619920E+02  0.61649558037E+02  0.13422989790E+03  0.15599076024E+03  0.00000000000E+00 0. -1.
         22    1    1    2    0    0  0.20888109132E+03 -0.13757317081E+03  0.53559292670E+03  0.59111544623E+03  0.00000000000E+00 0. -1.
<mgrwt>
<rscale>  0 0.54769473E+03</rscale>
<asrwt>0</asrwt>
<pdfrwt beam="1">  1        2 0.13413090E+00 0.54769473E+03</pdfrwt>
<pdfrwt beam="2">  1       -2 0.13233100E-01 0.54769473E+03</pdfrwt>
<totfact> 0.13328660E+03</totfact>
</mgrwt>
</event>
<event>
 6    1  0.2238133E-007  0.1309456E+04  0.7818608E-02  0.9022100E-01
         -2   -1    0    0    0  501 -0.00000000000E+00  0.00000000000E+00  0.21135021621E+03  0.21135021621E+03  0.00000000000E+00 0.  1.
          2   -1    0    0  501    0  0.00000000000E+00 -0.00000000000E+00 -0.20282388617E+04  0.20282388617E+04  0.00000000000E+00 0. -1.
         23    2    1    2    0    0 -0.16965668750E+03 -0.73389894295E+02 -0.19815270236E+04  0.19920506692E+04  0.87447443728E+02 0.  0.
         11    1    3    3    0    0 -0.71503572676E+02  0.35446859571E+01 -0.10131481942E+04  0.10156744504E+04  0.00000000000E+00 0.  1.
        -11    1    3    3    0    0 -0.98153114821E+02 -0.76934580252E+02 -0.96837882937E+03  0.97637621886E+03  0.00000000000E+00 0. -1.
         22    1    1    2    0    0  0.16965668750E+03  0.73389894295E+02  0.16463837813E+03  0.24753840864E+03  0.00000000000E+00 0.  1.
<mgrwt>
<rscale>  0 0.13094560E+04</rscale>
<asrwt>0</asrwt>
<pdfrwt beam="1">  1        2 0.31203675E+00 0.13094560E+04</pdfrwt>
<pdfrwt beam="2">  1       -2 0.32515418E-01 0.13094560E+04</pdfrwt>
<totfact> 0.55686461E+01</totfact>
</mgrwt>
</event>
<event>
 6    1  0.2238133E-007  0.3287904E+04  0.7818608E-02  0.8165980E-01
          2   -1    0    0  501    0  0.00000000000E+00  0.00000000000E+00  0.98453067502E+03  0.98453067502E+03  0.00000000000E+00 0. -1.
         -2   -1    0    0    0  501 -0.00000000000E+00 -0.00000000000E+00 -0.27450427757E+04  0.27450427757E+04  0.00000000000E+00 0.  1.
         23    2    1    2    0    0 -0.10964894801E+04 -0.31791821536E+03 -0.22206998842E+04  0.24986656687E+04  0.91983565388E+02 0.  0.
         11    1    3    3    0    0 -0.55355585746E+03 -0.15039740211E+03 -0.12136761560E+04  0.13424057798E+04  0.00000000000E+00 0. -1.
        -11    1    3    3    0    0 -0.54293362265E+03 -0.16752081325E+03 -0.10070237282E+04  0.11562598889E+04  0.00000000000E+00 0.  1.
         22    1    1    2    0    0  0.10964894801E+04  0.31791821536E+03  0.46018778359E+03  0.12309077820E+04  0.00000000000E+00 0. -1.
<mgrwt>
<rscale>  0 0.32879044E+04</rscale>
<asrwt>0</asrwt>
<pdfrwt beam="1">  1        2 0.15146626E+00 0.32879044E+04</pdfrwt>
<pdfrwt beam="2">  1       -2 0.42231427E+00 0.32879044E+04</pdfrwt>
<totfact> 0.11393306E-01</totfact>
</mgrwt>
</event>
<event>
 6    1  0.2238133E-007  0.2001730E+04  0.7818608E-02  0.8605812E-01
         -2   -1    0    0    0  501 -0.00000000000E+00  0.00000000000E+00  0.94327375154E+03  0.94327375154E+03  0.00000000000E+00 0.  1.
          2   -1    0    0  501    0  0.00000000000E+00 -0.00000000000E+00 -0.10619728117E+04  0.10619728117E+04  0.00000000000E+00 0. -1.
         23    2    1    2    0    0 -0.61570579838E+03 -0.68856255447E+03 -0.43995430763E+03  0.10272808402E+04  0.92380247797E+02 0.  0.
         13    1    3    3    0    0 -0.31618943699E+03 -0.33935515886E+03 -0.27088823493E+03  0.53713882725E+03  0.00000000000E+00 0. -1.
        -13    1    3    3    0    0 -0.29951636138E+03 -0.34920739561E+03 -0.16906607270E+03  0.49014201291E+03  0.00000000000E+00 0.  1.
         22    1    1    2    0    0  0.61570579838E+03  0.68856255447E+03  0.32125524744E+03  0.97796572311E+03  0.00000000000E+00 0.  1.
<mgrwt>
<rscale>  0 0.20017303E+04</rscale>
<asrwt>0</asrwt>
<pdfrwt beam="1">  1        2 0.16338043E+00 0.20017303E+04</pdfrwt>
<pdfrwt beam="2">  1       -2 0.14511904E+00 0.20017303E+04</pdfrwt>
<totfact> 0.69876882E+00</totfact>
</mgrwt>
</event>
<event>
 6    1  0.2238133E-007  0.2341469E+04  0.7818608E-02  0.8461748E-01
          2   -1    0    0  501    0  0.00000000000E+00  0.00000000000E+00  0.95927928445E+03  0.95927928445E+03  0.00000000000E+00 0. -1.
         -2   -1    0    0    0  501 -0.00000000000E+00 -0.00000000000E+00 -0.14288005143E+04  0.14288005143E+04  0.00000000000E+00 0.  1.
         23    2    1    2    0    0 -0.46362209507E+03  0.32961032141E+03  0.80618994293E+03  0.99128797197E+03  0.95505017096E+02 0.  0.
         13    1    3    3    0    0 -0.24079381255E+03  0.21286628495E+03  0.50838122804E+03  0.60145256543E+03  0.00000000000E+00 0.  1.
        -13    1    3    3    0    0 -0.22282828251E+03  0.11674403645E+03  0.29780871488E+03  0.38983540655E+03  0.00000000000E+00 0. -1.
         22    1    1    2    0    0  0.46362209507E+03 -0.32961032141E+03 -0.12757111727E+04  0.13967918268E+04  0.00000000000E+00 0.  1.
<mgrwt>
<rscale>  0 0.23414685E+04</rscale>
<asrwt>0</asrwt>
<pdfrwt beam="1">  1        2 0.14758143E+00 0.23414685E+04</pdfrwt>
<pdfrwt beam="2">  1       -2 0.21981546E+00 0.23414685E+04</pdfrwt>
<totfact> 0.23965832E+00</totfact>
</mgrwt>
</event>
<event>
 6    1  0.2238133E-007  0.2466950E+04  0.7818608E-02  0.8414855E-01
          2   -1    0    0  501    0  0.00000000000E+00  0.00000000000E+00  0.10159719049E+04  0.10159719049E+04  0.00000000000E+00 0. -1.
         -2   -1    0    0    0  501 -0.00000000000E+00 -0.00000000000E+00 -0.14975417913E+04  0.14975417913E+04  0.00000000000E+00 0.  1.
         23    2    1    2    0    0  0.21069340458E+03 -0.92562637506E+03  0.55854318067E+03  0.11053194308E+04  0.92653453472E+02 0.  0.
         13    1    3    3    0    0  0.27120881801E+02 -0.17538573232E+03  0.14518804498E+03  0.22929296922E+03  0.00000000000E+00 0. -1.
        -13    1    3    3    0    0  0.18357252278E+03 -0.75024064274E+03  0.41335513569E+03  0.87602646155E+03  0.00000000000E+00 0.  1.
         22    1    1    2    0    0 -0.21069340458E+03  0.92562637506E+03 -0.10401130671E+04  0.14081942654E+04  0.00000000000E+00 0.  1.
<mgrwt>
<rscale>  0 0.24669498E+04</rscale>
<asrwt>0</asrwt>
<pdfrwt beam="1">  1        2 0.15630337E+00 0.24669498E+04</pdfrwt>
<pdfrwt beam="2">  1       -2 0.23039105E+00 0.24669498E+04</pdfrwt>
<totfact> 0.18701936E+00</totfact>
</mgrwt>
</event>
<event>
 6    1  0.2238133E-007  0.3542172E+04  0.7818608E-02  0.8103868E-01
         -1   -1    0    0    0  501 -0.00000000000E+00  0.00000000000E+00  0.85725098244E+03  0.85725098244E+03  0.00000000000E+00 0.  1.
          1   -1    0    0  501    0  0.00000000000E+00 -0.00000000000E+00 -0.36590759023E+04  0.36590759023E+04  0.00000000000E+00 0. -1.
         23    2    1    2    0    0 -0.18912592098E+03 -0.19001420709E+03 -0.36324763295E+04  0.36434833837E+04  0.90624887308E+02 0.  0.
         11    1    3    3    0    0 -0.11129093804E+03 -0.73539595899E+02 -0.13064253083E+04  0.13132177394E+04  0.00000000000E+00 0. -1.
        -11    1    3    3    0    0 -0.77834982934E+02 -0.11647461119E+03 -0.23260510212E+04  0.23302656443E+04  0.00000000000E+00 0.  1.
         22    1    1    2    0    0  0.18912592098E+03  0.19001420709E+03  0.83065140965E+03  0.87284350100E+03  0.00000000000E+00 0.  1.
<mgrwt>
<rscale>  0 0.35421724E+04</rscale>
<asrwt>0</asrwt>
<pdfrwt beam="1">  1        1 0.56293475E+00 0.35421724E+04</pdfrwt>
<pdfrwt beam="2">  1       -1 0.13188477E+00 0.35421724E+04</pdfrwt>
<totfact> 0.73936613E-02</totfact>
</mgrwt>
</event>
<event>
 6    1  0.2238133E-007  0.7066160E+03  0.7818608E-02  0.9705984E-01
         -2   -1    0    0    0  501 -0.00000000000E+00  0.00000000000E+00  0.93418974867E+02  0.93418974867E+02  0.00000000000E+00 0.  1.
          2   -1    0    0  501    0  0.00000000000E+00 -0.00000000000E+00 -0.13362010137E+04  0.13362010137E+04  0.00000000000E+00 0. -1.
         23    2    1    2    0    0 -0.18711575659E+03  0.25416617953E+03 -0.92536617855E+03  0.98199784709E+03  0.91675809758E+02 0.  0.
         11    1    3    3    0    0 -0.97986396831E+02  0.20205017353E+03 -0.60011368118E+03  0.64075115054E+03  0.00000000000E+00 0. -1.
        -11    1    3    3    0    0 -0.89129359760E+02  0.52116005994E+02 -0.32525249738E+03  0.34124669654E+03  0.00000000000E+00 0.  1.
         22    1    1    2    0    0  0.18711575659E+03 -0.25416617953E+03 -0.31741586026E+03  0.44762214146E+03  0.00000000000E+00 0.  1.
<mgrwt>
<rscale>  0 0.70661596E+03</rscale>
<asrwt>0</asrwt>
<pdfrwt beam="1">  1        2 0.20556936E+00 0.70661596E+03</pdfrwt>
<pdfrwt beam="2">  1       -2 0.14372152E-01 0.70661596E+03</pdfrwt>
<totfact> 0.59989864E+02</totfact>
</mgrwt>
</event>
<event>
 6    1  0.2238133E-007  0.6032217E+03  0.7818608E-02  0.9898745E-01
         -1   -1    0    0    0  501 -0.00000000000E+00  0.00000000000E+00  0.10167813973E+04  0.10167813973E+04  0.00000000000E+00 0.  1.
          1   -1    0    0  501    0  0.00000000000E+00 -0.00000000000E+00 -0.89467701833E+02  0.89467701833E+02  0.00000000000E+00 0. -1.
         23    2    1    2    0    0 -0.23084068139E+03  0.18255077600E+03  0.47635764691E+03  0.56775716444E+03  0.93911575398E+02 0.  0.
         13    1    3    3    0    0 -0.15945356449E+03  0.67684343734E+02  0.25215530627E+03  0.30592304277E+03  0.00000000000E+00 0. -1.
        -13    1    3    3    0    0 -0.71387116896E+02  0.11486643226E+03  0.22420234064E+03  0.26183412167E+03  0.00000000000E+00 0.  1.
         22    1    1    2    0    0  0.23084068139E+03 -0.18255077600E+03  0.45095604851E+03  0.53849193466E+03  0.00000000000E+00 0. -1.
<mgrwt>
<rscale>  0 0.60322167E+03</rscale>
<asrwt>0</asrwt>
<pdfrwt beam="1">  1        1 0.13764263E-01 0.60322167E+03</pdfrwt>
<pdfrwt beam="2">  1       -1 0.15642790E+00 0.60322167E+03</pdfrwt>
<totfact> 0.13814254E+02</totfact>
</mgrwt>
</event>
<event>
 6    1  0.2238133E-007  0.3620325E+04  0.7818608E-02  0.8085852E-01
          2   -1    0    0  501    0  0.00000000000E+00  0.00000000000E+00  0.17416008783E+04  0.17416008783E+04  0.00000000000E+00 0. -1.
         -2   -1    0    0    0  501 -0.00000000000E+00 -0.00000000000E+00 -0.18814231507E+04  0.18814231507E+04  0.00000000000E+00 0.  1.
         23    2    1    2    0    0  0.77961930309E+03  0.14071218999E+04 -0.89811305013E+03  0.18445968580E+04  0.90178817273E+02 0.  0.
         11    1    3    3    0    0  0.38994683555E+03  0.74272743430E+03 -0.51499678370E+03  0.98433950619E+03  0.00000000000E+00 0. -1.
        -11    1    3    3    0    0  0.38967246754E+03  0.66439446556E+03 -0.38311626642E+03  0.86025735186E+03  0.00000000000E+00 0.  1.
         22    1    1    2    0    0 -0.77961930309E+03 -0.14071218999E+04  0.75829077777E+03  0.17784271710E+04  0.00000000000E+00 0. -1.
<mgrwt>
<rscale>  0 0.36203250E+04</rscale>
<asrwt>0</asrwt>
<pdfrwt beam="1">  1        2 0.26793860E+00 0.36203250E+04</pdfrwt>
<pdfrwt beam="2">  1       -2 0.28944971E+00 0.36203250E+04</pdfrwt>
<totfact> 0.27896945E-01</totfact>
</mgrwt>
</event>
<event>
 6    1  0.2238133E-007  0.3176805E+04  0.7818608E-02  0.8194970E-01
         -2   -1    0    0    0  501 -0.00000000000E+00  0.00000000000E+00  0.13562888931E+04  0.13562888931E+04  0.00000000000E+00 0.  1.
          2   -1    0    0  501    0  0.00000000000E+00 -0.00000000000E+00 -0.18602391962E+04  0.18602391962E+04  0.00000000000E+00 0. -1.
         23    2    1    2    0    0  0.68822779324E+03  0.85458441071E+03 -0.14130012298E+04  0.17916261286E+04  0.96848844277E+02 0.  0.
         13    1    3    3    0    0  0.31746482239E+03  0.32182116656E+03 -0.55670176803E+03  0.71712595493E+03  0.00000000000E+00 0. -1.
        -13    1    3    3    0    0  0.37076297085E+03  0.53276324414E+03 -0.85629946181E+03  0.10745001736E+04  0.00000000000E+00 0.  1.
         22    1    1    2    0    0 -0.68822779324E+03 -0.85458441071E+03  0.90905092666E+03  0.14249019607E+04  0.00000000000E+00 0.  1.
<mgrwt>
<rscale>  0 0.31768045E+04</rscale>
<asrwt>0</asrwt>
<pdfrwt beam="1">  1        2 0.28619065E+00 0.31768045E+04</pdfrwt>
<pdfrwt beam="2">  1       -2 0.20865983E+00 0.31768045E+04</pdfrwt>
<totfact> 0.78741069E-01</totfact>
</mgrwt>
</event>
<event>
 6    1  0.2238133E-007  0.1540407E+04  0.7818608E-02  0.8858018E-01
          1   -1    0    0  501    0  0.00000000000E+00  0.00000000000E+00  0.84239894793E+03  0.84239894793E+03  0.00000000000E+00 0. -1.
         -1   -1    0    0    0  501 -0.00000000000E+00 -0.00000000000E+00 -0.70419572636E+03  0.70419572636E+03  0.00000000000E+00 0.  1.
         23    2    1    2    0    0 -0.72339574854E+03 -0.19437439474E+03  0.23717658507E+03  0.79102962678E+03  0.91609626105E+02 0.  0.
         11    1    3    3    0    0 -0.53599531246E+03 -0.18179536416E+03  0.19397259983E+03  0.59830251453E+03  0.00000000000E+00 0. -1.
        -11    1    3    3    0    0 -0.18740043609E+03 -0.12579030578E+02  0.43203985241E+02  0.19272711225E+03  0.00000000000E+00 0.  1.
         22    1    1    2    0    0  0.72339574854E+03  0.19437439474E+03 -0.98973363505E+02  0.75556504751E+03  0.00000000000E+00 0.  1.
<mgrwt>
<rscale>  0 0.15404074E+04</rscale>
<asrwt>0</asrwt>
<pdfrwt beam="1">  1        1 0.12959984E+00 0.15404074E+04</pdfrwt>
<pdfrwt beam="2">  1       -1 0.10833780E+00 0.15404074E+04</pdfrwt>
<totfact> 0.15510460E+01</totfact>
</mgrwt>
</event>
<event>
 6    1  0.2238133E-007  0.5282751E+04  0.7818608E-02  0.7786311E-01
          2   -1    0    0  501    0  0.00000000000E+00  0.00000000000E+00  0.20988077649E+04  0.20988077649E+04  0.00000000000E+00 0. -1.
         -2   -1    0    0    0  501 -0.00000000000E+00 -0.00000000000E+00 -0.33242034968E+04  0.33242034968E+04  0.00000000000E+00 0.  1.
         23    2    1    2    0    0 -0.21704622459E+04 -0.58312302325E+03 -0.20359871872E+04  0.30338697154E+04  0.90458846519E+02 0.  0.
         11    1    3    3    0    0 -0.10293775593E+04 -0.23305218265E+03 -0.93319702855E+03  0.14088251039E+04  0.00000000000E+00 0. -1.
        -11    1    3    3    0    0 -0.11410846866E+04 -0.35007084060E+03 -0.11027901586E+04  0.16250446115E+04  0.00000000000E+00 0.  1.
         22    1    1    2    0    0  0.21704622459E+04  0.58312302325E+03  0.81059145522E+03  0.23891415463E+04  0.00000000000E+00 0.  1.
<mgrwt>
<rscale>  0 0.52827508E+04</rscale>
<asrwt>0</asrwt>
<pdfrwt beam="1">  1        2 0.32289350E+00 0.52827508E+04</pdfrwt>
<pdfrwt beam="2">  1       -2 0.51141592E+00 0.52827508E+04</pdfrwt>
<totfact> 0.59409107E-03</totfact>
</mgrwt>
</event>
<event>
 6    1  0.2238133E-007  0.1968046E+04  0.7818608E-02  0.8621707E-01
         -1   -1    0    0    0  501 -0.00000000000E+00  0.00000000000E+00  0.22922287151E+04  0.22922287151E+04  0.00000000000E+00 0.  1.
          1   -1    0    0  501    0  0.00000000000E+00 -0.00000000000E+00 -0.42242805029E+03  0.42242805029E+03  0.00000000000E+00 0. -1.
         23    2    1    2    0    0  0.61473971644E+03 -0.49267834064E+00 -0.11941667769E+03  0.63261670876E+03  0.89657100054E+02 0.  0.
         13    1    3    3    0    0  0.36672445924E+03  0.54517811631E+01 -0.11542187298E+03  0.38449806200E+03  0.00000000000E+00 0.  1.
        -13    1    3    3    0    0  0.24801525720E+03 -0.59444595037E+01 -0.39948047082E+01  0.24811864675E+03  0.00000000000E+00 0. -1.
         22    1    1    2    0    0 -0.61473971644E+03  0.49267834064E+00  0.19892173425E+04  0.20820400566E+04  0.00000000000E+00 0.  1.
<mgrwt>
<rscale>  0 0.19680464E+04</rscale>
<asrwt>0</asrwt>
<pdfrwt beam="1">  1        1 0.64988932E-01 0.19680464E+04</pdfrwt>
<pdfrwt beam="2">  1       -1 0.35265056E+00 0.19680464E+04</pdfrwt>
<totfact> 0.77537035E-01</totfact>
</mgrwt>
</event>
<event>
 6    1  0.2238133E-007  0.3488127E+04  0.7818608E-02  0.8116609E-01
          2   -1    0    0  501    0  0.00000000000E+00  0.00000000000E+00  0.20819505841E+04  0.20819505841E+04  0.00000000000E+00 0. -1.
         -2   -1    0    0    0  501 -0.00000000000E+00 -0.00000000000E+00 -0.14610136081E+04  0.14610136081E+04  0.00000000000E+00 0.  1.
         23    2    1    2    0    0 -0.41760139858E+03 -0.16918992324E+04  0.30187286512E+03  0.17713220591E+04  0.97676351017E+02 0.  0.
         13    1    3    3    0    0 -0.20924330823E+03 -0.98352602796E+03  0.13784646204E+03  0.10149422924E+04  0.00000000000E+00 0.  1.
        -13    1    3    3    0    0 -0.20835809036E+03 -0.70837320444E+03  0.16402640308E+03  0.75637976671E+03  0.00000000000E+00 0. -1.
         22    1    1    2    0    0  0.41760139858E+03  0.16918992324E+04  0.31906411088E+03  0.17716421330E+04  0.00000000000E+00 0.  1.
<mgrwt>
<rscale>  0 0.34881274E+04</rscale>
<asrwt>0</asrwt>
<pdfrwt beam="1">  1        2 0.32030009E+00 0.34881274E+04</pdfrwt>
<pdfrwt beam="2">  1       -2 0.22477132E+00 0.34881274E+04</pdfrwt>
<totfact> 0.45614100E-01</totfact>
</mgrwt>
</event>
<event>
 6    1  0.2238133E-007  0.1688068E+04  0.7818608E-02  0.8768199E-01
          2   -1    0    0  501    0  0.00000000000E+00  0.00000000000E+00  0.25073266031E+03  0.25073266031E+03  0.00000000000E+00 0. -1.
         -2   -1    0    0    0  501 -0.00000000000E+00 -0.00000000000E+00 -0.28412484208E+04  0.28412484208E+04  0.00000000000E+00 0.  1.
         23    2    1    2    0    0  0.42236875396E+03  0.65336243948E+03 -0.18862188923E+04  0.20425469859E+04  0.94332593955E+02 0.  0.
         11    1    3    3    0    0  0.74627923629E+02  0.14150172691E+03 -0.30187174368E+03  0.34164106214E+03  0.00000000000E+00 0.  1.
        -11    1    3    3    0    0  0.34774083033E+03  0.51186071257E+03 -0.15843471486E+04  0.17009059238E+04  0.00000000000E+00 0. -1.
         22    1    1    2    0    0 -0.42236875396E+03 -0.65336243948E+03 -0.70429686819E+03  0.10494340952E+04  0.00000000000E+00 0. -1.
<mgrwt>
<rscale>  0 0.16880685E+04</rscale>
<asrwt>0</asrwt>
<pdfrwt beam="1">  1        2 0.38574255E-01 0.16880685E+04</pdfrwt>
<pdfrwt beam="2">  1       -2 0.43711514E+00 0.16880685E+04</pdfrwt>
<totfact> 0.54283540E-01</totfact>
</mgrwt>
</event>
<event>
 6    1  0.2238133E-007  0.1813521E+04  0.7818608E-02  0.8699142E-01
         -2   -1    0    0    0  501 -0.00000000000E+00  0.00000000000E+00  0.93867799700E+03  0.93867799700E+03  0.00000000000E+00 0.  1.
          2   -1    0    0  501    0  0.00000000000E+00 -0.00000000000E+00 -0.87592874031E+03  0.87592874031E+03  0.00000000000E+00 0. -1.
         23    2    1    2    0    0  0.57689013574E+03 -0.53727114560E+03  0.47596477455E+03  0.92454517944E+03  0.82333526650E+02 0.  0.
         11    1    3    3    0    0  0.46487151637E+03 -0.46660884970E+03  0.41704514120E+03  0.77958706707E+03  0.00000000000E+00 0. -1.
        -11    1    3    3    0    0  0.11201861937E+03 -0.70662295904E+02  0.58919633343E+02  0.14495811237E+03  0.00000000000E+00 0.  1.
         22    1    1    2    0    0 -0.57689013574E+03  0.53727114560E+03 -0.41321551786E+03  0.89006155787E+03  0.00000000000E+00 0. -1.
<mgrwt>
<rscale>  0 0.18135215E+04</rscale>
<asrwt>0</asrwt>
<pdfrwt beam="1">  1        2 0.13475827E+00 0.18135215E+04</pdfrwt>
<pdfrwt beam="2">  1       -2 0.14441200E+00 0.18135215E+04</pdfrwt>
<totfact> 0.95089515E+00</totfact>
</mgrwt>
</event>
<event>
 6    1  0.2238133E-007  0.3387368E+04  0.7818608E-02  0.8141013E-01
          2   -1    0    0  501    0  0.00000000000E+00  0.00000000000E+00  0.13931591972E+04  0.13931591972E+04  0.00000000000E+00 0. -1.
         -2   -1    0    0    0  501 -0.00000000000E+00 -0.00000000000E+00 -0.20590368657E+04  0.20590368657E+04  0.00000000000E+00 0.  1.
         23    2    1    2    0    0 -0.30361402323E+03 -0.15264643814E+04 -0.10097680760E+04  0.18582902956E+04  0.10647193332E+03 0.  0.
         13    1    3    3    0    0 -0.56567401359E+02 -0.54456953834E+03 -0.35167936037E+03  0.65071823817E+03  0.00000000000E+00 0.  1.
        -13    1    3    3    0    0 -0.24704662187E+03 -0.98189484307E+03 -0.65808871565E+03  0.12075720574E+04  0.00000000000E+00 0. -1.
         22    1    1    2    0    0  0.30361402323E+03  0.15264643814E+04  0.34389040754E+03  0.15939057673E+04  0.00000000000E+00 0. -1.
<mgrwt>
<rscale>  0 0.33873684E+04</rscale>
<asrwt>0</asrwt>
<pdfrwt beam="1">  1        2 0.21433218E+00 0.33873684E+04</pdfrwt>
<pdfrwt beam="2">  1       -2 0.31677490E+00 0.33873684E+04</pdfrwt>
<totfact> 0.30348691E-01</totfact>
</mgrwt>
</event>
<event>
 6    1  0.2238133E-007  0.1699972E+04  0.7818608E-02  0.8761380E-01
         -2   -1    0    0    0  501 -0.00000000000E+00  0.00000000000E+00  0.13320670456E+04  0.13320670456E+04  0.00000000000E+00 0.  1.
          2   -1    0    0  501    0  0.00000000000E+00 -0.00000000000E+00 -0.54237236030E+03  0.54237236030E+03  0.00000000000E+00 0. -1.
         23    2    1    2    0    0  0.17270013083E+03 -0.72789883503E+03 -0.44432636840E+02  0.75397948302E+03  0.82757189308E+02 0.  0.
         13    1    3    3    0    0  0.10228976997E+03 -0.56876600903E+03 -0.19794217929E+02  0.57822986876E+03  0.00000000000E+00 0.  1.
        -13    1    3    3    0    0  0.70410360853E+02 -0.15913282600E+03 -0.24638418911E+02  0.17574961426E+03  0.00000000000E+00 0. -1.
         22    1    1    2    0    0 -0.17270013083E+03  0.72789883503E+03  0.83412732210E+03  0.11204599228E+04  0.00000000000E+00 0.  1.
<mgrwt>
<rscale>  0 0.16999722E+04</rscale>
<asrwt>0</asrwt>
<pdfrwt beam="1">  1        2 0.83441902E-01 0.16999722E+04</pdfrwt>
<pdfrwt beam="2">  1       -2 0.20493339E+00 0.16999722E+04</pdfrwt>
<totfact> 0.65707592E+00</totfact>
</mgrwt>
</event>
<event>
 6    1  0.2238133E-007  0.9005144E+03  0.7818608E-02  0.9424939E-01
          2   -1    0    0  501    0  0.00000000000E+00  0.00000000000E+00  0.15262112338E+04  0.15262112338E+04  0.00000000000E+00 0. -1.
         -2   -1    0    0    0  501 -0.00000000000E+00 -0.00000000000E+00 -0.13283321522E+03  0.13283321522E+03  0.00000000000E+00 0.  1.
         23    2    1    2    0    0  0.30544532343E+03 -0.12612968953E+03  0.15311169748E+03  0.37550789269E+03  0.91419042781E+02 0.  0.
         13    1    3    3    0    0  0.22825202832E+03 -0.50176878876E+02  0.11698371801E+03  0.26134631791E+03  0.00000000000E+00 0.  1.
        -13    1    3    3    0    0  0.77193295116E+02 -0.75952810655E+02  0.36127979467E+02  0.11416157479E+03  0.00000000000E+00 0. -1.
         22    1    1    2    0    0 -0.30544532343E+03  0.12612968953E+03  0.12402663211E+04  0.12835365564E+04  0.00000000000E+00 0. -1.
<mgrwt>
<rscale>  0 0.90051440E+03</rscale>
<asrwt>0</asrwt>
<pdfrwt beam="1">  1        2 0.23480172E+00 0.90051440E+03</pdfrwt>
<pdfrwt beam="2">  1       -2 0.20435880E-01 0.90051440E+03</pdfrwt>
<totfact> 0.25318179E+02</totfact>
</mgrwt>
</event>
<event>
 6    1  0.2301626E-007  0.2268450E+04  0.7818608E-02  0.8490466E-01
          2   -1    0    0  501    0  0.00000000000E+00  0.00000000000E+00  0.13052156474E+04  0.13052156474E+04  0.00000000000E+00 0. -1.
         -2   -1    0    0    0  501 -0.00000000000E+00 -0.00000000000E+00 -0.98563523018E+03  0.98563523018E+03  0.00000000000E+00 0.  1.
         23    2    1    2    0    0  0.11886687168E+03 -0.11017906252E+04 -0.74838842275E+02  0.11145692501E+04  0.92692211533E+02 0.  0.
         11    1    3    3    0    0 -0.30923293782E-01 -0.38122982656E+03 -0.95060711475E+01  0.38134832765E+03  0.00000000000E+00 0. -1.
        -11    1    3    3    0    0  0.11889779497E+03 -0.72056079861E+03 -0.65332771127E+02  0.73322092245E+03  0.00000000000E+00 0.  1.
         22    1    1    2    0    0 -0.11886687168E+03  0.11017906252E+04  0.39441925950E+03  0.11762816275E+04  0.00000000000E+00 0. -1.
<mgrwt>
<rscale>  0 0.22684502E+04</rscale>
<asrwt>0</asrwt>
<pdfrwt beam="1">  1        2 0.20080241E+00 0.22684502E+04</pdfrwt>
<pdfrwt beam="2">  1       -2 0.15163619E+00 0.22684502E+04</pdfrwt>
<totfact> 0.43441604E+00</totfact>
</mgrwt>
</event>
<event>
 6    1  0.2238133E-007  0.1807465E+04  0.7818608E-02  0.8702340E-01
          2   -1    0    0  501    0  0.00000000000E+00  0.00000000000E+00  0.29813071965E+04  0.29813071965E+04  0.00000000000E+00 0. -1.
         -2   -1    0    0    0  501 -0.00000000000E+00 -0.00000000000E+00 -0.27395110760E+03  0.27395110760E+03  0.00000000000E+00 0.  1.
         23    2    1    2    0    0  0.65647807426E+03 -0.61718779975E+03  0.14144764579E+04  0.16793706233E+04  0.87508847553E+02 0.  0.
         11    1    3    3    0    0  0.24393694833E+03 -0.21301751340E+03  0.58463611670E+03  0.66834204172E+03  0.00000000000E+00 0. -1.
        -11    1    3    3    0    0  0.41254112592E+03 -0.40417028635E+03  0.82984034116E+03  0.10110285816E+04  0.00000000000E+00 0.  1.
         22    1    1    2    0    0 -0.65647807426E+03  0.61718779975E+03  0.12928796310E+04  0.15758876808E+04  0.00000000000E+00 0. -1.
<mgrwt>
<rscale>  0 0.18074650E+04</rscale>
<asrwt>0</asrwt>
<pdfrwt beam="1">  1        2 0.45866262E+00 0.18074650E+04</pdfrwt>
<pdfrwt beam="2">  1       -2 0.42146326E-01 0.18074650E+04</pdfrwt>
<totfact> 0.90379019E+00</totfact>
</mgrwt>
</event>
<event>
 6    1  0.2238133E-007  0.1846354E+04  0.7818608E-02  0.8682030E-01
          2   -1    0    0  501    0  0.00000000000E+00  0.00000000000E+00  0.24867337426E+04  0.24867337426E+04  0.00000000000E+00 0. -1.
         -2   -1    0    0    0  501 -0.00000000000E+00 -0.00000000000E+00 -0.34272098605E+03  0.34272098605E+03  0.00000000000E+00 0.  1.
         23    2    1    2    0    0 -0.13643983273E+03 -0.41418100590E+03 -0.16876954873E+03  0.47592042357E+03  0.88630442750E+02 0.  0.
         13    1    3    3    0    0 -0.91718363405E+02 -0.36954577311E+03 -0.13302748925E+03  0.40332697592E+03  0.00000000000E+00 0. -1.
        -13    1    3    3    0    0 -0.44721469326E+02 -0.44635232793E+02 -0.35742059480E+02  0.72593447645E+02  0.00000000000E+00 0.  1.
         22    1    1    2    0    0  0.13643983273E+03  0.41418100590E+03  0.23127823053E+04  0.23535343051E+04  0.00000000000E+00 0. -1.
<mgrwt>
<rscale>  0 0.18463541E+04</rscale>
<asrwt>0</asrwt>
<pdfrwt beam="1">  1        2 0.38257441E+00 0.18463541E+04</pdfrwt>
<pdfrwt beam="2">  1       -2 0.52726307E-01 0.18463541E+04</pdfrwt>
<totfact> 0.11319881E+01</totfact>
</mgrwt>
</event>
<event>
 6    1  0.2238133E-007  0.1637995E+04  0.7818608E-02  0.8797540E-01
         -1   -1    0    0    0  501 -0.00000000000E+00  0.00000000000E+00  0.35970484087E+03  0.35970484087E+03  0.00000000000E+00 0.  1.
          1   -1    0    0  501    0  0.00000000000E+00 -0.00000000000E+00 -0.18647433122E+04  0.18647433122E+04  0.00000000000E+00 0. -1.
         23    2    1    2    0    0 -0.44938428762E+02  0.26670772865E+03 -0.18010699197E+04  0.18234654934E+04  0.89560455533E+02 0.  0.
         13    1    3    3    0    0  0.25290436144E+02  0.40677753901E+02 -0.33694695977E+03  0.34033445245E+03  0.00000000000E+00 0. -1.
        -13    1    3    3    0    0 -0.70228864905E+02  0.22602997475E+03 -0.14641229599E+04  0.14831310409E+04  0.00000000000E+00 0.  1.
         22    1    1    2    0    0  0.44938428762E+02 -0.26670772865E+03  0.29603144837E+03  0.40098265963E+03  0.00000000000E+00 0.  1.
<mgrwt>
<rscale>  0 0.16379954E+04</rscale>
<asrwt>0</asrwt>
<pdfrwt beam="1">  1        1 0.28688359E+00 0.16379954E+04</pdfrwt>
<pdfrwt beam="2">  1       -1 0.55339205E-01 0.16379954E+04</pdfrwt>
<totfact> 0.11627636E+01</totfact>
</mgrwt>
</event>
<event>
 6    1  0.2238133E-007  0.1238959E+04  0.7818608E-02  0.9079423E-01
         -1   -1    0    0    0  501 -0.00000000000E+00  0.00000000000E+00  0.12927593135E+03  0.12927593135E+03  0.00000000000E+00 0.  1.
          1   -1    0    0  501    0  0.00000000000E+00 -0.00000000000E+00 -0.29684959045E+04  0.29684959045E+04  0.00000000000E+00 0. -1.
         23    2    1    2    0    0 -0.60105575122E+03 -0.46760945760E+02 -0.17446781997E+04  0.18481813845E+04  0.91748611056E+02 0.  0.
         11    1    3    3    0    0 -0.28994567162E+03 -0.64134592700E+02 -0.79197663616E+03  0.84581837926E+03  0.00000000000E+00 0. -1.
        -11    1    3    3    0    0 -0.31111007960E+03  0.17373646940E+02 -0.95270156350E+03  0.10023630053E+04  0.00000000000E+00 0.  1.
         22    1    1    2    0    0  0.60105575122E+03  0.46760945760E+02 -0.10945417735E+04  0.12495904513E+04  0.00000000000E+00 0. -1.
<mgrwt>
<rscale>  0 0.12389594E+04</rscale>
<asrwt>0</asrwt>
<pdfrwt beam="1">  1        1 0.45669163E+00 0.12389594E+04</pdfrwt>
<pdfrwt beam="2">  1       -1 0.19888607E-01 0.12389594E+04</pdfrwt>
<totfact> 0.12988854E+01</totfact>
</mgrwt>
</event>
<event>
 6    1  0.2238133E-007  0.1306176E+04  0.7818608E-02  0.9024682E-01
         -2   -1    0    0    0  501 -0.00000000000E+00  0.00000000000E+00  0.20677060530E+03  0.20677060530E+03  0.00000000000E+00 0.  1.
          2   -1    0    0  501    0  0.00000000000E+00 -0.00000000000E+00 -0.20627885138E+04  0.20627885138E+04  0.00000000000E+00 0. -1.
         23    2    1    2    0    0 -0.17218034726E+03  0.35410666265E+03 -0.18306001493E+04  0.18749914279E+04  0.97254035824E+02 0.  0.
         13    1    3    3    0    0 -0.96526190522E+02  0.23746863742E+03 -0.13735554566E+04  0.13972699280E+04  0.00000000000E+00 0. -1.
        -13    1    3    3    0    0 -0.75654156739E+02  0.11663802523E+03 -0.45704469263E+03  0.47772149985E+03  0.00000000000E+00 0.  1.
         22    1    1    2    0    0  0.17218034726E+03 -0.35410666265E+03 -0.25417759247E+02  0.39456769128E+03  0.00000000000E+00 0.  1.
<mgrwt>
<rscale>  0 0.13061761E+04</rscale>
<asrwt>0</asrwt>
<pdfrwt beam="1">  1        2 0.31735207E+00 0.13061761E+04</pdfrwt>
<pdfrwt beam="2">  1       -2 0.31810863E-01 0.13061761E+04</pdfrwt>
<totfact> 0.55544292E+01</totfact>
</mgrwt>
</event>
<event>
 6    1  0.2238133E-007  0.4627555E+04  0.7818608E-02  0.7888678E-01
          2   -1    0    0  501    0  0.00000000000E+00  0.00000000000E+00  0.21268718362E+04  0.21268718362E+04  0.00000000000E+00 0. -1.
         -2   -1    0    0    0  501 -0.00000000000E+00 -0.00000000000E+00 -0.25171082878E+04  0.25171082878E+04  0.00000000000E+00 0.  1.
         23    2    1    2    0    0 -0.93625863576E+03  0.12667592813E+04 -0.18947440566E+04  0.24657233799E+04  0.92072994579E+02 0.  0.
         13    1    3    3    0    0 -0.68711728811E+03  0.88723550659E+03 -0.14000191542E+04  0.17942604727E+04  0.00000000000E+00 0. -1.
        -13    1    3    3    0    0 -0.24914134765E+03  0.37952377470E+03 -0.49472490241E+03  0.67146290720E+03  0.00000000000E+00 0.  1.
         22    1    1    2    0    0  0.93625863576E+03 -0.12667592813E+04  0.15045076050E+04  0.21782567441E+04  0.00000000000E+00 0. -1.
<mgrwt>
<rscale>  0 0.46275552E+04</rscale>
<asrwt>0</asrwt>
<pdfrwt beam="1">  1        2 0.32721105E+00 0.46275552E+04</pdfrwt>
<pdfrwt beam="2">  1       -2 0.38724743E+00 0.46275552E+04</pdfrwt>
<totfact> 0.38261495E-02</totfact>
</mgrwt>
</event>
<event>
 6    1  0.3579525E-007  0.5147033E+04  0.7818608E-02  0.7806218E-01
         -2   -1    0    0    0  501 -0.00000000000E+00  0.00000000000E+00  0.27874100608E+04  0.27874100608E+04  0.00000000000E+00 0.  1.
          2   -1    0    0  501    0  0.00000000000E+00 -0.00000000000E+00 -0.23760365653E+04  0.23760365653E+04  0.00000000000E+00 0. -1.
         23    2    1    2    0    0  0.25389505941E+04 -0.39297800574E+03  0.34133588710E+03  0.25933090620E+04  0.89665328281E+02 0.  0.
         11    1    3    3    0    0  0.77697586618E+03 -0.78776526698E+02  0.10814397441E+03  0.78841128669E+03  0.00000000000E+00 0.  1.
        -11    1    3    3    0    0  0.17619747279E+04 -0.31420147904E+03  0.23319191269E+03  0.18048977753E+04  0.00000000000E+00 0. -1.
         22    1    1    2    0    0 -0.25389505941E+04  0.39297800574E+03  0.70037608436E+02  0.25701375641E+04  0.00000000000E+00 0. -1.
<mgrwt>
<rscale>  0 0.51470334E+04</rscale>
<asrwt>0</asrwt>
<pdfrwt beam="1">  1        2 0.36554408E+00 0.51470334E+04</pdfrwt>
<pdfrwt beam="2">  1       -2 0.42883232E+00 0.51470334E+04</pdfrwt>
<totfact> 0.14178974E-02</totfact>
</mgrwt>
</event>
<event>
 6    1  0.2238133E-007  0.1706893E+04  0.7818608E-02  0.8757443E-01
          2   -1    0    0  501    0  0.00000000000E+00  0.00000000000E+00  0.17230045967E+04  0.17230045967E+04  0.00000000000E+00 0. -1.
         -2   -1    0    0    0  501 -0.00000000000E+00 -0.00000000000E+00 -0.42273310806E+03  0.42273310806E+03  0.00000000000E+00 0.  1.
         23    2    1    2    0    0 -0.24727293217E+03  0.80781478158E+03  0.52171453815E+03  0.99688630030E+03  0.88812229363E+02 0.  0.
         11    1    3    3    0    0 -0.12597580041E+03  0.34067713263E+03  0.17885647696E+03  0.40487090577E+03  0.00000000000E+00 0.  1.
        -11    1    3    3    0    0 -0.12129713176E+03  0.46713764895E+03  0.34285806119E+03  0.59201539454E+03  0.00000000000E+00 0. -1.
         22    1    1    2    0    0  0.24727293217E+03 -0.80781478158E+03  0.77855695046E+03  0.11488514044E+04  0.00000000000E+00 0. -1.
<mgrwt>
<rscale>  0 0.17068932E+04</rscale>
<asrwt>0</asrwt>
<pdfrwt beam="1">  1        2 0.26507763E+00 0.17068932E+04</pdfrwt>
<pdfrwt beam="2">  1       -2 0.65035864E-01 0.17068932E+04</pdfrwt>
<totfact> 0.19744625E+01</totfact>
</mgrwt>
</event>
<event>
 6    1  0.2238133E-007  0.2637149E+04  0.7818608E-02  0.8355691E-01
          2   -1    0    0  501    0  0.00000000000E+00  0.00000000000E+00  0.32243927155E+04  0.32243927155E+04  0.00000000000E+00 0. -1.
         -2   -1    0    0    0  501 -0.00000000000E+00 -0.00000000000E+00 -0.53921448644E+03  0.53921448644E+03  0.00000000000E+00 0.  1.
         23    2    1    2    0    0 -0.10986635488E+04  0.60502584269E+03  0.19171698179E+04  0.22929084621E+04  0.93654904615E+02 0.  0.
         11    1    3    3    0    0 -0.74200019833E+02  0.19953649075E+02  0.95340585837E+02  0.12244843144E+03  0.00000000000E+00 0. -1.
        -11    1    3    3    0    0 -0.10244635289E+04  0.58507219362E+03  0.18218292321E+04  0.21704600307E+04  0.00000000000E+00 0.  1.
         22    1    1    2    0    0  0.10986635488E+04 -0.60502584269E+03  0.76800841112E+03  0.14706987398E+04  0.00000000000E+00 0.  1.
<mgrwt>
<rscale>  0 0.26371494E+04</rscale>
<asrwt>0</asrwt>
<pdfrwt beam="1">  1        2 0.49606041E+00 0.26371494E+04</pdfrwt>
<pdfrwt beam="2">  1       -2 0.82956076E-01 0.26371494E+04</pdfrwt>
<totfact> 0.14037522E+00</totfact>
</mgrwt>
</event>
<event>
 6    1  0.2238133E-007  0.6775054E+03  0.7818608E-02  0.9756493E-01
          2   -1    0    0  501    0  0.00000000000E+00  0.00000000000E+00  0.61398344048E+03  0.61398344048E+03  0.00000000000E+00 0. -1.
         -2   -1    0    0    0  501 -0.00000000000E+00 -0.00000000000E+00 -0.18689984184E+03  0.18689984184E+03  0.00000000000E+00 0.  1.
         23    2    1    2    0    0  0.30285016637E+03 -0.91931633976E+01  0.37961648017E+03  0.49419799599E+03  0.91215402734E+02 0.  0.
         11    1    3    3    0    0  0.27949548828E+03  0.18605667538E+02  0.33642016276E+03  0.43776983078E+03  0.00000000000E+00 0. -1.
        -11    1    3    3    0    0  0.23354678085E+02 -0.27798830936E+02  0.43196317416E+02  0.56428165203E+02  0.00000000000E+00 0.  1.
         22    1    1    2    0    0 -0.30285016637E+03  0.91931633976E+01  0.47467118458E+02  0.30668528634E+03  0.00000000000E+00 0.  1.
<mgrwt>
<rscale>  0 0.67750545E+03</rscale>
<asrwt>0</asrwt>
<pdfrwt beam="1">  1        2 0.94458990E-01 0.67750545E+03</pdfrwt>
<pdfrwt beam="2">  1       -2 0.28753822E-01 0.67750545E+03</pdfrwt>
<totfact> 0.53828148E+02</totfact>
</mgrwt>
</event>
<event>
 6    1  0.2238133E-007  0.4802160E+04  0.7818608E-02  0.7859772E-01
         -2   -1    0    0    0  501 -0.00000000000E+00  0.00000000000E+00  0.15587928670E+04  0.15587928670E+04  0.00000000000E+00 0.  1.
          2   -1    0    0  501    0  0.00000000000E+00 -0.00000000000E+00 -0.36984926830E+04  0.36984926830E+04  0.00000000000E+00 0. -1.
         23    2    1    2    0    0  0.80222782675E+03 -0.21575589282E+04 -0.18146398324E+04  0.29325718025E+04  0.91813075936E+02 0.  0.
         11    1    3    3    0    0  0.38860812848E+03 -0.11077858649E+04 -0.87389412923E+03  0.14635220358E+04  0.00000000000E+00 0.  1.
        -11    1    3    3    0    0  0.41361969827E+03 -0.10497730632E+04 -0.94074570317E+03  0.14690497667E+04  0.00000000000E+00 0. -1.
         22    1    1    2    0    0 -0.80222782675E+03  0.21575589282E+04 -0.32505998361E+03  0.23247137474E+04  0.00000000000E+00 0.  1.
<mgrwt>
<rscale>  0 0.48021595E+04</rscale>
<asrwt>0</asrwt>
<pdfrwt beam="1">  1        2 0.56899887E+00 0.48021595E+04</pdfrwt>
<pdfrwt beam="2">  1       -2 0.23981429E+00 0.48021595E+04</pdfrwt>
<totfact> 0.32052808E-02</totfact>
</mgrwt>
</event>
<event>
 6    1  0.2238133E-007  0.1936015E+04  0.7818608E-02  0.8637134E-01
         -2   -1    0    0    0  501 -0.00000000000E+00  0.00000000000E+00  0.73948539381E+03  0.73948539381E+03  0.00000000000E+00 0.  1.
          2   -1    0    0  501    0  0.00000000000E+00 -0.00000000000E+00 -0.12671492379E+04  0.12671492379E+04  0.00000000000E+00 0. -1.
         23    2    1    2    0    0  0.55373689232E+03  0.59873425571E+03  0.27161399448E+03  0.86472731581E+03  0.94190837297E+02 0.  0.
         11    1    3    3    0    0  0.27262640904E+03  0.22629963351E+03  0.12116260177E+03  0.37445568376E+03  0.00000000000E+00 0. -1.
        -11    1    3    3    0    0  0.28111048329E+03  0.37243462220E+03  0.15045139271E+03  0.49027163205E+03  0.00000000000E+00 0.  1.
         22    1    1    2    0    0 -0.55373689232E+03 -0.59873425571E+03 -0.79927783856E+03  0.11419073159E+04  0.00000000000E+00 0. -1.
<mgrwt>
<rscale>  0 0.19360148E+04</rscale>
<asrwt>0</asrwt>
<pdfrwt beam="1">  1        2 0.19494603E+00 0.19360148E+04</pdfrwt>
<pdfrwt beam="2">  1       -2 0.11376698E+00 0.19360148E+04</pdfrwt>
<totfact> 0.97711599E+00</totfact>
</mgrwt>
</event>
<event>
 6    1  0.2238133E-007  0.9183300E+03  0.7818608E-02  0.9402954E-01
         -1   -1    0    0    0  501 -0.00000000000E+00  0.00000000000E+00  0.35427236992E+03  0.35427236992E+03  0.00000000000E+00 0.  1.
          1   -1    0    0  501    0  0.00000000000E+00 -0.00000000000E+00 -0.59511419923E+03  0.59511419923E+03  0.00000000000E+00 0. -1.
         23    2    1    2    0    0 -0.19587615327E+03  0.51163734137E+02 -0.54422478570E+03  0.58465870713E+03  0.68264129245E+02 0.  0.
         11    1    3    3    0    0 -0.98475087828E+02  0.20692810747E+02 -0.36283232448E+03  0.37652733105E+03  0.00000000000E+00 0.  1.
        -11    1    3    3    0    0 -0.97401065444E+02  0.30470923390E+02 -0.18139246121E+03  0.20813137608E+03  0.00000000000E+00 0. -1.
         22    1    1    2    0    0  0.19587615327E+03 -0.51163734137E+02  0.30338295638E+03  0.36472786202E+03  0.00000000000E+00 0.  1.
<mgrwt>
<rscale>  0 0.91833004E+03</rscale>
<asrwt>0</asrwt>
<pdfrwt beam="1">  1        1 0.91556029E-01 0.91833004E+03</pdfrwt>
<pdfrwt beam="2">  1       -1 0.54503443E-01 0.91833004E+03</pdfrwt>
<totfact> 0.11866118E+02</totfact>
</mgrwt>
</event>
<event>
 6    1  0.2238133E-007  0.2387632E+04  0.7818608E-02  0.8444149E-01
         -2   -1    0    0    0  501 -0.00000000000E+00  0.00000000000E+00  0.65199497242E+03  0.65199497242E+03  0.00000000000E+00 0.  1.
          2   -1    0    0  501    0  0.00000000000E+00 -0.00000000000E+00 -0.21859005160E+04  0.21859005160E+04  0.00000000000E+00 0. -1.
         23    2    1    2    0    0 -0.27229814709E+03  0.34768213389E+03  0.54776816684E+03  0.70989300163E+03  0.94175166683E+02 0.  0.
         11    1    3    3    0    0 -0.20801405746E+03  0.24896048725E+03  0.33282853952E+03  0.46478598196E+03  0.00000000000E+00 0.  1.
        -11    1    3    3    0    0 -0.64284089636E+02  0.98721646642E+02  0.21493962732E+03  0.24510701967E+03  0.00000000000E+00 0. -1.
         22    1    1    2    0    0  0.27229814709E+03 -0.34768213389E+03 -0.20816737104E+04  0.21280024868E+04  0.00000000000E+00 0. -1.
<mgrwt>
<rscale>  0 0.23876316E+04</rscale>
<asrwt>0</asrwt>
<pdfrwt beam="1">  1        2 0.33629239E+00 0.23876316E+04</pdfrwt>
<pdfrwt beam="2">  1       -2 0.10030692E+00 0.23876316E+04</pdfrwt>
<totfact> 0.38813858E+00</totfact>
</mgrwt>
</event>
<event>
 6    1  0.2238133E-007  0.2381560E+04  0.7818608E-02  0.8446439E-01
         -2   -1    0    0    0  501 -0.00000000000E+00  0.00000000000E+00  0.78929909259E+03  0.78929909259E+03  0.00000000000E+00 0.  1.
          2   -1    0    0  501    0  0.00000000000E+00 -0.00000000000E+00 -0.17964768960E+04  0.17964768960E+04  0.00000000000E+00 0. -1.
         23    2    1    2    0    0  0.11180556017E+04 -0.36357217415E+03 -0.31148106789E+03  0.12196767967E+04  0.91421980642E+02 0.  0.
         11    1    3    3    0    0  0.70151226500E+03 -0.20410894818E+03 -0.23257526316E+03  0.76672757463E+03  0.00000000000E+00 0. -1.
        -11    1    3    3    0    0  0.41654333666E+03 -0.15946322597E+03 -0.78905804730E+02  0.45294922206E+03  0.00000000000E+00 0.  1.
         22    1    1    2    0    0 -0.11180556017E+04  0.36357217415E+03 -0.69569673549E+03  0.13660991918E+04  0.00000000000E+00 0. -1.
<mgrwt>
<rscale>  0 0.23815605E+04</rscale>
<asrwt>0</asrwt>
<pdfrwt beam="1">  1        2 0.27638106E+00 0.23815605E+04</pdfrwt>
<pdfrwt beam="2">  1       -2 0.12143063E+00 0.23815605E+04</pdfrwt>
<totfact> 0.40247883E+00</totfact>
</mgrwt>
</event>
<event>
 6    1  0.2238133E-007  0.9751873E+03  0.7818608E-02  0.9336185E-01
          2   -1    0    0  501    0  0.00000000000E+00  0.00000000000E+00  0.67415015393E+03  0.67415015393E+03  0.00000000000E+00 0. -1.
         -2   -1    0    0    0  501 -0.00000000000E+00 -0.00000000000E+00 -0.35266263573E+03  0.35266263573E+03  0.00000000000E+00 0.  1.
         23    2    1    2    0    0 -0.12488467472E+03 -0.42846406811E+03  0.35210942903E+03  0.57947025752E+03  0.11237032392E+03 0.  0.
         13    1    3    3    0    0 -0.12720692586E+03 -0.38709027752E+03  0.27389701189E+03  0.49095830583E+03  0.00000000000E+00 0. -1.
        -13    1    3    3    0    0  0.23222511329E+01 -0.41373790588E+02  0.78212417140E+02  0.88511951695E+02  0.00000000000E+00 0.  1.
         22    1    1    2    0    0  0.12488467472E+03  0.42846406811E+03 -0.30621910832E+02  0.44734253214E+03  0.00000000000E+00 0.  1.
<mgrwt>
<rscale>  0 0.97518731E+03</rscale>
<asrwt>0</asrwt>
<pdfrwt beam="1">  1        2 0.10371541E+00 0.97518731E+03</pdfrwt>
<pdfrwt beam="2">  1       -2 0.54255790E-01 0.97518731E+03</pdfrwt>
<totfact> 0.13741080E+02</totfact>
</mgrwt>
</event>
<event>
 6    1  0.2238133E-007  0.4136606E+04  0.7818608E-02  0.7977542E-01
          2   -1    0    0  501    0  0.00000000000E+00  0.00000000000E+00  0.31840646595E+04  0.31840646595E+04  0.00000000000E+00 0. -1.
         -2   -1    0    0    0  501 -0.00000000000E+00 -0.00000000000E+00 -0.13435274657E+04  0.13435274657E+04  0.00000000000E+00 0.  1.
         23    2    1    2    0    0 -0.13310492450E+04  0.94591228962E+03  0.23083847843E+04  0.28289681173E+04  0.89320459438E+02 0.  0.
         13    1    3    3    0    0 -0.18782429279E+03  0.14747157686E+03  0.39059880813E+03  0.45781356452E+03  0.00000000000E+00 0.  1.
        -13    1    3    3    0    0 -0.11432249522E+04  0.79844071276E+03  0.19177859761E+04  0.23711545528E+04  0.00000000000E+00 0. -1.
         22    1    1    2    0    0  0.13310492450E+04 -0.94591228962E+03 -0.46784759049E+03  0.16986240079E+04  0.00000000000E+00 0.  1.
<mgrwt>
<rscale>  0 0.41366065E+04</rscale>
<asrwt>0</asrwt>
<pdfrwt beam="1">  1        2 0.48985610E+00 0.41366065E+04</pdfrwt>
<pdfrwt beam="2">  1       -2 0.20669653E+00 0.41366065E+04</pdfrwt>
<totfact> 0.12451754E-01</totfact>
</mgrwt>
</event>
<event>
 6    1  0.2238133E-007  0.1557827E+04  0.7818608E-02  0.8846884E-01
          2   -1    0    0  501    0  0.00000000000E+00  0.00000000000E+00  0.18496973262E+04  0.18496973262E+04  0.00000000000E+00 0. -1.
         -2   -1    0    0    0  501 -0.00000000000E+00 -0.00000000000E+00 -0.32800299306E+03  0.32800299306E+03  0.00000000000E+00 0.  1.
         23    2    1    2    0    0 -0.43146984635E+03  0.26301051849E+03  0.15870848721E+04  0.16681743790E+04  0.92879526289E+02 0.  0.
         13    1    3    3    0    0 -0.35341562939E+03  0.18789685524E+03  0.11425570585E+04  0.12106380414E+04  0.00000000000E+00 0.  1.
        -13    1    3    3    0    0 -0.78054216967E+02  0.75113663243E+02  0.44452781363E+03  0.45753633767E+03  0.00000000000E+00 0. -1.
         22    1    1    2    0    0  0.43146984635E+03 -0.26301051849E+03 -0.65390539007E+02  0.50952594020E+03  0.00000000000E+00 0.  1.
<mgrwt>
<rscale>  0 0.15578270E+04</rscale>
<asrwt>0</asrwt>
<pdfrwt beam="1">  1        2 0.28456881E+00 0.15578270E+04</pdfrwt>
<pdfrwt beam="2">  1       -2 0.50462000E-01 0.15578270E+04</pdfrwt>
<totfact> 0.28930478E+01</totfact>
</mgrwt>
</event>
<event>
 6    1  0.2238133E-007  0.3397402E+04  0.7818608E-02  0.8138544E-01
         -1   -1    0    0    0  501 -0.00000000000E+00  0.00000000000E+00  0.10754730719E+04  0.10754730719E+04  0.00000000000E+00 0.  1.
          1   -1    0    0  501    0  0.00000000000E+00 -0.00000000000E+00 -0.26830836950E+04  0.26830836950E+04  0.00000000000E+00 0. -1.
         23    2    1    2    0    0  0.42297880713E+03  0.85324185288E+03 -0.23588506649E+04  0.25455875459E+04  0.94375653055E+02 0.  0.
         11    1    3    3    0    0  0.11771585503E+03  0.20158853695E+03 -0.68216163896E+03  0.72099893372E+03  0.00000000000E+00 0. -1.
        -11    1    3    3    0    0  0.30526295210E+03  0.65165331594E+03 -0.16766890259E+04  0.18245886122E+04  0.00000000000E+00 0.  1.
         22    1    1    2    0    0 -0.42297880713E+03 -0.85324185288E+03  0.75124004181E+03  0.12129692210E+04  0.00000000000E+00 0.  1.
<mgrwt>
<rscale>  0 0.33974015E+04</rscale>
<asrwt>0</asrwt>
<pdfrwt beam="1">  1        1 0.41278211E+00 0.33974015E+04</pdfrwt>
<pdfrwt beam="2">  1       -1 0.16545739E+00 0.33974015E+04</pdfrwt>
<totfact> 0.22061370E-01</totfact>
</mgrwt>
</event>
<event>
 6    1  0.2238133E-007  0.2392644E+04  0.7818608E-02  0.8442263E-01
         -2   -1    0    0    0  501 -0.00000000000E+00  0.00000000000E+00  0.75682372593E+03  0.75682372593E+03  0.00000000000E+00 0.  1.
          2   -1    0    0  501    0  0.00000000000E+00 -0.00000000000E+00 -0.18910430192E+04  0.18910430192E+04  0.00000000000E+00 0. -1.
         23    2    1    2    0    0  0.41499154708E+03 -0.99280836462E+03 -0.11420709978E+04  0.15717867843E+04  0.91110363019E+02 0.  0.
         11    1    3    3    0    0  0.31499629968E+03 -0.77098049239E+03 -0.82700308372E+03  0.11736982955E+04  0.00000000000E+00 0.  1.
        -11    1    3    3    0    0  0.99995247395E+02 -0.22182787224E+03 -0.31506791403E+03  0.39808848873E+03  0.00000000000E+00 0. -1.
         22    1    1    2    0    0 -0.41499154708E+03  0.99280836462E+03  0.78517044372E+01  0.10760799609E+04  0.00000000000E+00 0.  1.
<mgrwt>
<rscale>  0 0.23926439E+04</rscale>
<asrwt>0</asrwt>
<pdfrwt beam="1">  1        2 0.29092969E+00 0.23926439E+04</pdfrwt>
<pdfrwt beam="2">  1       -2 0.11643442E+00 0.23926439E+04</pdfrwt>
<totfact> 0.39534934E+00</totfact>
</mgrwt>
</event>
<event>
 6    1  0.2238133E-007  0.1464936E+04  0.7818608E-02  0.8908111E-01
         -2   -1    0    0    0  501 -0.00000000000E+00  0.00000000000E+00  0.31371268818E+03  0.31371268818E+03  0.00000000000E+00 0.  1.
          2   -1    0    0  501    0  0.00000000000E+00 -0.00000000000E+00 -0.17101933817E+04  0.17101933817E+04  0.00000000000E+00 0. -1.
         23    2    1    2    0    0  0.30460168993E+03  0.39885282975E+03  0.31255837859E+02  0.51053322344E+03  0.88325961778E+02 0.  0.
         11    1    3    3    0    0  0.12002238565E+03  0.10145014755E+03  0.32624434817E+02  0.16050501314E+03  0.00000000000E+00 0. -1.
        -11    1    3    3    0    0  0.18457930429E+03  0.29740268220E+03 -0.13685969582E+01  0.35002821030E+03  0.00000000000E+00 0.  1.
         22    1    1    2    0    0 -0.30460168993E+03 -0.39885282975E+03 -0.14277365313E+04  0.15133728464E+04  0.00000000000E+00 0. -1.
<mgrwt>
<rscale>  0 0.14649360E+04</rscale>
<asrwt>0</asrwt>
<pdfrwt beam="1">  1        2 0.26310668E+00 0.14649360E+04</pdfrwt>
<pdfrwt beam="2">  1       -2 0.48263489E-01 0.14649360E+04</pdfrwt>
<totfact> 0.38127948E+01</totfact>
</mgrwt>
</event>
<event>
 6    1  0.2238133E-007  0.3932090E+04  0.7818608E-02  0.8018388E-01
         -1   -1    0    0    0  501 -0.00000000000E+00  0.00000000000E+00  0.18319811714E+04  0.18319811714E+04  0.00000000000E+00 0.  1.
          1   -1    0    0  501    0  0.00000000000E+00 -0.00000000000E+00 -0.21099192856E+04  0.21099192856E+04  0.00000000000E+00 0. -1.
         23    2    1    2    0    0  0.21033286000E+03  0.17463084887E+04 -0.10172192302E+04  0.20339251379E+04  0.91012388386E+02 0.  0.
         11    1    3    3    0    0  0.40238665749E+02  0.69996155556E+03 -0.41464341827E+03  0.81455171340E+03  0.00000000000E+00 0. -1.
        -11    1    3    3    0    0  0.17009419425E+03  0.10463469331E+04 -0.60257581188E+03  0.12193734245E+04  0.00000000000E+00 0.  1.
         22    1    1    2    0    0 -0.21033286000E+03 -0.17463084887E+04  0.73928111603E+03  0.19079753191E+04  0.00000000000E+00 0.  1.
<mgrwt>
<rscale>  0 0.39320897E+04</rscale>
<asrwt>0</asrwt>
<pdfrwt beam="1">  1        1 0.32460297E+00 0.39320897E+04</pdfrwt>
<pdfrwt beam="2">  1       -1 0.28184326E+00 0.39320897E+04</pdfrwt>
<totfact> 0.85510286E-02</totfact>
</mgrwt>
</event>
<event>
 6    1  0.2238133E-007  0.4589538E+04  0.7818608E-02  0.7895146E-01
          2   -1    0    0  501    0  0.00000000000E+00  0.00000000000E+00  0.26087594524E+04  0.26087594524E+04  0.00000000000E+00 0. -1.
         -2   -1    0    0    0  501 -0.00000000000E+00 -0.00000000000E+00 -0.20185707851E+04  0.20185707851E+04  0.00000000000E+00 0.  1.
         23    2    1    2    0    0  0.88787985034E+03  0.21074289865E+04  0.47573568494E+03  0.23376387633E+04  0.92967648794E+02 0.  0.
         11    1    3    3    0    0  0.19494214301E+03  0.56114036311E+03  0.10907184689E+03  0.60396822269E+03  0.00000000000E+00 0. -1.
        -11    1    3    3    0    0  0.69293770733E+03  0.15462886234E+04  0.36666383805E+03  0.17336705406E+04  0.00000000000E+00 0.  1.
         22    1    1    2    0    0 -0.88787985034E+03 -0.21074289865E+04  0.11445298226E+03  0.22896914742E+04  0.00000000000E+00 0.  1.
<mgrwt>
<rscale>  0 0.45895384E+04</rscale>
<asrwt>0</asrwt>
<pdfrwt beam="1">  1        2 0.40134761E+00 0.45895384E+04</pdfrwt>
<pdfrwt beam="2">  1       -2 0.31054935E+00 0.45895384E+04</pdfrwt>
<totfact> 0.61941898E-02</totfact>
</mgrwt>
</event>
<event>
 6    1  0.2238133E-007  0.3061324E+04  0.7818608E-02  0.8226433E-01
          2   -1    0    0  501    0  0.00000000000E+00  0.00000000000E+00  0.30297677958E+04  0.30297677958E+04  0.00000000000E+00 0. -1.
         -2   -1    0    0    0  501 -0.00000000000E+00 -0.00000000000E+00 -0.77330245292E+03  0.77330245292E+03  0.00000000000E+00 0.  1.
         23    2    1    2    0    0  0.34554402737E+03 -0.11004586314E+04 -0.11825109850E+03  0.11630535724E+04  0.91106617775E+02 0.  0.
         13    1    3    3    0    0  0.23210155737E+03 -0.66502164211E+03 -0.33409192417E+02  0.70515323976E+03  0.00000000000E+00 0. -1.
        -13    1    3    3    0    0  0.11344246999E+03 -0.43543698925E+03 -0.84841906086E+02  0.45790033265E+03  0.00000000000E+00 0.  1.
         22    1    1    2    0    0 -0.34554402737E+03  0.11004586314E+04  0.23747164414E+04  0.26400166763E+04  0.00000000000E+00 0. -1.
<mgrwt>
<rscale>  0 0.30613245E+04</rscale>
<asrwt>0</asrwt>
<pdfrwt beam="1">  1        2 0.46611812E+00 0.30613245E+04</pdfrwt>
<pdfrwt beam="2">  1       -2 0.11896961E+00 0.30613245E+04</pdfrwt>
<totfact> 0.77005775E-01</totfact>
</mgrwt>
</event>
<event>
 6    1  0.2238133E-007  0.2137708E+04  0.7818608E-02  0.8544812E-01
          2   -1    0    0  501    0  0.00000000000E+00  0.00000000000E+00  0.96687278832E+03  0.96687278832E+03  0.00000000000E+00 0. -1.
         -2   -1    0    0    0  501 -0.00000000000E+00 -0.00000000000E+00 -0.11815921640E+04  0.11815921640E+04  0.00000000000E+00 0.  1.
         23    2    1    2    0    0 -0.11185064841E+03  0.80472853688E+03  0.58803471243E+03  0.10063122867E+04  0.82346886690E+02 0.  0.
         11    1    3    3    0    0 -0.11341744381E+03  0.63476265527E+03  0.49204535529E+03  0.81110774669E+03  0.00000000000E+00 0. -1.
        -11    1    3    3    0    0  0.15667954055E+01  0.16996588161E+03  0.95989357142E+02  0.19520454002E+03  0.00000000000E+00 0.  1.
         22    1    1    2    0    0  0.11185064841E+03 -0.80472853688E+03 -0.80275408813E+03  0.11421526656E+04  0.00000000000E+00 0.  1.
<mgrwt>
<rscale>  0 0.21377084E+04</rscale>
<asrwt>0</asrwt>
<pdfrwt beam="1">  1        2 0.14874966E+00 0.21377084E+04</pdfrwt>
<pdfrwt beam="2">  1       -2 0.18178341E+00 0.21377084E+04</pdfrwt>
<totfact> 0.42847423E+00</totfact>
</mgrwt>
</event>
<event>
 6    1  0.4045573E-007  0.2555401E+04  0.7818608E-02  0.8383510E-01
         -2   -1    0    0    0  501 -0.00000000000E+00  0.00000000000E+00  0.12591650342E+04  0.12591650342E+04  0.00000000000E+00 0.  1.
          2   -1    0    0  501    0  0.00000000000E+00 -0.00000000000E+00 -0.12965086679E+04  0.12965086679E+04  0.00000000000E+00 0. -1.
         23    2    1    2    0    0 -0.31562709012E+03  0.12878470302E+03  0.12111567337E+04  0.12614715823E+04  0.90575711996E+02 0.  0.
         13    1    3    3    0    0 -0.15137150062E+03  0.98230165239E+02  0.73597220791E+03  0.75777146118E+03  0.00000000000E+00 0.  1.
        -13    1    3    3    0    0 -0.16425558950E+03  0.30554537778E+02  0.47518452575E+03  0.50370012107E+03  0.00000000000E+00 0. -1.
         22    1    1    2    0    0  0.31562709012E+03 -0.12878470302E+03 -0.12485003674E+04  0.12942021199E+04  0.00000000000E+00 0. -1.
<mgrwt>
<rscale>  0 0.25554009E+04</rscale>
<asrwt>0</asrwt>
<pdfrwt beam="1">  1        2 0.19946287E+00 0.25554009E+04</pdfrwt>
<pdfrwt beam="2">  1       -2 0.19371770E+00 0.25554009E+04</pdfrwt>
<totfact> 0.21584508E+00</totfact>
</mgrwt>
</event>
<event>
 6    1  0.2238133E-007  0.8606701E+03  0.7818608E-02  0.9476127E-01
         -2   -1    0    0    0  501 -0.00000000000E+00  0.00000000000E+00  0.16034279250E+03  0.16034279250E+03  0.00000000000E+00 0.  1.
          2   -1    0    0  501    0  0.00000000000E+00 -0.00000000000E+00 -0.11549521090E+04  0.11549521090E+04  0.00000000000E+00 0. -1.
         23    2    1    2    0    0  0.24570619905E+03 -0.34401323309E+03 -0.58274380589E+03  0.72508321100E+03  0.86247775470E+02 0.  0.
         13    1    3    3    0    0  0.14432363821E+03 -0.17307067903E+03 -0.37558937201E+03  0.43800701919E+03  0.00000000000E+00 0. -1.
        -13    1    3    3    0    0  0.10138256084E+03 -0.17094255405E+03 -0.20715443388E+03  0.28707619181E+03  0.00000000000E+00 0.  1.
         22    1    1    2    0    0 -0.24570619905E+03  0.34401323309E+03 -0.41186551064E+03  0.59021169054E+03  0.00000000000E+00 0.  1.
<mgrwt>
<rscale>  0 0.86067008E+03</rscale>
<asrwt>0</asrwt>
<pdfrwt beam="1">  1        2 0.17768494E+00 0.86067008E+03</pdfrwt>
<pdfrwt beam="2">  1       -2 0.24668122E-01 0.86067008E+03</pdfrwt>
<totfact> 0.29704734E+02</totfact>
</mgrwt>
</event>
<event>
 6    1  0.2238133E-007  0.1732087E+04  0.7818608E-02  0.8743273E-01
          2   -1    0    0  501    0  0.00000000000E+00  0.00000000000E+00  0.12760934946E+04  0.12760934946E+04  0.00000000000E+00 0. -1.
         -2   -1    0    0    0  501 -0.00000000000E+00 -0.00000000000E+00 -0.58775553737E+03  0.58775553737E+03  0.00000000000E+00 0.  1.
         23    2    1    2    0    0 -0.69428378327E+03 -0.27217241929E+03  0.81431439210E+03  0.11075568532E+04  0.86408659550E+02 0.  0.
         13    1    3    3    0    0 -0.28892525262E+03 -0.15511094346E+03  0.32988109564E+03  0.46514378814E+03  0.00000000000E+00 0. -1.
        -13    1    3    3    0    0 -0.40535853065E+03 -0.11706147582E+03  0.48443329646E+03  0.64241306510E+03  0.00000000000E+00 0.  1.
         22    1    1    2    0    0  0.69428378327E+03  0.27217241929E+03 -0.12597643484E+03  0.75629217877E+03  0.00000000000E+00 0.  1.
<mgrwt>
<rscale>  0 0.17320866E+04</rscale>
<asrwt>0</asrwt>
<pdfrwt beam="1">  1        2 0.19632208E+00 0.17320866E+04</pdfrwt>
<pdfrwt beam="2">  1       -2 0.90423929E-01 0.17320866E+04</pdfrwt>
<totfact> 0.16942748E+01</totfact>
</mgrwt>
</event>
<event>
 6    1  0.2238133E-007  0.5645607E+03  0.7818608E-02  0.9981788E-01
          2   -1    0    0  501    0  0.00000000000E+00  0.00000000000E+00  0.51898282702E+03  0.51898282702E+03  0.00000000000E+00 0. -1.
         -2   -1    0    0    0  501 -0.00000000000E+00 -0.00000000000E+00 -0.15353534939E+03  0.15353534939E+03  0.00000000000E+00 0.  1.
         23    2    1    2    0    0  0.17909462548E+03 -0.14307150064E+03  0.73628710414E+01  0.24734888701E+03  0.92644054665E+02 0.  0.
         11    1    3    3    0    0  0.13169658648E+03 -0.13655648685E+03 -0.22354383096E+02  0.19102717984E+03  0.00000000000E+00 0.  1.
        -11    1    3    3    0    0  0.47398039000E+02 -0.65150137841E+01  0.29717254138E+02  0.56321707175E+02  0.00000000000E+00 0. -1.
         22    1    1    2    0    0 -0.17909462548E+03  0.14307150064E+03  0.35808460659E+03  0.42516928940E+03  0.00000000000E+00 0. -1.
<mgrwt>
<rscale>  0 0.56456075E+03</rscale>
<asrwt>0</asrwt>
<pdfrwt beam="1">  1        2 0.79843511E-01 0.56456075E+03</pdfrwt>
<pdfrwt beam="2">  1       -2 0.23620823E-01 0.56456075E+03</pdfrwt>
<totfact> 0.93942313E+02</totfact>
</mgrwt>
</event>
<event>
 6    1  0.2238133E-007  0.2776620E+04  0.7818608E-02  0.8310564E-01
         -2   -1    0    0    0  501 -0.00000000000E+00  0.00000000000E+00  0.67518797352E+03  0.67518797352E+03  0.00000000000E+00 0.  1.
          2   -1    0    0  501    0  0.00000000000E+00 -0.00000000000E+00 -0.28546193194E+04  0.28546193194E+04  0.00000000000E+00 0. -1.
         23    2    1    2    0    0 -0.10416706475E+04 -0.91497632184E+03 -0.10465403817E+04  0.17393600460E+04  0.88697190813E+02 0.  0.
         11    1    3    3    0    0 -0.16651109293E+03 -0.17529874013E+03 -0.21522374412E+03  0.32369252755E+03  0.00000000000E+00 0. -1.
        -11    1    3    3    0    0 -0.87515955456E+03 -0.73967758171E+03 -0.83131663760E+03  0.14156675184E+04  0.00000000000E+00 0.  1.
         22    1    1    2    0    0  0.10416706475E+04  0.91497632184E+03 -0.11328909642E+04  0.17904472470E+04  0.00000000000E+00 0.  1.
<mgrwt>
<rscale>  0 0.27766200E+04</rscale>
<asrwt>0</asrwt>
<pdfrwt beam="1">  1        2 0.43917221E+00 0.27766200E+04</pdfrwt>
<pdfrwt beam="2">  1       -2 0.10387507E+00 0.27766200E+04</pdfrwt>
<totfact> 0.14082035E+00</totfact>
</mgrwt>
</event>
<event>
 6    1  0.2238133E-007  0.1744876E+04  0.7818608E-02  0.8736176E-01
          1   -1    0    0  501    0  0.00000000000E+00  0.00000000000E+00  0.10988099829E+04  0.10988099829E+04  0.00000000000E+00 0. -1.
         -1   -1    0    0    0  501 -0.00000000000E+00 -0.00000000000E+00 -0.69270214800E+03  0.69270214800E+03  0.00000000000E+00 0.  1.
         23    2    1    2    0    0 -0.15530906504E+03  0.60473566897E+03  0.82485207555E+03  0.10397323266E+04  0.10409721117E+03 0.  0.
         13    1    3    3    0    0 -0.58910582030E+02  0.31476650015E+03  0.49989698847E+03  0.59367112560E+03  0.00000000000E+00 0. -1.
        -13    1    3    3    0    0 -0.96398483015E+02  0.28996916882E+03  0.32495508708E+03  0.44606120097E+03  0.00000000000E+00 0.  1.
         22    1    1    2    0    0  0.15530906504E+03 -0.60473566897E+03 -0.41874424069E+03  0.75177980428E+03  0.00000000000E+00 0.  1.
<mgrwt>
<rscale>  0 0.17448760E+04</rscale>
<asrwt>0</asrwt>
<pdfrwt beam="1">  1        1 0.16904769E+00 0.17448760E+04</pdfrwt>
<pdfrwt beam="2">  1       -1 0.10656956E+00 0.17448760E+04</pdfrwt>
<totfact> 0.99062655E+00</totfact>
</mgrwt>
</event>
<event>
 6    1  0.2238133E-007  0.2031005E+04  0.7818608E-02  0.8592260E-01
         -1   -1    0    0    0  501 -0.00000000000E+00  0.00000000000E+00  0.78172033595E+03  0.78172033595E+03  0.00000000000E+00 0.  1.
          1   -1    0    0  501    0  0.00000000000E+00 -0.00000000000E+00 -0.13192003005E+04  0.13192003005E+04  0.00000000000E+00 0. -1.
         23    2    1    2    0    0  0.98091533312E+03 -0.20789505200E+03 -0.11698743030E+03  0.10136169922E+04  0.91203643652E+02 0.  0.
         13    1    3    3    0    0  0.42440797873E+03 -0.69481818109E+02 -0.94657042382E+01  0.43016212643E+03  0.00000000000E+00 0. -1.
        -13    1    3    3    0    0  0.55650735439E+03 -0.13841323389E+03 -0.10752172606E+03  0.58345486577E+03  0.00000000000E+00 0.  1.
         22    1    1    2    0    0 -0.98091533312E+03  0.20789505200E+03 -0.42049253420E+03  0.10873036442E+04  0.00000000000E+00 0.  1.
<mgrwt>
<rscale>  0 0.20310054E+04</rscale>
<asrwt>0</asrwt>
<pdfrwt beam="1">  1        1 0.20295389E+00 0.20310054E+04</pdfrwt>
<pdfrwt beam="2">  1       -1 0.12026467E+00 0.20310054E+04</pdfrwt>
<totfact> 0.49931145E+00</totfact>
</mgrwt>
</event>
<event>
 6    1  0.5424921E-007  0.3837607E+04  0.7818608E-02  0.8038132E-01
         -2   -1    0    0    0  501 -0.00000000000E+00  0.00000000000E+00  0.19755541426E+04  0.19755541426E+04  0.00000000000E+00 0.  1.
          2   -1    0    0  501    0  0.00000000000E+00 -0.00000000000E+00 -0.18636834946E+04  0.18636834946E+04  0.00000000000E+00 0. -1.
         23    2    1    2    0    0  0.22490399669E+03 -0.98052820164E+03 -0.15773556400E+04  0.18731494361E+04  0.92847363783E+02 0.  0.
         13    1    3    3    0    0  0.17630265229E+03 -0.74429995339E+03 -0.11229195456E+04  0.13586807394E+04  0.00000000000E+00 0.  1.
        -13    1    3    3    0    0  0.48601344399E+02 -0.23622824825E+03 -0.45443609441E+03  0.51446869667E+03  0.00000000000E+00 0. -1.
         22    1    1    2    0    0 -0.22490399669E+03  0.98052820164E+03  0.16892262881E+04  0.19660882011E+04  0.00000000000E+00 0.  1.
<mgrwt>
<rscale>  0 0.38376074E+04</rscale>
<asrwt>0</asrwt>
<pdfrwt beam="1">  1        2 0.28672054E+00 0.38376074E+04</pdfrwt>
<pdfrwt beam="2">  1       -2 0.30393141E+00 0.38376074E+04</pdfrwt>
<totfact> 0.19117611E-01</totfact>
</mgrwt>
</event>
<event>
 6    1  0.2238133E-007  0.3015878E+04  0.7818608E-02  0.8239211E-01
         -2   -1    0    0    0  501 -0.00000000000E+00  0.00000000000E+00  0.17415439766E+04  0.17415439766E+04  0.00000000000E+00 0.  1.
          2   -1    0    0  501    0  0.00000000000E+00 -0.00000000000E+00 -0.13056689585E+04  0.13056689585E+04  0.00000000000E+00 0. -1.
         23    2    1    2    0    0  0.91691025821E+02  0.12292712267E+04 -0.65696732853E+03  0.13998455239E+04  0.91904445644E+02 0.  0.
         11    1    3    3    0    0  0.60700076286E+02  0.33489232230E+03 -0.20430865299E+03  0.39696270918E+03  0.00000000000E+00 0.  1.
        -11    1    3    3    0    0  0.30990949535E+02  0.89437890439E+03 -0.45265867554E+03  0.10028828147E+04  0.00000000000E+00 0. -1.
         22    1    1    2    0    0 -0.91691025821E+02 -0.12292712267E+04  0.10928423466E+04  0.16473674112E+04  0.00000000000E+00 0.  1.
<mgrwt>
<rscale>  0 0.30158779E+04</rscale>
<asrwt>0</asrwt>
<pdfrwt beam="1">  1        2 0.20087215E+00 0.30158779E+04</pdfrwt>
<pdfrwt beam="2">  1       -2 0.26792984E+00 0.30158779E+04</pdfrwt>
<totfact> 0.69985111E-01</totfact>
</mgrwt>
</event>
<event>
 6    1  0.2238133E-007  0.2404997E+04  0.7818608E-02  0.8437635E-01
         -4   -1    0    0    0  501 -0.00000000000E+00  0.00000000000E+00  0.20624407918E+04  0.20624407918E+04  0.00000000000E+00 0.  1.
          4   -1    0    0  501    0  0.00000000000E+00 -0.00000000000E+00 -0.70111229833E+03  0.70111229833E+03  0.00000000000E+00 0. -1.
         23    2    1    2    0    0  0.60181202452E+03 -0.65461661564E+03  0.16088039627E+04  0.18405445668E+04  0.93024111756E+02 0.  0.
         13    1    3    3    0    0  0.12565244404E+03 -0.19491690852E+03  0.43873241755E+03  0.49625323387E+03  0.00000000000E+00 0. -1.
        -13    1    3    3    0    0  0.47615958048E+03 -0.45969970712E+03  0.11700715452E+04  0.13442913329E+04  0.00000000000E+00 0.  1.
         22    1    1    2    0    0 -0.60181202452E+03  0.65461661564E+03 -0.24747546927E+03  0.92300852337E+03  0.00000000000E+00 0. -1.
<mgrwt>
<rscale>  0 0.24049970E+04</rscale>
<asrwt>0</asrwt>
<pdfrwt beam="1">  1        4 0.10786343E+00 0.24049970E+04</pdfrwt>
<pdfrwt beam="2">  1       -4 0.31729858E+00 0.24049970E+04</pdfrwt>
<totfact> 0.29697353E-02</totfact>
</mgrwt>
</event>
<event>
 6    1  0.2238133E-007  0.3151179E+04  0.7818608E-02  0.8201831E-01
         -2   -1    0    0    0  501 -0.00000000000E+00  0.00000000000E+00  0.10981702966E+04  0.10981702966E+04  0.00000000000E+00 0.  1.
          2   -1    0    0  501    0  0.00000000000E+00 -0.00000000000E+00 -0.22605616619E+04  0.22605616619E+04  0.00000000000E+00 0. -1.
         23    2    1    2    0    0 -0.95075910020E+03  0.87383356458E+03 -0.15414547516E+04  0.20129173293E+04  0.90694311489E+02 0.  0.
         13    1    3    3    0    0 -0.46478901836E+03  0.48609438978E+03 -0.82137863980E+03  0.10615928868E+04  0.00000000000E+00 0.  1.
        -13    1    3    3    0    0 -0.48597008184E+03  0.38773917479E+03 -0.72007611183E+03  0.95132444252E+03  0.00000000000E+00 0. -1.
         22    1    1    2    0    0  0.95075910020E+03 -0.87383356458E+03  0.37906338632E+03  0.13458146292E+04  0.00000000000E+00 0.  1.
<mgrwt>
<rscale>  0 0.31511786E+04</rscale>
<asrwt>0</asrwt>
<pdfrwt beam="1">  1        2 0.34777871E+00 0.31511786E+04</pdfrwt>
<pdfrwt beam="2">  1       -2 0.16894928E+00 0.31511786E+04</pdfrwt>
<totfact> 0.87501552E-01</totfact>
</mgrwt>
</event>
<event>
 6    1  0.2238133E-007  0.1817725E+04  0.7818608E-02  0.8696930E-01
          2   -1    0    0  501    0  0.00000000000E+00  0.00000000000E+00  0.27612111343E+04  0.27612111343E+04  0.00000000000E+00 0. -1.
         -2   -1    0    0    0  501 -0.00000000000E+00 -0.00000000000E+00 -0.29915533712E+03  0.29915533712E+03  0.00000000000E+00 0.  1.
         23    2    1    2    0    0 -0.89102294235E+02  0.36854579174E+03  0.26205593389E+04  0.26494058989E+04  0.90857852196E+02 0.  0.
         11    1    3    3    0    0 -0.31892745206E+02  0.26556298173E+03  0.16195283294E+04  0.16414666778E+04  0.00000000000E+00 0. -1.
        -11    1    3    3    0    0 -0.57209549029E+02  0.10298281001E+03  0.10010310095E+04  0.10079392212E+04  0.00000000000E+00 0.  1.
         22    1    1    2    0    0  0.89102294235E+02 -0.36854579174E+03 -0.15850354166E+03  0.41096057252E+03  0.00000000000E+00 0.  1.
<mgrwt>
<rscale>  0 0.18177250E+04</rscale>
<asrwt>0</asrwt>
<pdfrwt beam="1">  1        2 0.42480170E+00 0.18177250E+04</pdfrwt>
<pdfrwt beam="2">  1       -2 0.46023900E-01 0.18177250E+04</pdfrwt>
<totfact> 0.10322570E+01</totfact>
</mgrwt>
</event>
<event>
 6    1  0.2238133E-007  0.1976977E+04  0.7818608E-02  0.8617461E-01
         -2   -1    0    0    0  501 -0.00000000000E+00  0.00000000000E+00  0.35293160480E+03  0.35293160480E+03  0.00000000000E+00 0.  1.
          2   -1    0    0  501    0  0.00000000000E+00 -0.00000000000E+00 -0.27685513866E+04  0.27685513866E+04  0.00000000000E+00 0. -1.
         23    2    1    2    0    0  0.72571137870E+03 -0.38085785111E+03 -0.20739233012E+04  0.22335268029E+04  0.12559622559E+03 0.  0.
         11    1    3    3    0    0  0.36860572324E+03 -0.20098869984E+03 -0.12298369275E+04  0.12995251075E+04  0.00000000000E+00 0.  1.
        -11    1    3    3    0    0  0.35710565546E+03 -0.17986915127E+03 -0.84408637372E+03  0.93400169542E+03  0.00000000000E+00 0. -1.
         22    1    1    2    0    0 -0.72571137870E+03  0.38085785111E+03 -0.34169648059E+03  0.88795618855E+03  0.00000000000E+00 0.  1.
<mgrwt>
<rscale>  0 0.19769768E+04</rscale>
<asrwt>0</asrwt>
<pdfrwt beam="1">  1        2 0.42593099E+00 0.19769768E+04</pdfrwt>
<pdfrwt beam="2">  1       -2 0.54297169E-01 0.19769768E+04</pdfrwt>
<totfact> 0.71910220E+00</totfact>
</mgrwt>
</event>
<event>
 6    1  0.2238133E-007  0.3159626E+04  0.7818608E-02  0.8199562E-01
         -2   -1    0    0    0  501 -0.00000000000E+00  0.00000000000E+00  0.13184193824E+04  0.13184193824E+04  0.00000000000E+00 0.  1.
          2   -1    0    0  501    0  0.00000000000E+00 -0.00000000000E+00 -0.18930310162E+04  0.18930310162E+04  0.00000000000E+00 0. -1.
         23    2    1    2    0    0 -0.14090156035E+04  0.64941037306E+03  0.81526871683E+01  0.15541414180E+04  0.90720875199E+02 0.  0.
         11    1    3    3    0    0 -0.47240222441E+03  0.20968918383E+03  0.44861013059E+02  0.51879275817E+03  0.00000000000E+00 0.  1.
        -11    1    3    3    0    0 -0.93661337910E+03  0.43972118922E+03 -0.36708325891E+02  0.10353486598E+04  0.00000000000E+00 0. -1.
         22    1    1    2    0    0  0.14090156035E+04 -0.64941037306E+03 -0.58276432098E+03  0.16573089807E+04  0.00000000000E+00 0. -1.
<mgrwt>
<rscale>  0 0.31596258E+04</rscale>
<asrwt>0</asrwt>
<pdfrwt beam="1">  1        2 0.29123554E+00 0.31596258E+04</pdfrwt>
<pdfrwt beam="2">  1       -2 0.20283375E+00 0.31596258E+04</pdfrwt>
<totfact> 0.82494172E-01</totfact>
</mgrwt>
</event>
<event>
 6    1  0.2238133E-007  0.2268238E+04  0.7818608E-02  0.8490551E-01
          2   -1    0    0  501    0  0.00000000000E+00  0.00000000000E+00  0.39815191526E+04  0.39815191526E+04  0.00000000000E+00 0. -1.
         -2   -1    0    0    0  501 -0.00000000000E+00 -0.00000000000E+00 -0.32304909876E+03  0.32304909876E+03  0.00000000000E+00 0.  1.
         23    2    1    2    0    0  0.20197088012E+03  0.68422918098E+03  0.16358702832E+03  0.73761308335E+03  0.91381269261E+02 0.  0.
         11    1    3    3    0    0  0.18303093606E+03  0.55682248873E+03  0.16458670503E+03  0.60880242360E+03  0.00000000000E+00 0.  1.
        -11    1    3    3    0    0  0.18939944060E+02  0.12740669225E+03 -0.99967670746E+00  0.12881065975E+03  0.00000000000E+00 0. -1.
         22    1    1    2    0    0 -0.20197088012E+03 -0.68422918098E+03  0.34948830255E+04  0.35669551680E+04  0.00000000000E+00 0. -1.
<mgrwt>
<rscale>  0 0.22682382E+04</rscale>
<asrwt>0</asrwt>
<pdfrwt beam="1">  1        2 0.61254137E+00 0.22682382E+04</pdfrwt>
<pdfrwt beam="2">  1       -2 0.49699864E-01 0.22682382E+04</pdfrwt>
<totfact> 0.12405579E+00</totfact>
</mgrwt>
</event>
<event>
 6    1  0.2238133E-007  0.9498336E+03  0.7818608E-02  0.9365345E-01
          4   -1    0    0  501    0  0.00000000000E+00  0.00000000000E+00  0.31842378761E+03  0.31842378761E+03  0.00000000000E+00 0. -1.
         -4   -1    0    0    0  501 -0.00000000000E+00 -0.00000000000E+00 -0.70832011071E+03  0.70832011071E+03  0.00000000000E+00 0.  1.
         23    2    1    2    0    0 -0.20048723610E+03 -0.21386273939E+03 -0.59464156531E+03  0.66917849542E+03  0.90933296462E+02 0.  0.
         13    1    3    3    0    0 -0.87665386992E+02 -0.10695056007E+03 -0.37835384845E+03  0.40283405642E+03  0.00000000000E+00 0.  1.
        -13    1    3    3    0    0 -0.11282184911E+03 -0.10691217932E+03 -0.21628771686E+03  0.26634443900E+03  0.00000000000E+00 0. -1.
         22    1    1    2    0    0  0.20048723610E+03  0.21386273939E+03  0.20474524221E+03  0.35756540289E+03  0.00000000000E+00 0. -1.
<mgrwt>
<rscale>  0 0.94983361E+03</rscale>
<asrwt>0</asrwt>
<pdfrwt beam="1">  1        4 0.48988275E-01 0.94983361E+03</pdfrwt>
<pdfrwt beam="2">  1       -4 0.10897232E+00 0.94983361E+03</pdfrwt>
<totfact> 0.53675280E+00</totfact>
</mgrwt>
</event>
<event>
 6    1  0.2238133E-007  0.2448235E+04  0.7818608E-02  0.8421663E-01
          2   -1    0    0  501    0  0.00000000000E+00  0.00000000000E+00  0.31585212080E+04  0.31585212080E+04  0.00000000000E+00 0. -1.
         -2   -1    0    0    0  501 -0.00000000000E+00 -0.00000000000E+00 -0.47441937938E+03  0.47441937938E+03  0.00000000000E+00 0.  1.
         23    2    1    2    0    0 -0.55363781195E+01  0.12183916881E+04  0.11955486202E+04  0.17093243025E+04  0.89129742690E+02 0.  0.
         11    1    3    3    0    0  0.27277959569E+02  0.51870409939E+03  0.46367835684E+03  0.69627268251E+03  0.00000000000E+00 0.  1.
        -11    1    3    3    0    0 -0.32814337689E+02  0.69968758866E+03  0.73187026335E+03  0.10130516200E+04  0.00000000000E+00 0. -1.
         22    1    1    2    0    0  0.55363781195E+01 -0.12183916881E+04  0.14885532085E+04  0.19236162849E+04  0.00000000000E+00 0.  1.
<mgrwt>
<rscale>  0 0.24482350E+04</rscale>
<asrwt>0</asrwt>
<pdfrwt beam="1">  1        2 0.48592633E+00 0.24482350E+04</pdfrwt>
<pdfrwt beam="2">  1       -2 0.72987599E-01 0.24482350E+04</pdfrwt>
<totfact> 0.20972581E+00</totfact>
</mgrwt>
</event>
<event>
 6    1  0.2238133E-007  0.1037513E+04  0.7818608E-02  0.9268332E-01
         -2   -1    0    0    0  501 -0.00000000000E+00  0.00000000000E+00  0.18441569149E+03  0.18441569149E+03  0.00000000000E+00 0.  1.
          2   -1    0    0  501    0  0.00000000000E+00 -0.00000000000E+00 -0.14592486763E+04  0.14592486763E+04  0.00000000000E+00 0. -1.
         23    2    1    2    0    0 -0.33796909646E+03  0.13701915299E+03 -0.12173646047E+04  0.12744761053E+04  0.96516339460E+02 0.  0.
         11    1    3    3    0    0 -0.12973926321E+03  0.24638455929E+02 -0.57353307708E+03  0.58854016042E+03  0.00000000000E+00 0. -1.
        -11    1    3    3    0    0 -0.20822983325E+03  0.11238069706E+03 -0.64383152760E+03  0.68593594487E+03  0.00000000000E+00 0.  1.
         22    1    1    2    0    0  0.33796909646E+03 -0.13701915299E+03 -0.57468380136E+02  0.36918826250E+03  0.00000000000E+00 0.  1.
<mgrwt>
<rscale>  0 0.10375131E+04</rscale>
<asrwt>0</asrwt>
<pdfrwt beam="1">  1        2 0.22449979E+00 0.10375131E+04</pdfrwt>
<pdfrwt beam="2">  1       -2 0.28371645E-01 0.10375131E+04</pdfrwt>
<totfact> 0.15159518E+02</totfact>
</mgrwt>
</event>
<event>
 6    1  0.2238133E-007  0.2401392E+04  0.7818608E-02  0.8438983E-01
          2   -1    0    0  501    0  0.00000000000E+00  0.00000000000E+00  0.91084095441E+03  0.91084095441E+03  0.00000000000E+00 0. -1.
         -2   -1    0    0    0  501 -0.00000000000E+00 -0.00000000000E+00 -0.15827907823E+04  0.15827907823E+04  0.00000000000E+00 0.  1.
         23    2    1    2    0    0  0.10197465402E+04 -0.28344619053E+03  0.24809023054E+03  0.10912414707E+04  0.95049648885E+02 0.  0.
         13    1    3    3    0    0  0.46450836336E+03 -0.15994635885E+03  0.15294319024E+03  0.51453131759E+03  0.00000000000E+00 0.  1.
        -13    1    3    3    0    0  0.55523817681E+03 -0.12349983167E+03  0.95147040304E+02  0.57671015310E+03  0.00000000000E+00 0. -1.
         22    1    1    2    0    0 -0.10197465402E+04  0.28344619053E+03 -0.92004005843E+03  0.14023902660E+04  0.00000000000E+00 0.  1.
<mgrwt>
<rscale>  0 0.24013918E+04</rscale>
<asrwt>0</asrwt>
<pdfrwt beam="1">  1        2 0.14012938E+00 0.24013918E+04</pdfrwt>
<pdfrwt beam="2">  1       -2 0.24350627E+00 0.24013918E+04</pdfrwt>
<totfact> 0.18263839E+00</totfact>
</mgrwt>
</event>
<event>
 6    1  0.2238133E-007  0.1832939E+04  0.7818608E-02  0.8688976E-01
          2   -1    0    0  501    0  0.00000000000E+00  0.00000000000E+00  0.54334881434E+03  0.54334881434E+03  0.00000000000E+00 0. -1.
         -2   -1    0    0    0  501 -0.00000000000E+00 -0.00000000000E+00 -0.15458141437E+04  0.15458141437E+04  0.00000000000E+00 0.  1.
         23    2    1    2    0    0  0.85187516378E+03  0.23028581903E+03 -0.23086239479E+03  0.91694542627E+03  0.93640890153E+02 0.  0.
         13    1    3    3    0    0  0.37796263514E+03  0.14629533985E+03 -0.85899214211E+02  0.41429066490E+03  0.00000000000E+00 0.  1.
        -13    1    3    3    0    0  0.47391252865E+03  0.83990479173E+02 -0.14496318058E+03  0.50265476137E+03  0.00000000000E+00 0. -1.
         22    1    1    2    0    0 -0.85187516378E+03 -0.23028581903E+03 -0.77160293453E+03  0.11722175317E+04  0.00000000000E+00 0.  1.
<mgrwt>
<rscale>  0 0.18329389E+04</rscale>
<asrwt>0</asrwt>
<pdfrwt beam="1">  1        2 0.83592127E-01 0.18329389E+04</pdfrwt>
<pdfrwt beam="2">  1       -2 0.23781756E+00 0.18329389E+04</pdfrwt>
<totfact> 0.40173630E+00</totfact>
</mgrwt>
</event>
<event>
 6    1  0.2238133E-007  0.1123284E+04  0.7818608E-02  0.9182790E-01
         -2   -1    0    0    0  501 -0.00000000000E+00  0.00000000000E+00  0.36976096855E+03  0.36976096855E+03  0.00000000000E+00 0.  1.
          2   -1    0    0  501    0  0.00000000000E+00 -0.00000000000E+00 -0.85309674339E+03  0.85309674339E+03  0.00000000000E+00 0. -1.
         23    2    1    2    0    0 -0.22627506755E+03  0.46434059043E+02  0.31067755941E+03  0.39592742286E+03  0.82954506918E+02 0.  0.
         11    1    3    3    0    0 -0.12234050429E+03 -0.89630833371E+01  0.11866551477E+03  0.17067231834E+03  0.00000000000E+00 0. -1.
        -11    1    3    3    0    0 -0.10393456326E+03  0.55397142380E+02  0.19201204464E+03  0.22525510452E+03  0.00000000000E+00 0.  1.
         22    1    1    2    0    0  0.22627506755E+03 -0.46434059043E+02 -0.79401333425E+03  0.82693028908E+03  0.00000000000E+00 0. -1.
<mgrwt>
<rscale>  0 0.11232843E+04</rscale>
<asrwt>0</asrwt>
<pdfrwt beam="1">  1        2 0.13124565E+00 0.11232843E+04</pdfrwt>
<pdfrwt beam="2">  1       -2 0.56886303E-01 0.11232843E+04</pdfrwt>
<totfact> 0.90746271E+01</totfact>
</mgrwt>
</event>
<event>
 6    1  0.2238133E-007  0.5383144E+04  0.7818608E-02  0.7771976E-01
         -2   -1    0    0    0  501 -0.00000000000E+00  0.00000000000E+00  0.18509324159E+04  0.18509324159E+04  0.00000000000E+00 0.  1.
          2   -1    0    0  501    0  0.00000000000E+00 -0.00000000000E+00 -0.39140061386E+04  0.39140061386E+04  0.00000000000E+00 0. -1.
         23    2    1    2    0    0  0.17924999627E+04  0.11891192761E+04  0.69942807660E+03  0.22637277697E+04  0.90570480278E+02 0.  0.
         13    1    3    3    0    0  0.12692354233E+04  0.79391756537E+03  0.49845398319E+03  0.15778846706E+04  0.00000000000E+00 0.  1.
        -13    1    3    3    0    0  0.52326453938E+03  0.39520171072E+03  0.20097409341E+03  0.68584309907E+03  0.00000000000E+00 0. -1.
         22    1    1    2    0    0 -0.17924999627E+04 -0.11891192761E+04 -0.27625017993E+04  0.35012107849E+04  0.00000000000E+00 0. -1.
<mgrwt>
<rscale>  0 0.53831444E+04</rscale>
<asrwt>0</asrwt>
<pdfrwt beam="1">  1        2 0.60215479E+00 0.53831444E+04</pdfrwt>
<pdfrwt beam="2">  1       -2 0.28475883E+00 0.53831444E+04</pdfrwt>
<totfact> 0.11101101E-02</totfact>
</mgrwt>
</event>
<event>
 6    1  0.2238133E-007  0.5851912E+04  0.7818608E-02  0.7709039E-01
         -2   -1    0    0    0  501 -0.00000000000E+00  0.00000000000E+00  0.37633650735E+04  0.37633650735E+04  0.00000000000E+00 0.  1.
          2   -1    0    0  501    0  0.00000000000E+00 -0.00000000000E+00 -0.22748835103E+04  0.22748835103E+04  0.00000000000E+00 0. -1.
         23    2    1    2    0    0  0.21092990186E+04  0.69965945964E+03  0.27071934282E+04  0.35037024077E+04  0.91480022934E+02 0.  0.
         11    1    3    3    0    0  0.14460871998E+04  0.44018923737E+03  0.18722009636E+04  0.24062566784E+04  0.00000000000E+00 0. -1.
        -11    1    3    3    0    0  0.66321181879E+03  0.25947022227E+03  0.83499246461E+03  0.10974457293E+04  0.00000000000E+00 0.  1.
         22    1    1    2    0    0 -0.21092990186E+04 -0.69965945964E+03 -0.12187118650E+04  0.25345461762E+04  0.00000000000E+00 0. -1.
<mgrwt>
<rscale>  0 0.58519115E+04</rscale>
<asrwt>0</asrwt>
<pdfrwt beam="1">  1        2 0.34998208E+00 0.58519115E+04</pdfrwt>
<pdfrwt beam="2">  1       -2 0.57897924E+00 0.58519115E+04</pdfrwt>
<totfact> 0.20186745E-03</totfact>
</mgrwt>
</event>
<event>
 6    1  0.2238133E-007  0.1120950E+04  0.7818608E-02  0.9185010E-01
          2   -1    0    0  501    0  0.00000000000E+00  0.00000000000E+00  0.98241586285E+03  0.98241586285E+03  0.00000000000E+00 0. -1.
         -2   -1    0    0    0  501 -0.00000000000E+00 -0.00000000000E+00 -0.31975474198E+03  0.31975474198E+03  0.00000000000E+00 0.  1.
         23    2    1    2    0    0  0.44414484540E+03  0.20825608567E+03  0.63973750073E+03  0.81108941676E+03  0.89256547242E+02 0.  0.
         13    1    3    3    0    0  0.17732383137E+03  0.10879756448E+03  0.33219493453E+03  0.39196189322E+03  0.00000000000E+00 0.  1.
        -13    1    3    3    0    0  0.26682101403E+03  0.99458521191E+02  0.30754256620E+03  0.41912752354E+03  0.00000000000E+00 0. -1.
         22    1    1    2    0    0 -0.44414484540E+03 -0.20825608567E+03  0.22923620138E+02  0.49108118807E+03  0.00000000000E+00 0.  1.
<mgrwt>
<rscale>  0 0.11209498E+04</rscale>
<asrwt>0</asrwt>
<pdfrwt beam="1">  1        2 0.15114090E+00 0.11209498E+04</pdfrwt>
<pdfrwt beam="2">  1       -2 0.49193038E-01 0.11209498E+04</pdfrwt>
<totfact> 0.10027976E+02</totfact>
</mgrwt>
</event>
<event>
 6    1  0.2238133E-007  0.1410103E+04  0.7818608E-02  0.8946538E-01
         -2   -1    0    0    0  501 -0.00000000000E+00  0.00000000000E+00  0.17915519165E+03  0.17915519165E+03  0.00000000000E+00 0.  1.
          2   -1    0    0  501    0  0.00000000000E+00 -0.00000000000E+00 -0.27746761136E+04  0.27746761136E+04  0.00000000000E+00 0. -1.
         23    2    1    2    0    0  0.54446205142E+03  0.29046128046E+02 -0.37724833044E+03  0.66953362473E+03  0.93147028104E+02 0.  0.
         11    1    3    3    0    0  0.10581874522E+03  0.36672654905E+02 -0.52394049963E+02  0.12364314348E+03  0.00000000000E+00 0. -1.
        -11    1    3    3    0    0  0.43864330620E+03 -0.76265268592E+01 -0.32485428047E+03  0.54589048126E+03  0.00000000000E+00 0.  1.
         22    1    1    2    0    0 -0.54446205142E+03 -0.29046128046E+02 -0.22182725915E+04  0.22842976805E+04  0.00000000000E+00 0. -1.
<mgrwt>
<rscale>  0 0.14101030E+04</rscale>
<asrwt>0</asrwt>
<pdfrwt beam="1">  1        2 0.42687322E+00 0.14101030E+04</pdfrwt>
<pdfrwt beam="2">  1       -2 0.27562339E-01 0.14101030E+04</pdfrwt>
<totfact> 0.28133824E+01</totfact>
</mgrwt>
</event>
<event>
 6    1  0.2238133E-007  0.3278654E+04  0.7818608E-02  0.8168348E-01
          2   -1    0    0  501    0  0.00000000000E+00  0.00000000000E+00  0.25164743842E+04  0.25164743842E+04  0.00000000000E+00 0. -1.
         -2   -1    0    0    0  501 -0.00000000000E+00 -0.00000000000E+00 -0.10679196225E+04  0.10679196225E+04  0.00000000000E+00 0.  1.
         23    2    1    2    0    0 -0.60037036968E+03  0.23477963252E+03 -0.92140100320E+03  0.11283287828E+04  0.92628163924E+02 0.  0.
         11    1    3    3    0    0 -0.90954846362E+02  0.41569754352E+01 -0.10804379319E+03  0.14129234151E+03  0.00000000000E+00 0.  1.
        -11    1    3    3    0    0 -0.50941552331E+03  0.23062265709E+03 -0.81335721001E+03  0.98703644128E+03  0.00000000000E+00 0. -1.
         22    1    1    2    0    0  0.60037036968E+03 -0.23477963252E+03  0.23699557649E+04  0.24560652239E+04  0.00000000000E+00 0. -1.
<mgrwt>
<rscale>  0 0.32786536E+04</rscale>
<asrwt>0</asrwt>
<pdfrwt beam="1">  1        2 0.38714990E+00 0.32786536E+04</pdfrwt>
<pdfrwt beam="2">  1       -2 0.16429533E+00 0.32786536E+04</pdfrwt>
<totfact> 0.66730153E-01</totfact>
</mgrwt>
</event>
<event>
 6    1  0.2238133E-007  0.5182667E+04  0.7818608E-02  0.7800931E-01
         -1   -1    0    0    0  501 -0.00000000000E+00  0.00000000000E+00  0.44615864900E+04  0.44615864900E+04  0.00000000000E+00 0.  1.
          1   -1    0    0  501    0  0.00000000000E+00 -0.00000000000E+00 -0.15050720129E+04  0.15050720129E+04  0.00000000000E+00 0. -1.
         23    2    1    2    0    0 -0.28513358073E+03  0.22486592420E+04  0.29224316023E+04  0.36997374218E+04  0.98391945917E+02 0.  0.
         11    1    3    3    0    0 -0.16901927620E+03  0.95173450025E+03  0.12317393377E+04  0.15657419554E+04  0.00000000000E+00 0.  1.
        -11    1    3    3    0    0 -0.11611430452E+03  0.12969247418E+04  0.16906922645E+04  0.21339954665E+04  0.00000000000E+00 0. -1.
         22    1    1    2    0    0  0.28513358073E+03 -0.22486592420E+04  0.34082874859E+02  0.22669210811E+04  0.00000000000E+00 0.  1.
<mgrwt>
<rscale>  0 0.51826669E+04</rscale>
<asrwt>0</asrwt>
<pdfrwt beam="1">  1        1 0.23154954E+00 0.51826669E+04</pdfrwt>
<pdfrwt beam="2">  1       -1 0.68639792E+00 0.51826669E+04</pdfrwt>
<totfact> 0.10401812E-03</totfact>
</mgrwt>
</event>
<event>
 6    1  0.2238133E-007  0.2146307E+04  0.7818608E-02  0.8541115E-01
         -2   -1    0    0    0  501 -0.00000000000E+00  0.00000000000E+00  0.78278756542E+03  0.78278756542E+03  0.00000000000E+00 0.  1.
          2   -1    0    0  501    0  0.00000000000E+00 -0.00000000000E+00 -0.14712276532E+04  0.14712276532E+04  0.00000000000E+00 0. -1.
         23    2    1    2    0    0 -0.62425841092E+03 -0.28748541253E+03 -0.12078898479E+04  0.13925197286E+04  0.88129925483E+02 0.  0.
         13    1    3    3    0    0 -0.17461005365E+03 -0.94667696472E+02 -0.42851858240E+03  0.47231220507E+03  0.00000000000E+00 0.  1.
        -13    1    3    3    0    0 -0.44964835728E+03 -0.19281771606E+03 -0.77937126551E+03  0.92020752351E+03  0.00000000000E+00 0. -1.
         22    1    1    2    0    0  0.62425841092E+03  0.28748541253E+03  0.51944976015E+03  0.86149549003E+03  0.00000000000E+00 0.  1.
<mgrwt>
<rscale>  0 0.21463073E+04</rscale>
<asrwt>0</asrwt>
<pdfrwt beam="1">  1        2 0.22634271E+00 0.21463073E+04</pdfrwt>
<pdfrwt beam="2">  1       -2 0.12042886E+00 0.21463073E+04</pdfrwt>
<totfact> 0.63690579E+00</totfact>
</mgrwt>
</event>
<event>
 6    1  0.2238133E-007  0.2276046E+04  0.7818608E-02  0.8487426E-01
         -1   -1    0    0    0  501 -0.00000000000E+00  0.00000000000E+00  0.35784398582E+03  0.35784398582E+03  0.00000000000E+00 0.  1.
          1   -1    0    0  501    0  0.00000000000E+00 -0.00000000000E+00 -0.36191662314E+04  0.36191662314E+04  0.00000000000E+00 0. -1.
         23    2    1    2    0    0  0.62663061144E+02 -0.11968414652E+03 -0.36044806280E+04  0.36082167390E+04  0.93254939726E+02 0.  0.
         13    1    3    3    0    0  0.80189998504E+02 -0.11006980661E+03 -0.26232637650E+04  0.26267962576E+04  0.00000000000E+00 0.  1.
        -13    1    3    3    0    0 -0.17526937359E+02 -0.96143399116E+01 -0.98121686300E+03  0.98142048139E+03  0.00000000000E+00 0. -1.
         22    1    1    2    0    0 -0.62663061144E+02  0.11968414652E+03  0.34315838242E+03  0.36879347823E+03  0.00000000000E+00 0.  1.
<mgrwt>
<rscale>  0 0.22760465E+04</rscale>
<asrwt>0</asrwt>
<pdfrwt beam="1">  1        1 0.55679482E+00 0.22760465E+04</pdfrwt>
<pdfrwt beam="2">  1       -1 0.55052920E-01 0.22760465E+04</pdfrwt>
<totfact> 0.60802815E-01</totfact>
</mgrwt>
</event>
<event>
 6    1  0.2238133E-007  0.3473238E+04  0.7818608E-02  0.8120162E-01
          2   -1    0    0  501    0  0.00000000000E+00  0.00000000000E+00  0.19007689686E+04  0.19007689686E+04  0.00000000000E+00 0. -1.
         -2   -1    0    0    0  501 -0.00000000000E+00 -0.00000000000E+00 -0.15866447205E+04  0.15866447205E+04  0.00000000000E+00 0.  1.
         23    2    1    2    0    0 -0.10668961354E+03  0.17129029027E+04 -0.10144468952E+03  0.17215947375E+04  0.90434436203E+02 0.  0.
         11    1    3    3    0    0 -0.10725199328E+02  0.40342086759E+03 -0.59545569704E+02  0.40793271649E+03  0.00000000000E+00 0.  1.
        -11    1    3    3    0    0 -0.95964414212E+02  0.13094820351E+04 -0.41899119817E+02  0.13136620210E+04  0.00000000000E+00 0. -1.
         22    1    1    2    0    0  0.10668961354E+03 -0.17129029027E+04  0.41556893762E+03  0.17658189516E+04  0.00000000000E+00 0. -1.
<mgrwt>
<rscale>  0 0.34732377E+04</rscale>
<asrwt>0</asrwt>
<pdfrwt beam="1">  1        2 0.29242599E+00 0.34732377E+04</pdfrwt>
<pdfrwt beam="2">  1       -2 0.24409919E+00 0.34732377E+04</pdfrwt>
<totfact> 0.43654736E-01</totfact>
</mgrwt>
</event>
<event>
 6    1  0.2238133E-007  0.2106370E+04  0.7818608E-02  0.8558442E-01
         -2   -1    0    0    0  501 -0.00000000000E+00  0.00000000000E+00  0.11618191816E+04  0.11618191816E+04  0.00000000000E+00 0.  1.
          2   -1    0    0  501    0  0.00000000000E+00 -0.00000000000E+00 -0.95470874420E+03  0.95470874420E+03  0.00000000000E+00 0. -1.
         23    2    1    2    0    0  0.17282730298E+03  0.28665597489E+03 -0.89757397100E+03  0.96224521920E+03  0.90751880718E+02 0.  0.
         13    1    3    3    0    0  0.13361971020E+03  0.13604493272E+03 -0.46867140596E+03  0.50597958203E+03  0.00000000000E+00 0. -1.
        -13    1    3    3    0    0  0.39207592777E+02  0.15061104217E+03 -0.42890256504E+03  0.45626563716E+03  0.00000000000E+00 0.  1.
         22    1    1    2    0    0 -0.17282730298E+03 -0.28665597489E+03  0.11046844084E+04  0.11542827066E+04  0.00000000000E+00 0.  1.
<mgrwt>
<rscale>  0 0.21063703E+04</rscale>
<asrwt>0</asrwt>
<pdfrwt beam="1">  1        2 0.14687827E+00 0.21063703E+04</pdfrwt>
<pdfrwt beam="2">  1       -2 0.17874141E+00 0.21063703E+04</pdfrwt>
<totfact> 0.45922787E+00</totfact>
</mgrwt>
</event>
<event>
 6    1  0.2238133E-007  0.2417922E+04  0.7818608E-02  0.8432824E-01
         -2   -1    0    0    0  501 -0.00000000000E+00  0.00000000000E+00  0.12259572902E+04  0.12259572902E+04  0.00000000000E+00 0.  1.
          2   -1    0    0  501    0  0.00000000000E+00 -0.00000000000E+00 -0.11922006110E+04  0.11922006110E+04  0.00000000000E+00 0. -1.
         23    2    1    2    0    0  0.78829226762E+03 -0.84581990482E+03  0.36425846137E+03  0.12156407750E+04  0.91006904649E+02 0.  0.
         11    1    3    3    0    0  0.33430825055E+03 -0.42472201896E+03  0.16356051483E+03  0.56471483227E+03  0.00000000000E+00 0.  1.
        -11    1    3    3    0    0  0.45398401707E+03 -0.42109788586E+03  0.20069794654E+03  0.65092594278E+03  0.00000000000E+00 0. -1.
         22    1    1    2    0    0 -0.78829226762E+03  0.84581990482E+03 -0.33050178218E+03  0.12025171261E+04  0.00000000000E+00 0. -1.
<mgrwt>
<rscale>  0 0.24179223E+04</rscale>
<asrwt>0</asrwt>
<pdfrwt beam="1">  1        2 0.18341548E+00 0.24179223E+04</pdfrwt>
<pdfrwt beam="2">  1       -2 0.18860881E+00 0.24179223E+04</pdfrwt>
<totfact> 0.27226495E+00</totfact>
</mgrwt>
</event>
<event>
 6    1  0.2238133E-007  0.2024961E+04  0.7818608E-02  0.8595039E-01
          2   -1    0    0  501    0  0.00000000000E+00  0.00000000000E+00  0.10644856915E+04  0.10644856915E+04  0.00000000000E+00 0. -1.
         -2   -1    0    0    0  501 -0.00000000000E+00 -0.00000000000E+00 -0.96301607824E+03  0.96301607824E+03  0.00000000000E+00 0.  1.
         23    2    1    2    0    0  0.96921744320E+03 -0.25550889362E+03  0.17868856142E+03  0.10222008134E+04  0.91091459692E+02 0.  0.
         11    1    3    3    0    0  0.90889171113E+03 -0.22181986326E+03  0.15058845443E+03  0.94761019248E+03  0.00000000000E+00 0.  1.
        -11    1    3    3    0    0  0.60325732073E+02 -0.33689030366E+02  0.28100106994E+02  0.74590620927E+02  0.00000000000E+00 0. -1.
         22    1    1    2    0    0 -0.96921744320E+03  0.25550889362E+03 -0.77218948130E+02  0.10053009564E+04  0.00000000000E+00 0.  1.
<mgrwt>
<rscale>  0 0.20249611E+04</rscale>
<asrwt>0</asrwt>
<pdfrwt beam="1">  1        2 0.16376703E+00 0.20249611E+04</pdfrwt>
<pdfrwt beam="2">  1       -2 0.14815632E+00 0.20249611E+04</pdfrwt>
<totfact> 0.65799699E+00</totfact>
</mgrwt>
</event>
<event>
 6    1  0.2238133E-007  0.4032187E+04  0.7818608E-02  0.7998085E-01
          2   -1    0    0  501    0  0.00000000000E+00  0.00000000000E+00  0.24513489509E+04  0.24513489509E+04  0.00000000000E+00 0. -1.
         -2   -1    0    0    0  501 -0.00000000000E+00 -0.00000000000E+00 -0.16581207223E+04  0.16581207223E+04  0.00000000000E+00 0.  1.
         23    2    1    2    0    0 -0.18140317240E+04 -0.59686583085E+03  0.10523110076E+04  0.21822738342E+04  0.89446715763E+02 0.  0.
         13    1    3    3    0    0 -0.52199196828E+03 -0.20193285984E+03  0.34146637859E+03  0.65563082793E+03  0.00000000000E+00 0.  1.
        -13    1    3    3    0    0 -0.12920397557E+04 -0.39493297101E+03  0.71084462896E+03  0.15266430062E+04  0.00000000000E+00 0. -1.
         22    1    1    2    0    0  0.18140317240E+04  0.59686583085E+03 -0.25908277894E+03  0.19271958390E+04  0.00000000000E+00 0.  1.
<mgrwt>
<rscale>  0 0.40321867E+04</rscale>
<asrwt>0</asrwt>
<pdfrwt beam="1">  1        2 0.37713061E+00 0.40321867E+04</pdfrwt>
<pdfrwt beam="2">  1       -2 0.25509549E+00 0.40321867E+04</pdfrwt>
<totfact> 0.17474025E-01</totfact>
</mgrwt>
</event>
<event>
 6    1  0.2238133E-007  0.2052263E+04  0.7818608E-02  0.8582568E-01
         -2   -1    0    0    0  501 -0.00000000000E+00  0.00000000000E+00  0.39859626550E+03  0.39859626550E+03  0.00000000000E+00 0.  1.
          2   -1    0    0  501    0  0.00000000000E+00 -0.00000000000E+00 -0.26416353616E+04  0.26416353616E+04  0.00000000000E+00 0. -1.
         23    2    1    2    0    0 -0.72750773173E+03  0.44358376987E+03 -0.19652200840E+04  0.21440076238E+04  0.92976620590E+02 0.  0.
         13    1    3    3    0    0 -0.14568934377E+03  0.10930226715E+03 -0.50962939554E+03  0.54119727576E+03  0.00000000000E+00 0. -1.
        -13    1    3    3    0    0 -0.58181838796E+03  0.33428150271E+03 -0.14555906884E+04  0.16028103481E+04  0.00000000000E+00 0.  1.
         22    1    1    2    0    0  0.72750773173E+03 -0.44358376987E+03 -0.27781901217E+03  0.89622400332E+03  0.00000000000E+00 0.  1.
<mgrwt>
<rscale>  0 0.20522631E+04</rscale>
<asrwt>0</asrwt>
<pdfrwt beam="1">  1        2 0.40640542E+00 0.20522631E+04</pdfrwt>
<pdfrwt beam="2">  1       -2 0.61322505E-01 0.20522631E+04</pdfrwt>
<totfact> 0.65846367E+00</totfact>
</mgrwt>
</event>
<event>
 6    1  0.2238133E-007  0.1907631E+04  0.7818608E-02  0.8651067E-01
          2   -1    0    0  501    0  0.00000000000E+00  0.00000000000E+00  0.90513827648E+03  0.90513827648E+03  0.00000000000E+00 0. -1.
         -2   -1    0    0    0  501 -0.00000000000E+00 -0.00000000000E+00 -0.10051100937E+04  0.10051100937E+04  0.00000000000E+00 0.  1.
         23    2    1    2    0    0  0.74766469953E+03 -0.37218652958E+02 -0.63788874979E+03  0.98843366132E+03  0.98546002788E+02 0.  0.
         11    1    3    3    0    0  0.66556075771E+03 -0.74978720791E+01 -0.58637483906E+03  0.88705286888E+03  0.00000000000E+00 0.  1.
        -11    1    3    3    0    0  0.82103941814E+02 -0.29720780879E+02 -0.51513910728E+02  0.10138079244E+03  0.00000000000E+00 0. -1.
         22    1    1    2    0    0 -0.74766469953E+03  0.37218652958E+02  0.53791693260E+03  0.92181470884E+03  0.00000000000E+00 0. -1.
<mgrwt>
<rscale>  0 0.19076306E+04</rscale>
<asrwt>0</asrwt>
<pdfrwt beam="1">  1        2 0.13925204E+00 0.19076306E+04</pdfrwt>
<pdfrwt beam="2">  1       -2 0.15463232E+00 0.19076306E+04</pdfrwt>
<totfact> 0.75199716E+00</totfact>
</mgrwt>
</event>
<event>
 6    1  0.2238133E-007  0.2051381E+04  0.7818608E-02  0.8582968E-01
          2   -1    0    0  501    0  0.00000000000E+00  0.00000000000E+00  0.29793843090E+04  0.29793843090E+04  0.00000000000E+00 0. -1.
         -2   -1    0    0    0  501 -0.00000000000E+00 -0.00000000000E+00 -0.35310676765E+03  0.35310676765E+03  0.00000000000E+00 0.  1.
         23    2    1    2    0    0  0.44695651916E+03 -0.63543814574E+03  0.23987118057E+04  0.25229616263E+04  0.89248380862E+02 0.  0.
         11    1    3    3    0    0  0.18653814275E+02 -0.68498342014E+02  0.19403414876E+03  0.20661374236E+03  0.00000000000E+00 0.  1.
        -11    1    3    3    0    0  0.42830270489E+03 -0.56693980373E+03  0.22046776570E+04  0.23163478839E+04  0.00000000000E+00 0. -1.
         22    1    1    2    0    0 -0.44695651916E+03  0.63543814574E+03  0.22756573565E+03  0.80952945044E+03  0.00000000000E+00 0.  1.
<mgrwt>
<rscale>  0 0.20513808E+04</rscale>
<asrwt>0</asrwt>
<pdfrwt beam="1">  1        2 0.45836680E+00 0.20513808E+04</pdfrwt>
<pdfrwt beam="2">  1       -2 0.54324120E-01 0.20513808E+04</pdfrwt>
<totfact> 0.53042598E+00</totfact>
</mgrwt>
</event>
<event>
 6    1  0.2238133E-007  0.2867232E+04  0.7818608E-02  0.8282694E-01
          2   -1    0    0  501    0  0.00000000000E+00  0.00000000000E+00  0.18582433386E+04  0.18582433386E+04  0.00000000000E+00 0. -1.
         -2   -1    0    0    0  501 -0.00000000000E+00 -0.00000000000E+00 -0.11060199431E+04  0.11060199431E+04  0.00000000000E+00 0.  1.
         23    2    1    2    0    0 -0.10558524817E+03  0.31387070615E+03  0.18168241067E+04  0.18493472583E+04  0.97838553166E+02 0.  0.
         11    1    3    3    0    0 -0.95900132386E+02  0.30313778513E+03  0.15575382797E+04  0.15896587196E+04  0.00000000000E+00 0. -1.
        -11    1    3    3    0    0 -0.96851157854E+01  0.10732921015E+02  0.25928582699E+03  0.25968853871E+03  0.00000000000E+00 0.  1.
         22    1    1    2    0    0  0.10558524817E+03 -0.31387070615E+03 -0.10646007112E+04  0.11149160233E+04  0.00000000000E+00 0.  1.
<mgrwt>
<rscale>  0 0.28672316E+04</rscale>
<asrwt>0</asrwt>
<pdfrwt beam="1">  1        2 0.28588359E+00 0.28672316E+04</pdfrwt>
<pdfrwt beam="2">  1       -2 0.17015691E+00 0.28672316E+04</pdfrwt>
<totfact> 0.14737269E+00</totfact>
</mgrwt>
</event>
<event>
 6    1  0.2238133E-007  0.3039682E+04  0.7818608E-02  0.8232489E-01
          2   -1    0    0  501    0  0.00000000000E+00  0.00000000000E+00  0.22250279246E+04  0.22250279246E+04  0.00000000000E+00 0. -1.
         -2   -1    0    0    0  501 -0.00000000000E+00 -0.00000000000E+00 -0.10381515181E+04  0.10381515181E+04  0.00000000000E+00 0.  1.
         23    2    1    2    0    0  0.12799015191E+04 -0.58876345545E+03 -0.14000066079E+02  0.14119920920E+04  0.93463152984E+02 0.  0.
         11    1    3    3    0    0  0.47636165411E+03 -0.20577489813E+03 -0.48589085992E+02  0.52117620195E+03  0.00000000000E+00 0. -1.
        -11    1    3    3    0    0  0.80353986499E+03 -0.38298855732E+03  0.34589019914E+02  0.89081589005E+03  0.00000000000E+00 0.  1.
         22    1    1    2    0    0 -0.12799015191E+04  0.58876345545E+03  0.12008764726E+04  0.18511873507E+04  0.00000000000E+00 0. -1.
<mgrwt>
<rscale>  0 0.30396816E+04</rscale>
<asrwt>0</asrwt>
<pdfrwt beam="1">  1        2 0.34231199E+00 0.30396816E+04</pdfrwt>
<pdfrwt beam="2">  1       -2 0.15971562E+00 0.30396816E+04</pdfrwt>
<totfact> 0.10795502E+00</totfact>
</mgrwt>
</event>
<event>
 6    1  0.2238133E-007  0.2086770E+04  0.7818608E-02  0.8567094E-01
         -2   -1    0    0    0  501 -0.00000000000E+00  0.00000000000E+00  0.17218992761E+04  0.17218992761E+04  0.00000000000E+00 0.  1.
          2   -1    0    0  501    0  0.00000000000E+00 -0.00000000000E+00 -0.63223923191E+03  0.63223923191E+03  0.00000000000E+00 0. -1.
         23    2    1    2    0    0  0.47582251130E+03 -0.92532019511E+03  0.50203718692E+03  0.11591802878E+04  0.95042499743E+02 0.  0.
         13    1    3    3    0    0  0.29191355785E+03 -0.51872027010E+03  0.24079925655E+03  0.64208140125E+03  0.00000000000E+00 0.  1.
        -13    1    3    3    0    0  0.18390895345E+03 -0.40659992501E+03  0.26123793037E+03  0.51709888652E+03  0.00000000000E+00 0. -1.
         22    1    1    2    0    0 -0.47582251130E+03  0.92532019511E+03  0.58762285729E+03  0.11949582203E+04  0.00000000000E+00 0.  1.
<mgrwt>
<rscale>  0 0.20867700E+04</rscale>
<asrwt>0</asrwt>
<pdfrwt beam="1">  1        2 0.97267575E-01 0.20867700E+04</pdfrwt>
<pdfrwt beam="2">  1       -2 0.26490758E+00 0.20867700E+04</pdfrwt>
<totfact> 0.22349934E+00</totfact>
</mgrwt>
</event>
<event>
 6    1  0.2238133E-007  0.1104164E+04  0.7818608E-02  0.9201143E-01
          2   -1    0    0  501    0  0.00000000000E+00  0.00000000000E+00  0.23966973621E+04  0.23966973621E+04  0.00000000000E+00 0. -1.
         -2   -1    0    0    0  501 -0.00000000000E+00 -0.00000000000E+00 -0.12717279655E+03  0.12717279655E+03  0.00000000000E+00 0.  1.
         23    2    1    2    0    0  0.22368647918E+03 -0.15210613844E+03  0.22321824183E+04  0.22508017528E+04  0.10148036053E+03 0.  0.
         13    1    3    3    0    0  0.21413184909E+03 -0.10145452781E+03  0.18776398935E+04  0.18925319125E+04  0.00000000000E+00 0. -1.
        -13    1    3    3    0    0  0.95546300949E+01 -0.50651610639E+02  0.35454252476E+03  0.35826984032E+03  0.00000000000E+00 0.  1.
         22    1    1    2    0    0 -0.22368647918E+03  0.15210613844E+03  0.37342147281E+02  0.27306840587E+03  0.00000000000E+00 0.  1.
<mgrwt>
<rscale>  0 0.11041643E+04</rscale>
<asrwt>0</asrwt>
<pdfrwt beam="1">  1        2 0.36872264E+00 0.11041643E+04</pdfrwt>
<pdfrwt beam="2">  1       -2 0.19565047E-01 0.11041643E+04</pdfrwt>
<totfact> 0.88675506E+01</totfact>
</mgrwt>
</event>
<event>
 6    1  0.2238133E-007  0.3621829E+04  0.7818608E-02  0.8085510E-01
         -1   -1    0    0    0  501 -0.00000000000E+00  0.00000000000E+00  0.11134405910E+04  0.11134405910E+04  0.00000000000E+00 0.  1.
          1   -1    0    0  501    0  0.00000000000E+00 -0.00000000000E+00 -0.29452958532E+04  0.29452958532E+04  0.00000000000E+00 0. -1.
         23    2    1    2    0    0  0.16297474778E+04 -0.73097617048E+03 -0.58947870225E+03  0.18829831219E+04  0.87961888762E+02 0.  0.
         11    1    3    3    0    0  0.74454845711E+03 -0.36593541889E+03 -0.30815610701E+03  0.88499792207E+03  0.00000000000E+00 0. -1.
        -11    1    3    3    0    0  0.88519902067E+03 -0.36504075159E+03 -0.28132259524E+03  0.99798519984E+03  0.00000000000E+00 0.  1.
         22    1    1    2    0    0 -0.16297474778E+04  0.73097617048E+03 -0.12423765599E+04  0.21757533224E+04  0.00000000000E+00 0. -1.
<mgrwt>
<rscale>  0 0.36218293E+04</rscale>
<asrwt>0</asrwt>
<pdfrwt beam="1">  1        1 0.45312243E+00 0.36218293E+04</pdfrwt>
<pdfrwt beam="2">  1       -1 0.17129856E+00 0.36218293E+04</pdfrwt>
<totfact> 0.12727806E-01</totfact>
</mgrwt>
</event>
<event>
 6    1  0.5822935E-007  0.5138013E+04  0.7818608E-02  0.7807563E-01
         -2   -1    0    0    0  501 -0.00000000000E+00  0.00000000000E+00  0.22287056255E+04  0.22287056255E+04  0.00000000000E+00 0.  1.
          2   -1    0    0  501    0  0.00000000000E+00 -0.00000000000E+00 -0.29612673212E+04  0.29612673212E+04  0.00000000000E+00 0. -1.
         23    2    1    2    0    0  0.53200870872E+03  0.28257820534E+03  0.21553990823E+04  0.22398541078E+04  0.91200393148E+02 0.  0.
         11    1    3    3    0    0  0.39775412492E+03  0.17757791414E+03  0.14405473196E+04  0.15049647303E+04  0.00000000000E+00 0. -1.
        -11    1    3    3    0    0  0.13425458380E+03  0.10500029120E+03  0.71485176274E+03  0.73488937747E+03  0.00000000000E+00 0.  1.
         22    1    1    2    0    0 -0.53200870872E+03 -0.28257820534E+03 -0.28879607780E+04  0.29501188389E+04  0.00000000000E+00 0. -1.
<mgrwt>
<rscale>  0 0.51380125E+04</rscale>
<asrwt>0</asrwt>
<pdfrwt beam="1">  1        2 0.45557959E+00 0.51380125E+04</pdfrwt>
<pdfrwt beam="2">  1       -2 0.34287779E+00 0.51380125E+04</pdfrwt>
<totfact> 0.22859403E-02</totfact>
</mgrwt>
</event>
<event>
 6    1  0.2238133E-007  0.1885862E+04  0.7818608E-02  0.8661926E-01
          2   -1    0    0  501    0  0.00000000000E+00  0.00000000000E+00  0.12940753698E+04  0.12940753698E+04  0.00000000000E+00 0. -1.
         -2   -1    0    0    0  501 -0.00000000000E+00 -0.00000000000E+00 -0.68706859895E+03  0.68706859895E+03  0.00000000000E+00 0.  1.
         23    2    1    2    0    0  0.64445488919E+03  0.54209929564E+01  0.10240975752E+04  0.12134746191E+04  0.91615043756E+02 0.  0.
         11    1    3    3    0    0  0.35096048658E+03  0.46909339635E+02  0.53459008712E+03  0.64121783392E+03  0.00000000000E+00 0.  1.
        -11    1    3    3    0    0  0.29349440261E+03 -0.41488346679E+02  0.48950748806E+03  0.57225678514E+03  0.00000000000E+00 0. -1.
         22    1    1    2    0    0 -0.64445488919E+03 -0.54209929564E+01 -0.41709080434E+03  0.76766934968E+03  0.00000000000E+00 0.  1.
<mgrwt>
<rscale>  0 0.18858617E+04</rscale>
<asrwt>0</asrwt>
<pdfrwt beam="1">  1        2 0.19908852E+00 0.18858617E+04</pdfrwt>
<pdfrwt beam="2">  1       -2 0.10570286E+00 0.18858617E+04</pdfrwt>
<totfact> 0.11304341E+01</totfact>
</mgrwt>
</event>
<event>
 6    1  0.2238133E-007  0.2600965E+04  0.7818608E-02  0.8367873E-01
          2   -1    0    0  501    0  0.00000000000E+00  0.00000000000E+00  0.19276986154E+04  0.19276986154E+04  0.00000000000E+00 0. -1.
         -2   -1    0    0    0  501 -0.00000000000E+00 -0.00000000000E+00 -0.87734406859E+03  0.87734406859E+03  0.00000000000E+00 0.  1.
         23    2    1    2    0    0 -0.55286366496E+03  0.78200380812E+03  0.14722677975E+04  0.17585251356E+04  0.87464261076E+02 0.  0.
         13    1    3    3    0    0 -0.26088110932E+03  0.35323894791E+03  0.75337290278E+03  0.87201343921E+03  0.00000000000E+00 0.  1.
        -13    1    3    3    0    0 -0.29198255564E+03  0.42876486020E+03  0.71889489476E+03  0.88651169640E+03  0.00000000000E+00 0. -1.
         22    1    1    2    0    0  0.55286366496E+03 -0.78200380812E+03 -0.42191325072E+03  0.10465175484E+04  0.00000000000E+00 0.  1.
<mgrwt>
<rscale>  0 0.26009652E+04</rscale>
<asrwt>0</asrwt>
<pdfrwt beam="1">  1        2 0.29656902E+00 0.26009652E+04</pdfrwt>
<pdfrwt beam="2">  1       -2 0.13497601E+00 0.26009652E+04</pdfrwt>
<totfact> 0.25588311E+00</totfact>
</mgrwt>
</event>
<event>
 6    1  0.2238133E-007  0.2106678E+04  0.7818608E-02  0.8558308E-01
          2   -1    0    0  501    0  0.00000000000E+00  0.00000000000E+00  0.62190222478E+03  0.62190222478E+03  0.00000000000E+00 0. -1.
         -2   -1    0    0    0  501 -0.00000000000E+00 -0.00000000000E+00 -0.17840788609E+04  0.17840788609E+04  0.00000000000E+00 0.  1.
         23    2    1    2    0    0  0.16786286487E+03  0.51908049973E+02 -0.17660233685E+04  0.17770905839E+04  0.91323699522E+02 0.  0.
         13    1    3    3    0    0  0.91367511946E+02  0.46985711709E+02 -0.13613426761E+04  0.13652141082E+04  0.00000000000E+00 0. -1.
        -13    1    3    3    0    0  0.76495352928E+02  0.49223382638E+01 -0.40468069240E+03  0.41187647570E+03  0.00000000000E+00 0.  1.
         22    1    1    2    0    0 -0.16786286487E+03 -0.51908049973E+02  0.60384673239E+03  0.62889050181E+03  0.00000000000E+00 0. -1.
<mgrwt>
<rscale>  0 0.21066776E+04</rscale>
<asrwt>0</asrwt>
<pdfrwt beam="1">  1        2 0.95677268E-01 0.21066776E+04</pdfrwt>
<pdfrwt beam="2">  1       -2 0.27447366E+00 0.21066776E+04</pdfrwt>
<totfact> 0.19906063E+00</totfact>
</mgrwt>
</event>
<event>
 6    1  0.2238133E-007  0.1260298E+04  0.7818608E-02  0.9061656E-01
         -2   -1    0    0    0  501 -0.00000000000E+00  0.00000000000E+00  0.28815657195E+03  0.28815657195E+03  0.00000000000E+00 0.  1.
          2   -1    0    0  501    0  0.00000000000E+00 -0.00000000000E+00 -0.13780278825E+04  0.13780278825E+04  0.00000000000E+00 0. -1.
         23    2    1    2    0    0 -0.44205710583E+02 -0.13287347984E+03 -0.13555777574E+04  0.13658356199E+04  0.91139330781E+02 0.  0.
         13    1    3    3    0    0 -0.41985157770E+02 -0.87180365285E+01 -0.35825612660E+03  0.36081326179E+03  0.00000000000E+00 0.  1.
        -13    1    3    3    0    0 -0.22205528129E+01 -0.12415544331E+03 -0.99732163084E+03  0.10050223581E+04  0.00000000000E+00 0. -1.
         22    1    1    2    0    0  0.44205710583E+02  0.13287347984E+03  0.26570644689E+03  0.30034883455E+03  0.00000000000E+00 0.  1.
<mgrwt>
<rscale>  0 0.12602980E+04</rscale>
<asrwt>0</asrwt>
<pdfrwt beam="1">  1        2 0.21200429E+00 0.12602980E+04</pdfrwt>
<pdfrwt beam="2">  1       -2 0.44331781E-01 0.12602980E+04</pdfrwt>
<totfact> 0.70618884E+01</totfact>
</mgrwt>
</event>
<event>
 6    1  0.2238133E-007  0.2528008E+04  0.7818608E-02  0.8393075E-01
          2   -1    0    0  501    0  0.00000000000E+00  0.00000000000E+00  0.12137735594E+04  0.12137735594E+04  0.00000000000E+00 0. -1.
         -2   -1    0    0    0  501 -0.00000000000E+00 -0.00000000000E+00 -0.13163133092E+04  0.13163133092E+04  0.00000000000E+00 0.  1.
         23    2    1    2    0    0 -0.28383964499E+03  0.12240580169E+04 -0.17220674795E+03  0.12716209519E+04  0.92096191171E+02 0.  0.
         11    1    3    3    0    0 -0.48612720204E+02  0.29081780379E+03 -0.57852959804E+01  0.29490958143E+03  0.00000000000E+00 0.  1.
        -11    1    3    3    0    0 -0.23522692479E+03  0.93324021314E+03 -0.16642145197E+03  0.97671137049E+03  0.00000000000E+00 0. -1.
         22    1    1    2    0    0  0.28383964499E+03 -0.12240580169E+04  0.69666998177E+02  0.12584659167E+04  0.00000000000E+00 0.  1.
<mgrwt>
<rscale>  0 0.25280081E+04</rscale>
<asrwt>0</asrwt>
<pdfrwt beam="1">  1        2 0.18673439E+00 0.25280081E+04</pdfrwt>
<pdfrwt beam="2">  1       -2 0.20250974E+00 0.25280081E+04</pdfrwt>
<totfact> 0.21177286E+00</totfact>
</mgrwt>
</event>
<event>
 6    1  0.2238133E-007  0.4638430E+04  0.7818608E-02  0.7886840E-01
         -2   -1    0    0    0  501 -0.00000000000E+00  0.00000000000E+00  0.18935632995E+04  0.18935632995E+04  0.00000000000E+00 0.  1.
          2   -1    0    0  501    0  0.00000000000E+00 -0.00000000000E+00 -0.28405478818E+04  0.28405478818E+04  0.00000000000E+00 0. -1.
         23    2    1    2    0    0 -0.21265177908E+04  0.43235567775E+03  0.35850539109E+03  0.22016591250E+04  0.98830363912E+02 0.  0.
         13    1    3    3    0    0 -0.34159472769E+03  0.33314084310E+02  0.63310645871E+02  0.34900576511E+03  0.00000000000E+00 0.  1.
        -13    1    3    3    0    0 -0.17849230631E+04  0.39904159344E+03  0.29519474522E+03  0.18526533599E+04  0.00000000000E+00 0. -1.
         22    1    1    2    0    0  0.21265177908E+04 -0.43235567775E+03 -0.13054899734E+04  0.25324520563E+04  0.00000000000E+00 0. -1.
<mgrwt>
<rscale>  0 0.46384296E+04</rscale>
<asrwt>0</asrwt>
<pdfrwt beam="1">  1        2 0.43700736E+00 0.46384296E+04</pdfrwt>
<pdfrwt beam="2">  1       -2 0.29131743E+00 0.46384296E+04</pdfrwt>
<totfact> 0.58785882E-02</totfact>
</mgrwt>
</event>
<event>
 6    1  0.2238133E-007  0.3574542E+04  0.7818608E-02  0.8096348E-01
         -2   -1    0    0    0  501 -0.00000000000E+00  0.00000000000E+00  0.96955016349E+03  0.96955016349E+03  0.00000000000E+00 0.  1.
          2   -1    0    0  501    0  0.00000000000E+00 -0.00000000000E+00 -0.32946598359E+04  0.32946598359E+04  0.00000000000E+00 0. -1.
         23    2    1    2    0    0  0.15487775197E+04 -0.18909854018E+03 -0.22003934985E+04  0.26989546888E+04  0.90303931371E+02 0.  0.
         13    1    3    3    0    0  0.91384783152E+03 -0.89132175461E+02 -0.13602577393E+04  0.16411470139E+04  0.00000000000E+00 0.  1.
        -13    1    3    3    0    0  0.63492968823E+03 -0.99966364723E+02 -0.84013575919E+03  0.10578076748E+04  0.00000000000E+00 0. -1.
         22    1    1    2    0    0 -0.15487775197E+04  0.18909854018E+03 -0.12471617392E+03  0.15652553107E+04  0.00000000000E+00 0.  1.
<mgrwt>
<rscale>  0 0.35745422E+04</rscale>
<asrwt>0</asrwt>
<pdfrwt beam="1">  1        2 0.50687074E+00 0.35745422E+04</pdfrwt>
<pdfrwt beam="2">  1       -2 0.14916156E+00 0.35745422E+04</pdfrwt>
<totfact> 0.27858456E-01</totfact>
</mgrwt>
</event>
<event>
 6    1  0.2238133E-007  0.1153868E+04  0.7818608E-02  0.9154222E-01
         -2   -1    0    0    0  501 -0.00000000000E+00  0.00000000000E+00  0.20215867466E+03  0.20215867466E+03  0.00000000000E+00 0.  1.
          2   -1    0    0  501    0  0.00000000000E+00 -0.00000000000E+00 -0.16464936901E+04  0.16464936901E+04  0.00000000000E+00 0. -1.
         23    2    1    2    0    0 -0.30963758521E+03  0.17495061552E+03 -0.70738963003E+01  0.36804347763E+03  0.94460623402E+02 0.  0.
         11    1    3    3    0    0 -0.15266633184E+03  0.32876234038E+02 -0.70256634041E+01  0.15632407232E+03  0.00000000000E+00 0.  1.
        -11    1    3    3    0    0 -0.15697125338E+03  0.14207438148E+03 -0.48232896165E-01  0.21171940531E+03  0.00000000000E+00 0. -1.
         22    1    1    2    0    0  0.30963758521E+03 -0.17495061552E+03 -0.14372611191E+04  0.14806088871E+04  0.00000000000E+00 0. -1.
<mgrwt>
<rscale>  0 0.11538682E+04</rscale>
<asrwt>0</asrwt>
<pdfrwt beam="1">  1        2 0.25330672E+00 0.11538682E+04</pdfrwt>
<pdfrwt beam="2">  1       -2 0.31101335E-01 0.11538682E+04</pdfrwt>
<totfact> 0.99603268E+01</totfact>
</mgrwt>
</event>
<event>
 6    1  0.2238133E-007  0.2889936E+04  0.7818608E-02  0.8275878E-01
         -1   -1    0    0    0  501 -0.00000000000E+00  0.00000000000E+00  0.61691286482E+03  0.61691286482E+03  0.00000000000E+00 0.  1.
          1   -1    0    0  501    0  0.00000000000E+00 -0.00000000000E+00 -0.33844860091E+04  0.33844860091E+04  0.00000000000E+00 0. -1.
         23    2    1    2    0    0 -0.61008704548E+02  0.14244040483E+04 -0.10744413399E+04  0.17879526329E+04  0.98496040032E+02 0.  0.
         11    1    3    3    0    0 -0.16335632774E+02  0.11831963406E+04 -0.90735725013E+03  0.14911464089E+04  0.00000000000E+00 0. -1.
        -11    1    3    3    0    0 -0.44673071773E+02  0.24120770764E+03 -0.16708408978E+03  0.29680622403E+03  0.00000000000E+00 0.  1.
         22    1    1    2    0    0  0.61008704548E+02 -0.14244040483E+04 -0.16931318043E+04  0.22134462409E+04  0.00000000000E+00 0. -1.
<mgrwt>
<rscale>  0 0.28899363E+04</rscale>
<asrwt>0</asrwt>
<pdfrwt beam="1">  1        1 0.52069013E+00 0.28899363E+04</pdfrwt>
<pdfrwt beam="2">  1       -1 0.94909675E-01 0.28899363E+04</pdfrwt>
<totfact> 0.28336870E-01</totfact>
</mgrwt>
</event>
<event>
 6    1  0.2238133E-007  0.3245441E+04  0.7818608E-02  0.8176918E-01
          2   -1    0    0  501    0  0.00000000000E+00  0.00000000000E+00  0.13184539729E+04  0.13184539729E+04  0.00000000000E+00 0. -1.
         -2   -1    0    0    0  501 -0.00000000000E+00 -0.00000000000E+00 -0.19972045328E+04  0.19972045328E+04  0.00000000000E+00 0.  1.
         23    2    1    2    0    0 -0.15554838027E+04  0.43950009623E+03 -0.20925972791E+03  0.16324734783E+04  0.92140265703E+02 0.  0.
         11    1    3    3    0    0 -0.21883568316E+03  0.29657033373E+02 -0.34776744350E+02  0.22355763866E+03  0.00000000000E+00 0.  1.
        -11    1    3    3    0    0 -0.13366481195E+04  0.40984306286E+03 -0.17448298355E+03  0.14089158396E+04  0.00000000000E+00 0. -1.
         22    1    1    2    0    0  0.15554838027E+04 -0.43950009623E+03 -0.46949083198E+03  0.16831850274E+04  0.00000000000E+00 0. -1.
<mgrwt>
<rscale>  0 0.32454413E+04</rscale>
<asrwt>0</asrwt>
<pdfrwt beam="1">  1        2 0.20283907E+00 0.32454413E+04</pdfrwt>
<pdfrwt beam="2">  1       -2 0.30726224E+00 0.32454413E+04</pdfrwt>
<totfact> 0.38803797E-01</totfact>
</mgrwt>
</event>
<event>
 6    1  0.2238133E-007  0.2022568E+04  0.7818608E-02  0.8596142E-01
         -2   -1    0    0    0  501 -0.00000000000E+00  0.00000000000E+00  0.33804615900E+03  0.33804615900E+03  0.00000000000E+00 0.  1.
          2   -1    0    0  501    0  0.00000000000E+00 -0.00000000000E+00 -0.30253123677E+04  0.30253123677E+04  0.00000000000E+00 0. -1.
         23    2    1    2    0    0 -0.83544458173E+02 -0.87784437921E+03 -0.21627074575E+04  0.23373213373E+04  0.90427078802E+02 0.  0.
         13    1    3    3    0    0 -0.61354255016E+02 -0.77958043005E+03 -0.18406320936E+04  0.19998591189E+04  0.00000000000E+00 0.  1.
        -13    1    3    3    0    0 -0.22190203158E+02 -0.98263949154E+02 -0.32207536388E+03  0.33746221838E+03  0.00000000000E+00 0. -1.
         22    1    1    2    0    0  0.83544458173E+02  0.87784437921E+03 -0.52455875127E+03  0.10260371895E+04  0.00000000000E+00 0.  1.
<mgrwt>
<rscale>  0 0.20225679E+04</rscale>
<asrwt>0</asrwt>
<pdfrwt beam="1">  1        2 0.46543266E+00 0.20225679E+04</pdfrwt>
<pdfrwt beam="2">  1       -2 0.52007103E-01 0.20225679E+04</pdfrwt>
<totfact> 0.54466070E+00</totfact>
</mgrwt>
</event>
<event>
 6    1  0.2238133E-007  0.3483136E+04  0.7818608E-02  0.8117798E-01
         -2   -1    0    0    0  501 -0.00000000000E+00  0.00000000000E+00  0.12769339370E+04  0.12769339370E+04  0.00000000000E+00 0.  1.
          2   -1    0    0  501    0  0.00000000000E+00 -0.00000000000E+00 -0.23752668024E+04  0.23752668024E+04  0.00000000000E+00 0. -1.
         23    2    1    2    0    0  0.16555573127E+04  0.21364664643E+03 -0.34199470685E+02  0.16725808802E+04  0.99208325069E+02 0.  0.
         11    1    3    3    0    0  0.10535479882E+04  0.17077156062E+03  0.11014943809E+02  0.10673554320E+04  0.00000000000E+00 0.  1.
        -11    1    3    3    0    0  0.60200932455E+03  0.42875085807E+02 -0.45214414494E+02  0.60522544817E+03  0.00000000000E+00 0. -1.
         22    1    1    2    0    0 -0.16555573127E+04 -0.21364664643E+03 -0.10641333947E+04  0.19796198592E+04  0.00000000000E+00 0.  1.
<mgrwt>
<rscale>  0 0.34831358E+04</rscale>
<asrwt>0</asrwt>
<pdfrwt beam="1">  1        2 0.36542566E+00 0.34831358E+04</pdfrwt>
<pdfrwt beam="2">  1       -2 0.19645138E+00 0.34831358E+04</pdfrwt>
<totfact> 0.47438004E-01</totfact>
</mgrwt>
</event>
<event>
 6    1  0.2238133E-007  0.2661863E+04  0.7818608E-02  0.8347486E-01
         -2   -1    0    0    0  501 -0.00000000000E+00  0.00000000000E+00  0.99828340425E+03  0.99828340425E+03  0.00000000000E+00 0.  1.
          2   -1    0    0  501    0  0.00000000000E+00 -0.00000000000E+00 -0.17744249414E+04  0.17744249414E+04  0.00000000000E+00 0. -1.
         23    2    1    2    0    0  0.10707888107E+04 -0.41269045330E+03  0.31040778162E+03  0.11923629690E+04  0.92056349536E+02 0.  0.
         11    1    3    3    0    0  0.21021417816E+03 -0.81921301811E+02  0.23675628392E+02  0.22685157211E+03  0.00000000000E+00 0.  1.
        -11    1    3    3    0    0  0.86057463257E+03 -0.33076915149E+03  0.28673215323E+03  0.96551139687E+03  0.00000000000E+00 0. -1.
         22    1    1    2    0    0 -0.10707888107E+04  0.41269045330E+03 -0.10865493188E+04  0.15803453767E+04  0.00000000000E+00 0. -1.
<mgrwt>
<rscale>  0 0.26618632E+04</rscale>
<asrwt>0</asrwt>
<pdfrwt beam="1">  1        2 0.27298845E+00 0.26618632E+04</pdfrwt>
<pdfrwt beam="2">  1       -2 0.15358206E+00 0.26618632E+04</pdfrwt>
<totfact> 0.22079751E+00</totfact>
</mgrwt>
</event>
<event>
 6    1  0.2238133E-007  0.9231454E+03  0.7818608E-02  0.9397102E-01
          2   -1    0    0  501    0  0.00000000000E+00  0.00000000000E+00  0.11431398114E+04  0.11431398114E+04  0.00000000000E+00 0. -1.
         -2   -1    0    0    0  501 -0.00000000000E+00 -0.00000000000E+00 -0.18637209646E+03  0.18637209646E+03  0.00000000000E+00 0.  1.
         23    2    1    2    0    0  0.27201158470E+03  0.36728085902E+03  0.51041291905E+03  0.69067066355E+03  0.87287375530E+02 0.  0.
         13    1    3    3    0    0  0.61955482759E+02  0.15023695283E+03  0.16016876792E+03  0.22817462185E+03  0.00000000000E+00 0. -1.
        -13    1    3    3    0    0  0.21005610194E+03  0.21704390619E+03  0.35024415113E+03  0.46249604169E+03  0.00000000000E+00 0.  1.
         22    1    1    2    0    0 -0.27201158470E+03 -0.36728085902E+03  0.44635479584E+03  0.63884124428E+03  0.00000000000E+00 0. -1.
<mgrwt>
<rscale>  0 0.92314541E+03</rscale>
<asrwt>0</asrwt>
<pdfrwt beam="1">  1        2 0.17586766E+00 0.92314541E+03</pdfrwt>
<pdfrwt beam="2">  1       -2 0.28672631E-01 0.92314541E+03</pdfrwt>
<totfact> 0.22871876E+02</totfact>
</mgrwt>
</event>
<event>
 6    1  0.2238133E-007  0.1212058E+04  0.7818608E-02  0.9102367E-01
          2   -1    0    0  501    0  0.00000000000E+00  0.00000000000E+00  0.37294136326E+03  0.37294136326E+03  0.00000000000E+00 0. -1.
         -2   -1    0    0    0  501 -0.00000000000E+00 -0.00000000000E+00 -0.98479569254E+03  0.98479569254E+03  0.00000000000E+00 0.  1.
         23    2    1    2    0    0 -0.19662524263E+03 -0.56874607727E+03 -0.29995683094E+03  0.67993646866E+03  0.10102432645E+03 0.  0.
         11    1    3    3    0    0 -0.18528932862E+03 -0.40060790415E+03 -0.20758132115E+03  0.48775899075E+03  0.00000000000E+00 0. -1.
        -11    1    3    3    0    0 -0.11335914017E+02 -0.16813817313E+03 -0.92375509794E+02  0.19217747792E+03  0.00000000000E+00 0.  1.
         22    1    1    2    0    0  0.19662524263E+03  0.56874607727E+03 -0.31189749834E+03  0.67780058714E+03  0.00000000000E+00 0.  1.
<mgrwt>
<rscale>  0 0.12120578E+04</rscale>
<asrwt>0</asrwt>
<pdfrwt beam="1">  1        2 0.57375595E-01 0.12120578E+04</pdfrwt>
<pdfrwt beam="2">  1       -2 0.15150703E+00 0.12120578E+04</pdfrwt>
<totfact> 0.24726932E+01</totfact>
</mgrwt>
</event>
<event>
 6    1  0.2238133E-007  0.8124863E+03  0.7818608E-02  0.9542118E-01
         -2   -1    0    0    0  501 -0.00000000000E+00  0.00000000000E+00  0.37880077464E+03  0.37880077464E+03  0.00000000000E+00 0.  1.
          2   -1    0    0  501    0  0.00000000000E+00 -0.00000000000E+00 -0.43567356523E+03  0.43567356523E+03  0.00000000000E+00 0. -1.
         23    2    1    2    0    0  0.11913617483E+03 -0.37989666503E+02 -0.41102044398E+03  0.43889851089E+03  0.89763325351E+02 0.  0.
         11    1    3    3    0    0  0.12327049606E+03 -0.37919299981E+02 -0.28514899262E+03  0.31295916108E+03  0.00000000000E+00 0.  1.
        -11    1    3    3    0    0 -0.41343212340E+01 -0.70366521951E-01 -0.12587145136E+03  0.12593934981E+03  0.00000000000E+00 0. -1.
         22    1    1    2    0    0 -0.11913617483E+03  0.37989666503E+02  0.35414765339E+03  0.37557582898E+03  0.00000000000E+00 0.  1.
<mgrwt>
<rscale>  0 0.81248627E+03</rscale>
<asrwt>0</asrwt>
<pdfrwt beam="1">  1        2 0.67026702E-01 0.81248627E+03</pdfrwt>
<pdfrwt beam="2">  1       -2 0.58277043E-01 0.81248627E+03</pdfrwt>
<totfact> 0.20019817E+02</totfact>
</mgrwt>
</event>
<event>
 6    1  0.2238133E-007  0.1839769E+04  0.7818608E-02  0.8685432E-01
          2   -1    0    0  501    0  0.00000000000E+00  0.00000000000E+00  0.33101039032E+04  0.33101039032E+04  0.00000000000E+00 0. -1.
         -2   -1    0    0    0  501 -0.00000000000E+00 -0.00000000000E+00 -0.25563786380E+03  0.25563786380E+03  0.00000000000E+00 0.  1.
         23    2    1    2    0    0  0.48791801257E+03  0.27417286513E+03  0.29404503109E+04  0.29945724985E+04  0.89340198178E+02 0.  0.
         11    1    3    3    0    0  0.23407551029E+03  0.16326953014E+03  0.13065302184E+04  0.13373367173E+04  0.00000000000E+00 0.  1.
        -11    1    3    3    0    0  0.25384250228E+03  0.11090333499E+03  0.16339200925E+04  0.16572357812E+04  0.00000000000E+00 0. -1.
         22    1    1    2    0    0 -0.48791801257E+03 -0.27417286513E+03  0.11401572855E+03  0.57116926854E+03  0.00000000000E+00 0.  1.
<mgrwt>
<rscale>  0 0.18397694E+04</rscale>
<asrwt>0</asrwt>
<pdfrwt beam="1">  1        2 0.50924672E+00 0.18397694E+04</pdfrwt>
<pdfrwt beam="2">  1       -2 0.39328905E-01 0.18397694E+04</pdfrwt>
<totfact> 0.63463447E+00</totfact>
</mgrwt>
</event>
<event>
 6    1  0.2238133E-007  0.1637734E+04  0.7818608E-02  0.8797696E-01
         -2   -1    0    0    0  501 -0.00000000000E+00  0.00000000000E+00  0.31152475686E+03  0.31152475686E+03  0.00000000000E+00 0.  1.
          2   -1    0    0  501    0  0.00000000000E+00 -0.00000000000E+00 -0.21524562473E+04  0.21524562473E+04  0.00000000000E+00 0. -1.
         23    2    1    2    0    0  0.13370931664E+03  0.42289557037E+03  0.10735971296E+03  0.46584250595E+03  0.93617773870E+02 0.  0.
         13    1    3    3    0    0  0.10873313846E+03  0.20577816497E+03  0.33431637452E+02  0.23512809904E+03  0.00000000000E+00 0. -1.
        -13    1    3    3    0    0  0.24976178184E+02  0.21711740540E+03  0.73928075509E+02  0.23071440690E+03  0.00000000000E+00 0.  1.
         22    1    1    2    0    0 -0.13370931664E+03 -0.42289557037E+03 -0.19482912034E+04  0.19981384982E+04  0.00000000000E+00 0. -1.
<mgrwt>
<rscale>  0 0.16377343E+04</rscale>
<asrwt>0</asrwt>
<pdfrwt beam="1">  1        2 0.33114711E+00 0.16377343E+04</pdfrwt>
<pdfrwt beam="2">  1       -2 0.47926886E-01 0.16377343E+04</pdfrwt>
<totfact> 0.21669801E+01</totfact>
</mgrwt>
</event>
<event>
 6    1  0.2238133E-007  0.2053963E+04  0.7818608E-02  0.8581799E-01
         -2   -1    0    0    0  501 -0.00000000000E+00  0.00000000000E+00  0.56596957898E+03  0.56596957898E+03  0.00000000000E+00 0.  1.
          2   -1    0    0  501    0  0.00000000000E+00 -0.00000000000E+00 -0.18635109316E+04  0.18635109316E+04  0.00000000000E+00 0. -1.
         23    2    1    2    0    0  0.57921691678E+03 -0.60355733325E+03  0.50111641164E+02  0.84330829960E+03  0.94255081531E+02 0.  0.
         13    1    3    3    0    0  0.15382436592E+03 -0.10401062432E+03  0.11409964923E+02  0.18603852510E+03  0.00000000000E+00 0.  1.
        -13    1    3    3    0    0  0.42539255086E+03 -0.49954670893E+03  0.38701676242E+02  0.65726977451E+03  0.00000000000E+00 0. -1.
         22    1    1    2    0    0 -0.57921691678E+03  0.60355733325E+03 -0.13476529938E+04  0.15861722110E+04  0.00000000000E+00 0. -1.
<mgrwt>
<rscale>  0 0.20539625E+04</rscale>
<asrwt>0</asrwt>
<pdfrwt beam="1">  1        2 0.28669399E+00 0.20539625E+04</pdfrwt>
<pdfrwt beam="2">  1       -2 0.87072244E-01 0.20539625E+04</pdfrwt>
<totfact> 0.83918332E+00</totfact>
</mgrwt>
</event>
<event>
 6    1  0.2238133E-007  0.3223476E+04  0.7818608E-02  0.8182645E-01
         -2   -1    0    0    0  501 -0.00000000000E+00  0.00000000000E+00  0.25860684970E+04  0.25860684970E+04  0.00000000000E+00 0.  1.
          2   -1    0    0  501    0  0.00000000000E+00 -0.00000000000E+00 -0.10044972993E+04  0.10044972993E+04  0.00000000000E+00 0. -1.
         23    2    1    2    0    0  0.48790926984E+02  0.12472062617E+04  0.19249990911E+04  0.22960208062E+04  0.90476671385E+02 0.  0.
         11    1    3    3    0    0 -0.58977545983E-01  0.92974239033E+03  0.14022142008E+04  0.16824463085E+04  0.00000000000E+00 0. -1.
        -11    1    3    3    0    0  0.48849904530E+02  0.31746387133E+03  0.52278489022E+03  0.61357449769E+03  0.00000000000E+00 0.  1.
         22    1    1    2    0    0 -0.48790926984E+02 -0.12472062617E+04 -0.34342789335E+03  0.12945449902E+04  0.00000000000E+00 0. -1.
<mgrwt>
<rscale>  0 0.32234757E+04</rscale>
<asrwt>0</asrwt>
<pdfrwt beam="1">  1        2 0.15453805E+00 0.32234757E+04</pdfrwt>
<pdfrwt beam="2">  1       -2 0.39785669E+00 0.32234757E+04</pdfrwt>
<totfact> 0.16106080E-01</totfact>
</mgrwt>
</event>
<event>
 6    1  0.2238133E-007  0.4362893E+04  0.7818608E-02  0.7935090E-01
         -2   -1    0    0    0  501 -0.00000000000E+00  0.00000000000E+00  0.99641321295E+03  0.99641321295E+03  0.00000000000E+00 0.  1.
          2   -1    0    0  501    0  0.00000000000E+00 -0.00000000000E+00 -0.47758397623E+04  0.47758397623E+04  0.00000000000E+00 0. -1.
         23    2    1    2    0    0 -0.48818283950E+03  0.12193587298E+04  0.41221795911E+03  0.13796407818E+04  0.91251544467E+02 0.  0.
         11    1    3    3    0    0 -0.13915072563E+03  0.36446141039E+03  0.16603682223E+03  0.42398498846E+03  0.00000000000E+00 0. -1.
        -11    1    3    3    0    0 -0.34903211387E+03  0.85489731939E+03  0.24618113687E+03  0.95565579335E+03  0.00000000000E+00 0.  1.
         22    1    1    2    0    0  0.48818283950E+03 -0.12193587298E+04 -0.41916445085E+04  0.43926121935E+04  0.00000000000E+00 0. -1.
<mgrwt>
<rscale>  0 0.43628935E+04</rscale>
<asrwt>0</asrwt>
<pdfrwt beam="1">  1        2 0.73474457E+00 0.43628935E+04</pdfrwt>
<pdfrwt beam="2">  1       -2 0.15329434E+00 0.43628935E+04</pdfrwt>
<totfact> 0.13574517E-02</totfact>
</mgrwt>
</event>
<event>
 6    1  0.2238133E-007  0.4143893E+04  0.7818608E-02  0.7976132E-01
         -2   -1    0    0    0  501 -0.00000000000E+00  0.00000000000E+00  0.19052225677E+04  0.19052225677E+04  0.00000000000E+00 0.  1.
          2   -1    0    0  501    0  0.00000000000E+00 -0.00000000000E+00 -0.22532598721E+04  0.22532598721E+04  0.00000000000E+00 0. -1.
         23    2    1    2    0    0 -0.16895607188E+04  0.29457906149E+03 -0.13389076800E+04  0.21777713687E+04  0.92855331883E+02 0.  0.
         11    1    3    3    0    0 -0.68039590418E+03  0.75966799362E+02 -0.55584255313E+03  0.88185627225E+03  0.00000000000E+00 0. -1.
        -11    1    3    3    0    0 -0.10091648147E+04  0.21861226213E+03 -0.78306512684E+03  0.12959150964E+04  0.00000000000E+00 0.  1.
         22    1    1    2    0    0  0.16895607188E+04 -0.29457906149E+03  0.99087037561E+03  0.19807110712E+04  0.00000000000E+00 0.  1.
<mgrwt>
<rscale>  0 0.41438926E+04</rscale>
<asrwt>0</asrwt>
<pdfrwt beam="1">  1        2 0.34665536E+00 0.41438926E+04</pdfrwt>
<pdfrwt beam="2">  1       -2 0.29311116E+00 0.41438926E+04</pdfrwt>
<totfact> 0.13160280E-01</totfact>
</mgrwt>
</event>
<event>
 6    1  0.2238133E-007  0.2441451E+04  0.7818608E-02  0.8424146E-01
          2   -1    0    0  501    0  0.00000000000E+00  0.00000000000E+00  0.17393891175E+04  0.17393891175E+04  0.00000000000E+00 0. -1.
         -2   -1    0    0    0  501 -0.00000000000E+00 -0.00000000000E+00 -0.85672075597E+03  0.85672075597E+03  0.00000000000E+00 0.  1.
         23    2    1    2    0    0 -0.28827475584E+03  0.83508880604E+03  0.13349509549E+04  0.16036204816E+04  0.95020776912E+02 0.  0.
         11    1    3    3    0    0 -0.16302225974E+03  0.59747418509E+03  0.95825793783E+03  0.11409688578E+04  0.00000000000E+00 0.  1.
        -11    1    3    3    0    0 -0.12525249610E+03  0.23761462095E+03  0.37669301710E+03  0.46265162380E+03  0.00000000000E+00 0. -1.
         22    1    1    2    0    0  0.28827475584E+03 -0.83508880604E+03 -0.45228259337E+03  0.99248939193E+03  0.00000000000E+00 0. -1.
<mgrwt>
<rscale>  0 0.24414510E+04</rscale>
<asrwt>0</asrwt>
<pdfrwt beam="1">  1        2 0.26759832E+00 0.24414510E+04</pdfrwt>
<pdfrwt beam="2">  1       -2 0.13180319E+00 0.24414510E+04</pdfrwt>
<totfact> 0.35048924E+00</totfact>
</mgrwt>
</event>
<event>
 6    1  0.2238133E-007  0.3826884E+04  0.7818608E-02  0.8040410E-01
         -2   -1    0    0    0  501 -0.00000000000E+00  0.00000000000E+00  0.16787721148E+04  0.16787721148E+04  0.00000000000E+00 0.  1.
          2   -1    0    0  501    0  0.00000000000E+00 -0.00000000000E+00 -0.21809151455E+04  0.21809151455E+04  0.00000000000E+00 0. -1.
         23    2    1    2    0    0  0.35600899678E+03 -0.16825965636E+04  0.59383338346E+03  0.18203153222E+04  0.55101572473E+02 0.  0.
         13    1    3    3    0    0  0.84118899121E+02 -0.51183304768E+03  0.16958109259E+03  0.54571678080E+03  0.00000000000E+00 0.  1.
        -13    1    3    3    0    0  0.27189009766E+03 -0.11707635159E+04  0.42425229087E+03  0.12745985414E+04  0.00000000000E+00 0. -1.
         22    1    1    2    0    0 -0.35600899678E+03  0.16825965636E+04 -0.10959764142E+04  0.20393719381E+04  0.00000000000E+00 0. -1.
<mgrwt>
<rscale>  0 0.38268836E+04</rscale>
<asrwt>0</asrwt>
<pdfrwt beam="1">  1        2 0.33552540E+00 0.38268836E+04</pdfrwt>
<pdfrwt beam="2">  1       -2 0.25827264E+00 0.38268836E+04</pdfrwt>
<totfact> 0.24210990E-01</totfact>
</mgrwt>
</event>
<event>
 6    1  0.2238133E-007  0.2813927E+04  0.7818608E-02  0.8298958E-01
         -2   -1    0    0    0  501 -0.00000000000E+00  0.00000000000E+00  0.44918577351E+03  0.44918577351E+03  0.00000000000E+00 0.  1.
          2   -1    0    0  501    0  0.00000000000E+00 -0.00000000000E+00 -0.44069651909E+04  0.44069651909E+04  0.00000000000E+00 0. -1.
         23    2    1    2    0    0  0.75921187518E+03  0.54674600686E+03 -0.37909752033E+04  0.39058049678E+04  0.92117246797E+02 0.  0.
         13    1    3    3    0    0  0.53205165610E+03  0.33012036942E+03 -0.25488341593E+04  0.26246169234E+04  0.00000000000E+00 0.  1.
        -13    1    3    3    0    0  0.22716021908E+03  0.21662563743E+03 -0.12421410440E+04  0.12811880444E+04  0.00000000000E+00 0. -1.
         22    1    1    2    0    0 -0.75921187518E+03 -0.54674600686E+03 -0.16680421411E+03  0.95034599661E+03  0.00000000000E+00 0.  1.
<mgrwt>
<rscale>  0 0.28139268E+04</rscale>
<asrwt>0</asrwt>
<pdfrwt beam="1">  1        2 0.67799464E+00 0.28139268E+04</pdfrwt>
<pdfrwt beam="2">  1       -2 0.69105505E-01 0.28139268E+04</pdfrwt>
<totfact> 0.25151856E-01</totfact>
</mgrwt>
</event>
<event>
 6    1  0.2238133E-007  0.2541926E+04  0.7818608E-02  0.8388199E-01
         -2   -1    0    0    0  501 -0.00000000000E+00  0.00000000000E+00  0.53781078374E+03  0.53781078374E+03  0.00000000000E+00 0.  1.
          2   -1    0    0  501    0  0.00000000000E+00 -0.00000000000E+00 -0.30035610626E+04  0.30035610626E+04  0.00000000000E+00 0. -1.
         23    2    1    2    0    0  0.87849154892E+03 -0.61742774183E+03 -0.29164825296E+03  0.11165658671E+04  0.93253494416E+02 0.  0.
         13    1    3    3    0    0  0.36807853724E+03 -0.28630277196E+03 -0.16842824199E+03  0.49580153238E+03  0.00000000000E+00 0.  1.
        -13    1    3    3    0    0  0.51041301167E+03 -0.33112496986E+03 -0.12322001097E+03  0.62076433472E+03  0.00000000000E+00 0. -1.
         22    1    1    2    0    0 -0.87849154892E+03  0.61742774183E+03 -0.21741020259E+04  0.24248059793E+04  0.00000000000E+00 0. -1.
<mgrwt>
<rscale>  0 0.25419265E+04</rscale>
<asrwt>0</asrwt>
<pdfrwt beam="1">  1        2 0.46208631E+00 0.25419265E+04</pdfrwt>
<pdfrwt beam="2">  1       -2 0.82740121E-01 0.25419265E+04</pdfrwt>
<totfact> 0.19723772E+00</totfact>
</mgrwt>
</event>
<event>
 6    1  0.2238133E-007  0.2377214E+04  0.7818608E-02  0.8448084E-01
         -2   -1    0    0    0  501 -0.00000000000E+00  0.00000000000E+00  0.45082408585E+03  0.45082408585E+03  0.00000000000E+00 0.  1.
          2   -1    0    0  501    0  0.00000000000E+00 -0.00000000000E+00 -0.31337868732E+04  0.31337868732E+04  0.00000000000E+00 0. -1.
         23    2    1    2    0    0  0.97194939861E+03 -0.57157429986E+03 -0.19021350576E+04  0.22130881713E+04  0.90877185284E+02 0.  0.
         13    1    3    3    0    0  0.46085445344E+03 -0.25144266707E+03 -0.96790706541E+03  0.11011150391E+04  0.00000000000E+00 0.  1.
        -13    1    3    3    0    0  0.51109494517E+03 -0.32013163279E+03 -0.93422799223E+03  0.11119731322E+04  0.00000000000E+00 0. -1.
         22    1    1    2    0    0 -0.97194939861E+03  0.57157429986E+03 -0.78082772969E+03  0.13715227877E+04  0.00000000000E+00 0.  1.
<mgrwt>
<rscale>  0 0.23772140E+04</rscale>
<asrwt>0</asrwt>
<pdfrwt beam="1">  1        2 0.48212107E+00 0.23772140E+04</pdfrwt>
<pdfrwt beam="2">  1       -2 0.69357550E-01 0.23772140E+04</pdfrwt>
<totfact> 0.24483235E+00</totfact>
</mgrwt>
</event>
<event>
 6    1  0.2238133E-007  0.2544058E+04  0.7818608E-02  0.8387456E-01
         -2   -1    0    0    0  501 -0.00000000000E+00  0.00000000000E+00  0.86990090793E+03  0.86990090793E+03  0.00000000000E+00 0.  1.
          2   -1    0    0  501    0  0.00000000000E+00 -0.00000000000E+00 -0.18600480499E+04  0.18600480499E+04  0.00000000000E+00 0. -1.
         23    2    1    2    0    0  0.46996178428E+02  0.17706553148E+03 -0.18446935527E+04  0.18559864808E+04  0.90723042048E+02 0.  0.
         13    1    3    3    0    0  0.37116230131E+02  0.12161744029E+02 -0.38367632601E+03  0.38565923521E+03  0.00000000000E+00 0. -1.
        -13    1    3    3    0    0  0.98799482968E+01  0.16490378745E+03 -0.14610172267E+04  0.14703272456E+04  0.00000000000E+00 0.  1.
         22    1    1    2    0    0 -0.46996178428E+02 -0.17706553148E+03  0.85454641070E+03  0.87396247704E+03  0.00000000000E+00 0.  1.
<mgrwt>
<rscale>  0 0.25440578E+04</rscale>
<asrwt>0</asrwt>
<pdfrwt beam="1">  1        2 0.28616124E+00 0.25440578E+04</pdfrwt>
<pdfrwt beam="2">  1       -2 0.13383091E+00 0.25440578E+04</pdfrwt>
<totfact> 0.28648599E+00</totfact>
</mgrwt>
</event>
<event>
 6    1  0.2238133E-007  0.4549349E+04  0.7818608E-02  0.7902054E-01
          2   -1    0    0  501    0  0.00000000000E+00  0.00000000000E+00  0.29403118216E+04  0.29403118216E+04  0.00000000000E+00 0. -1.
         -2   -1    0    0    0  501 -0.00000000000E+00 -0.00000000000E+00 -0.17597263789E+04  0.17597263789E+04  0.00000000000E+00 0.  1.
         23    2    1    2    0    0 -0.14973379490E+04  0.14145939590E+04 -0.40413422415E+03  0.21011089163E+04  0.90759046360E+02 0.  0.
         11    1    3    3    0    0 -0.52683957852E+03  0.52239379898E+03 -0.10516344438E+03  0.74934276052E+03  0.00000000000E+00 0. -1.
        -11    1    3    3    0    0 -0.97049837052E+03  0.89220015998E+03 -0.29897077977E+03  0.13517661557E+04  0.00000000000E+00 0.  1.
         22    1    1    2    0    0  0.14973379490E+04 -0.14145939590E+04  0.15847196668E+04  0.25989292843E+04  0.00000000000E+00 0. -1.
<mgrwt>
<rscale>  0 0.45493491E+04</rscale>
<asrwt>0</asrwt>
<pdfrwt beam="1">  1        2 0.45235566E+00 0.45493491E+04</pdfrwt>
<pdfrwt beam="2">  1       -2 0.27072714E+00 0.45493491E+04</pdfrwt>
<totfact> 0.68654068E-02</totfact>
</mgrwt>
</event>
<event>
 6    1  0.2238133E-007  0.1330471E+04  0.7818608E-02  0.9005745E-01
          2   -1    0    0  501    0  0.00000000000E+00  0.00000000000E+00  0.13583875100E+04  0.13583875100E+04  0.00000000000E+00 0. -1.
         -2   -1    0    0    0  501 -0.00000000000E+00 -0.00000000000E+00 -0.32578182776E+03  0.32578182776E+03  0.00000000000E+00 0.  1.
         23    2    1    2    0    0  0.25123081019E+03  0.41397152711E+03 -0.52733179748E+02  0.49570402881E+03  0.91936666687E+02 0.  0.
         13    1    3    3    0    0  0.16675882956E+02  0.97799804204E+02 -0.11427078476E+02  0.99867236355E+02  0.00000000000E+00 0. -1.
        -13    1    3    3    0    0  0.23455492724E+03  0.31617172291E+03 -0.41306101272E+02  0.39583679245E+03  0.00000000000E+00 0.  1.
         22    1    1    2    0    0 -0.25123081019E+03 -0.41397152711E+03  0.10853388620E+04  0.11884653089E+04  0.00000000000E+00 0. -1.
<mgrwt>
<rscale>  0 0.13304705E+04</rscale>
<asrwt>0</asrwt>
<pdfrwt beam="1">  1        2 0.20898269E+00 0.13304705E+04</pdfrwt>
<pdfrwt beam="2">  1       -2 0.50120282E-01 0.13304705E+04</pdfrwt>
<totfact> 0.56304161E+01</totfact>
</mgrwt>
</event>
<event>
 6    1  0.2238133E-007  0.4279397E+04  0.7818608E-02  0.7950439E-01
         -2   -1    0    0    0  501 -0.00000000000E+00  0.00000000000E+00  0.18102456321E+04  0.18102456321E+04  0.00000000000E+00 0.  1.
          2   -1    0    0  501    0  0.00000000000E+00 -0.00000000000E+00 -0.25291094173E+04  0.25291094173E+04  0.00000000000E+00 0. -1.
         23    2    1    2    0    0  0.21733867765E+03  0.19780897822E+04 -0.11540634900E+04  0.23023292591E+04  0.93713344165E+02 0.  0.
         13    1    3    3    0    0  0.13250394771E+03  0.14300847753E+04 -0.87168320840E+03  0.16800390997E+04  0.00000000000E+00 0. -1.
        -13    1    3    3    0    0  0.84834729937E+02  0.54800500691E+03 -0.28238028163E+03  0.62229015938E+03  0.00000000000E+00 0.  1.
         22    1    1    2    0    0 -0.21733867765E+03 -0.19780897822E+04  0.43519970483E+03  0.20370257903E+04  0.00000000000E+00 0.  1.
<mgrwt>
<rscale>  0 0.42793968E+04</rscale>
<asrwt>0</asrwt>
<pdfrwt beam="1">  1        2 0.38909376E+00 0.42793968E+04</pdfrwt>
<pdfrwt beam="2">  1       -2 0.27849933E+00 0.42793968E+04</pdfrwt>
<totfact> 0.11106981E-01</totfact>
</mgrwt>
</event>
<event>
 6    1  0.2238133E-007  0.9296874E+03  0.7818608E-02  0.9389213E-01
         -2   -1    0    0    0  501 -0.00000000000E+00  0.00000000000E+00  0.81927213192E+02  0.81927213192E+02  0.00000000000E+00 0.  1.
          2   -1    0    0  501    0  0.00000000000E+00 -0.00000000000E+00 -0.26374589002E+04  0.26374589002E+04  0.00000000000E+00 0. -1.
         23    2    1    2    0    0 -0.40888655866E+03 -0.16945080479E+03 -0.16589460712E+04  0.17195023404E+04  0.93190333452E+02 0.  0.
         11    1    3    3    0    0 -0.23062613754E+03 -0.11853956087E+03 -0.11177532990E+04  0.11474373535E+04  0.00000000000E+00 0.  1.
        -11    1    3    3    0    0 -0.17826042112E+03 -0.50911243924E+02 -0.54119277225E+03  0.57206498689E+03  0.00000000000E+00 0. -1.
         22    1    1    2    0    0  0.40888655866E+03  0.16945080479E+03 -0.89658561576E+03  0.99988377299E+03  0.00000000000E+00 0.  1.
<mgrwt>
<rscale>  0 0.92968738E+03</rscale>
<asrwt>0</asrwt>
<pdfrwt beam="1">  1        2 0.40576295E+00 0.92968738E+03</pdfrwt>
<pdfrwt beam="2">  1       -2 0.12604185E-01 0.92968738E+03</pdfrwt>
<totfact> 0.13888736E+02</totfact>
</mgrwt>
</event>
<event>
 6    1  0.2238133E-007  0.1065218E+04  0.7818608E-02  0.9239772E-01
          2   -1    0    0  501    0  0.00000000000E+00  0.00000000000E+00  0.87418033189E+03  0.87418033189E+03  0.00000000000E+00 0. -1.
         -2   -1    0    0    0  501 -0.00000000000E+00 -0.00000000000E+00 -0.32450106618E+03  0.32450106618E+03  0.00000000000E+00 0.  1.
         23    2    1    2    0    0 -0.23445147552E+03 -0.27735582885E+03 -0.15548649696E+03  0.40549005733E+03  0.91391387369E+02 0.  0.
         11    1    3    3    0    0 -0.14048891800E+03 -0.96309412495E+02 -0.64395662116E+02  0.18209733748E+03  0.00000000000E+00 0. -1.
        -11    1    3    3    0    0 -0.93962557517E+02 -0.18104641636E+03 -0.91090834849E+02  0.22339271985E+03  0.00000000000E+00 0.  1.
         22    1    1    2    0    0  0.23445147552E+03  0.27735582885E+03  0.70516576268E+03  0.79319134074E+03  0.00000000000E+00 0. -1.
<mgrwt>
<rscale>  0 0.10652182E+04</rscale>
<asrwt>0</asrwt>
<pdfrwt beam="1">  1        2 0.13448928E+00 0.10652182E+04</pdfrwt>
<pdfrwt beam="2">  1       -2 0.49923241E-01 0.10652182E+04</pdfrwt>
<totfact> 0.11531460E+02</totfact>
</mgrwt>
</event>
<event>
 6    1  0.2238133E-007  0.7982360E+03  0.7818608E-02  0.9562574E-01
         -2   -1    0    0    0  501 -0.00000000000E+00  0.00000000000E+00  0.92885688302E+02  0.92885688302E+02  0.00000000000E+00 0.  1.
          2   -1    0    0  501    0  0.00000000000E+00 -0.00000000000E+00 -0.17149593200E+04  0.17149593200E+04  0.00000000000E+00 0. -1.
         23    2    1    2    0    0  0.18528413783E+02  0.30218872921E+03 -0.13924943657E+04  0.14278871560E+04  0.90331841097E+02 0.  0.
         13    1    3    3    0    0 -0.18716290404E+02  0.22176273240E+03 -0.87506641521E+03  0.90292316397E+03  0.00000000000E+00 0.  1.
        -13    1    3    3    0    0  0.37244704187E+02  0.80425996811E+02 -0.51742795049E+03  0.52496399201E+03  0.00000000000E+00 0. -1.
         22    1    1    2    0    0 -0.18528413783E+02 -0.30218872921E+03 -0.22957926604E+03  0.37995785236E+03  0.00000000000E+00 0.  1.
<mgrwt>
<rscale>  0 0.79823600E+03</rscale>
<asrwt>0</asrwt>
<pdfrwt beam="1">  1        2 0.26383986E+00 0.79823600E+03</pdfrwt>
<pdfrwt beam="2">  1       -2 0.14290108E-01 0.79823600E+03</pdfrwt>
<totfact> 0.37082986E+02</totfact>
</mgrwt>
</event>
<event>
 6    1  0.2238133E-007  0.1377832E+04  0.7818608E-02  0.8970023E-01
          2   -1    0    0  501    0  0.00000000000E+00  0.00000000000E+00  0.16653873013E+04  0.16653873013E+04  0.00000000000E+00 0. -1.
         -2   -1    0    0    0  501 -0.00000000000E+00 -0.00000000000E+00 -0.28498175525E+03  0.28498175525E+03  0.00000000000E+00 0.  1.
         23    2    1    2    0    0 -0.65922693031E+03 -0.18679214742E+03  0.73790050724E+03  0.10110692232E+04  0.91062415763E+02 0.  0.
         11    1    3    3    0    0 -0.45380984998E+03 -0.10943372495E+03  0.44399991139E+03  0.64424765533E+03  0.00000000000E+00 0.  1.
        -11    1    3    3    0    0 -0.20541708033E+03 -0.77358422477E+02  0.29390059585E+03  0.36682156788E+03  0.00000000000E+00 0. -1.
         22    1    1    2    0    0  0.65922693031E+03  0.18679214742E+03  0.64250503879E+03  0.93929983331E+03  0.00000000000E+00 0. -1.
<mgrwt>
<rscale>  0 0.13778316E+04</rscale>
<asrwt>0</asrwt>
<pdfrwt beam="1">  1        2 0.25621343E+00 0.13778316E+04</pdfrwt>
<pdfrwt beam="2">  1       -2 0.43843348E-01 0.13778316E+04</pdfrwt>
<totfact> 0.49296682E+01</totfact>
</mgrwt>
</event>
<event>
 6    1  0.2238133E-007  0.5252149E+04  0.7818608E-02  0.7790746E-01
         -2   -1    0    0    0  501 -0.00000000000E+00  0.00000000000E+00  0.24070240964E+04  0.24070240964E+04  0.00000000000E+00 0.  1.
          2   -1    0    0  501    0  0.00000000000E+00 -0.00000000000E+00 -0.28650597715E+04  0.28650597715E+04  0.00000000000E+00 0. -1.
         23    2    1    2    0    0 -0.16231933238E+04 -0.68415394007E+03 -0.21830674788E+04  0.28066107076E+04  0.91961225937E+02 0.  0.
         13    1    3    3    0    0 -0.56426303938E+03 -0.19502252612E+03 -0.76847149225E+03  0.97312640377E+03  0.00000000000E+00 0.  1.
        -13    1    3    3    0    0 -0.10589302844E+04 -0.48913141394E+03 -0.14145959866E+04  0.18334843039E+04  0.00000000000E+00 0. -1.
         22    1    1    2    0    0  0.16231933238E+04  0.68415394007E+03  0.17250318037E+04  0.24654731602E+04  0.00000000000E+00 0.  1.
<mgrwt>
<rscale>  0 0.52521492E+04</rscale>
<asrwt>0</asrwt>
<pdfrwt beam="1">  1        2 0.44077843E+00 0.52521492E+04</pdfrwt>
<pdfrwt beam="2">  1       -2 0.37031140E+00 0.52521492E+04</pdfrwt>
<totfact> 0.17409448E-02</totfact>
</mgrwt>
</event>
<event>
 6    1  0.2238133E-007  0.1951504E+04  0.7818608E-02  0.8629636E-01
         -2   -1    0    0    0  501 -0.00000000000E+00  0.00000000000E+00  0.12162016508E+04  0.12162016508E+04  0.00000000000E+00 0.  1.
          2   -1    0    0  501    0  0.00000000000E+00 -0.00000000000E+00 -0.78284017570E+03  0.78284017570E+03  0.00000000000E+00 0. -1.
         23    2    1    2    0    0 -0.92821195551E+03  0.16036801623E+03 -0.35370784817E+02  0.94689864874E+03  0.89836649463E+02 0.  0.
         11    1    3    3    0    0 -0.59828240021E+03  0.70459729667E+02 -0.51069495660E+02  0.60457794972E+03  0.00000000000E+00 0.  1.
        -11    1    3    3    0    0 -0.32992955530E+03  0.89908286558E+02  0.15698710843E+02  0.34232069902E+03  0.00000000000E+00 0. -1.
         22    1    1    2    0    0  0.92821195551E+03 -0.16036801623E+03  0.46873225988E+03  0.10521431777E+04  0.00000000000E+00 0.  1.
<mgrwt>
<rscale>  0 0.19515035E+04</rscale>
<asrwt>0</asrwt>
<pdfrwt beam="1">  1        2 0.12043695E+00 0.19515035E+04</pdfrwt>
<pdfrwt beam="2">  1       -2 0.18710795E+00 0.19515035E+04</pdfrwt>
<totfact> 0.53576756E+00</totfact>
</mgrwt>
</event>
<event>
 6    1  0.2238133E-007  0.2777011E+04  0.7818608E-02  0.8310441E-01
          2   -1    0    0  501    0  0.00000000000E+00  0.00000000000E+00  0.19111983622E+04  0.19111983622E+04  0.00000000000E+00 0. -1.
         -2   -1    0    0    0  501 -0.00000000000E+00 -0.00000000000E+00 -0.10087635571E+04  0.10087635571E+04  0.00000000000E+00 0.  1.
         23    2    1    2    0    0  0.40632081186E+03 -0.14037014884E+03  0.18383047210E+04  0.18900818873E+04  0.90801502662E+02 0.  0.
         11    1    3    3    0    0  0.17637729838E+03 -0.25486869413E+02  0.62883244885E+03  0.65359680280E+03  0.00000000000E+00 0. -1.
        -11    1    3    3    0    0  0.22994351348E+03 -0.11488327943E+03  0.12094722721E+04  0.12364850845E+04  0.00000000000E+00 0.  1.
         22    1    1    2    0    0 -0.40632081186E+03  0.14037014884E+03 -0.93586991591E+03  0.10298800320E+04  0.00000000000E+00 0.  1.
<mgrwt>
<rscale>  0 0.27770108E+04</rscale>
<asrwt>0</asrwt>
<pdfrwt beam="1">  1        2 0.29403052E+00 0.27770108E+04</pdfrwt>
<pdfrwt beam="2">  1       -2 0.15519439E+00 0.27770108E+04</pdfrwt>
<totfact> 0.17856659E+00</totfact>
</mgrwt>
</event>
<event>
 6    1  0.2238133E-007  0.1901480E+04  0.7818608E-02  0.8654120E-01
          2   -1    0    0  501    0  0.00000000000E+00  0.00000000000E+00  0.14396347857E+04  0.14396347857E+04  0.00000000000E+00 0. -1.
         -2   -1    0    0    0  501 -0.00000000000E+00 -0.00000000000E+00 -0.62787188603E+03  0.62787188603E+03  0.00000000000E+00 0.  1.
         23    2    1    2    0    0  0.93397647583E+03  0.70866626946E+02  0.57233462491E+03  0.11007284992E+04  0.81866780686E+02 0.  0.
         13    1    3    3    0    0  0.42725749886E+03  0.73337078337E+02  0.26476937469E+03  0.50796665163E+03  0.00000000000E+00 0. -1.
        -13    1    3    3    0    0  0.50671897697E+03 -0.24704513911E+01  0.30756525022E+03  0.59276184753E+03  0.00000000000E+00 0.  1.
         22    1    1    2    0    0 -0.93397647583E+03 -0.70866626946E+02  0.23942827476E+03  0.96677817258E+03  0.00000000000E+00 0.  1.
<mgrwt>
<rscale>  0 0.19014796E+04</rscale>
<asrwt>0</asrwt>
<pdfrwt beam="1">  1        2 0.22148227E+00 0.19014796E+04</pdfrwt>
<pdfrwt beam="2">  1       -2 0.96595675E-01 0.19014796E+04</pdfrwt>
<totfact> 0.11530296E+01</totfact>
</mgrwt>
</event>
<event>
 6    1  0.2238133E-007  0.5799395E+03  0.7818608E-02  0.9947922E-01
         -2   -1    0    0    0  501 -0.00000000000E+00  0.00000000000E+00  0.15482566722E+03  0.15482566722E+03  0.00000000000E+00 0.  1.
          2   -1    0    0  501    0  0.00000000000E+00 -0.00000000000E+00 -0.54307825520E+03  0.54307825520E+03  0.00000000000E+00 0. -1.
         23    2    1    2    0    0  0.23689244591E+03 -0.26632683077E+02 -0.16954804560E+02  0.25666773317E+03  0.93613722882E+02 0.  0.
         11    1    3    3    0    0  0.10823214291E+03  0.58620307938E+01  0.35381987997E+02  0.11401949499E+03  0.00000000000E+00 0. -1.
        -11    1    3    3    0    0  0.12866030301E+03 -0.32494713871E+02 -0.52336792557E+02  0.14264823817E+03  0.00000000000E+00 0.  1.
         22    1    1    2    0    0 -0.23689244591E+03  0.26632683077E+02 -0.37129778341E+03  0.44123618925E+03  0.00000000000E+00 0. -1.
<mgrwt>
<rscale>  0 0.57993949E+03</rscale>
<asrwt>0</asrwt>
<pdfrwt beam="1">  1        2 0.83550501E-01 0.57993949E+03</pdfrwt>
<pdfrwt beam="2">  1       -2 0.23819333E-01 0.57993949E+03</pdfrwt>
<totfact> 0.87772997E+02</totfact>
</mgrwt>
</event>
<event>
 6    1  0.2238133E-007  0.3418536E+04  0.7818608E-02  0.8133372E-01
          2   -1    0    0  501    0  0.00000000000E+00  0.00000000000E+00  0.23248394767E+04  0.23248394767E+04  0.00000000000E+00 0. -1.
         -2   -1    0    0    0  501 -0.00000000000E+00 -0.00000000000E+00 -0.12566876095E+04  0.12566876095E+04  0.00000000000E+00 0.  1.
         23    2    1    2    0    0 -0.82682529350E+03  0.10004367719E+04 -0.62886891796E+03  0.14450829972E+04  0.90966763930E+02 0.  0.
         13    1    3    3    0    0 -0.54779937412E+03  0.67028397512E+03 -0.37158095740E+03  0.94203883650E+03  0.00000000000E+00 0.  1.
        -13    1    3    3    0    0 -0.27902591939E+03  0.33015279679E+03 -0.25728796057E+03  0.50304416066E+03  0.00000000000E+00 0. -1.
         22    1    1    2    0    0  0.82682529350E+03 -0.10004367719E+04  0.16970207851E+04  0.21364440891E+04  0.00000000000E+00 0. -1.
<mgrwt>
<rscale>  0 0.34185359E+04</rscale>
<asrwt>0</asrwt>
<pdfrwt beam="1">  1        2 0.35766761E+00 0.34185359E+04</pdfrwt>
<pdfrwt beam="2">  1       -2 0.19333656E+00 0.34185359E+04</pdfrwt>
<totfact> 0.53445265E-01</totfact>
</mgrwt>
</event>
<event>
 6    1  0.2238133E-007  0.1474354E+04  0.7818608E-02  0.8901688E-01
          2   -1    0    0  501    0  0.00000000000E+00  0.00000000000E+00  0.32106667297E+04  0.32106667297E+04  0.00000000000E+00 0. -1.
         -2   -1    0    0    0  501 -0.00000000000E+00 -0.00000000000E+00 -0.16925774885E+03  0.16925774885E+03  0.00000000000E+00 0.  1.
         23    2    1    2    0    0  0.30491631693E+03 -0.59634421470E+03  0.22167517604E+04  0.23175404077E+04  0.91677649415E+02 0.  0.
         11    1    3    3    0    0  0.14833401627E+03 -0.38728134190E+03  0.13799528023E+04  0.14409231606E+04  0.00000000000E+00 0. -1.
        -11    1    3    3    0    0  0.15658230066E+03 -0.20906287281E+03  0.83679895812E+03  0.87661724714E+03  0.00000000000E+00 0.  1.
         22    1    1    2    0    0 -0.30491631693E+03  0.59634421470E+03  0.82465722043E+03  0.10623840708E+04  0.00000000000E+00 0.  1.
<mgrwt>
<rscale>  0 0.14743544E+04</rscale>
<asrwt>0</asrwt>
<pdfrwt beam="1">  1        2 0.49394868E+00 0.14743544E+04</pdfrwt>
<pdfrwt beam="2">  1       -2 0.26039656E-01 0.14743544E+04</pdfrwt>
<totfact> 0.16627921E+01</totfact>
</mgrwt>
</event>
<event>
 6    1  0.2238133E-007  0.1508417E+04  0.7818608E-02  0.8878875E-01
         -2   -1    0    0    0  501 -0.00000000000E+00  0.00000000000E+00  0.35407579117E+03  0.35407579117E+03  0.00000000000E+00 0.  1.
          2   -1    0    0  501    0  0.00000000000E+00 -0.00000000000E+00 -0.16065224061E+04  0.16065224061E+04  0.00000000000E+00 0. -1.
         23    2    1    2    0    0 -0.54032378090E+03  0.41980907904E+03 -0.10318145172E+04  0.12416628917E+04  0.94319073263E+02 0.  0.
         13    1    3    3    0    0 -0.11723600594E+03  0.53243460437E+02 -0.15666327113E+03  0.20278690217E+03  0.00000000000E+00 0. -1.
        -13    1    3    3    0    0 -0.42308777496E+03  0.36656561860E+03 -0.87515124610E+03  0.10388759895E+04  0.00000000000E+00 0.  1.
         22    1    1    2    0    0  0.54032378090E+03 -0.41980907904E+03 -0.22063209768E+03  0.71893530556E+03  0.00000000000E+00 0.  1.
<mgrwt>
<rscale>  0 0.15084173E+04</rscale>
<asrwt>0</asrwt>
<pdfrwt beam="1">  1        2 0.24715730E+00 0.15084173E+04</pdfrwt>
<pdfrwt beam="2">  1       -2 0.54473198E-01 0.15084173E+04</pdfrwt>
<totfact> 0.33863211E+01</totfact>
</mgrwt>
</event>
<event>
 6    1  0.2238133E-007  0.5359890E+04  0.7818608E-02  0.7775268E-01
          1   -1    0    0  501    0  0.00000000000E+00  0.00000000000E+00  0.39750189077E+04  0.39750189077E+04  0.00000000000E+00 0. -1.
         -1   -1    0    0    0  501 -0.00000000000E+00 -0.00000000000E+00 -0.18068101415E+04  0.18068101415E+04  0.00000000000E+00 0.  1.
         23    2    1    2    0    0 -0.64714558352E+03 -0.23730358569E+04  0.22301343580E+04  0.33213552405E+04  0.88344746517E+02 0.  0.
         13    1    3    3    0    0 -0.48970505727E+03 -0.17813710523E+04  0.17256164525E+04  0.25280122647E+04  0.00000000000E+00 0.  1.
        -13    1    3    3    0    0 -0.15744052626E+03 -0.59166480459E+03  0.50451790554E+03  0.79334297584E+03  0.00000000000E+00 0. -1.
         22    1    1    2    0    0  0.64714558352E+03  0.23730358569E+04 -0.61925591874E+02  0.24604738087E+04  0.00000000000E+00 0.  1.
<mgrwt>
<rscale>  0 0.53598897E+04</rscale>
<asrwt>0</asrwt>
<pdfrwt beam="1">  1        1 0.61154137E+00 0.53598897E+04</pdfrwt>
<pdfrwt beam="2">  1       -1 0.27797079E+00 0.53598897E+04</pdfrwt>
<totfact> 0.32382168E-03</totfact>
</mgrwt>
</event>
<event>
 6    1  0.2238133E-007  0.2709224E+04  0.7818608E-02  0.8332018E-01
          2   -1    0    0  501    0  0.00000000000E+00  0.00000000000E+00  0.21053676307E+04  0.21053676307E+04  0.00000000000E+00 0. -1.
         -2   -1    0    0    0  501 -0.00000000000E+00 -0.00000000000E+00 -0.87156949311E+03  0.87156949311E+03  0.00000000000E+00 0.  1.
         23    2    1    2    0    0 -0.32819757367E+03 -0.11123996663E+04 -0.14810982632E+03  0.11728261833E+04  0.91858971076E+02 0.  0.
         13    1    3    3    0    0 -0.21197053220E+03 -0.56632566207E+03 -0.93036746803E+02  0.61181050849E+03  0.00000000000E+00 0.  1.
        -13    1    3    3    0    0 -0.11622704147E+03 -0.54607400426E+03 -0.55073079514E+02  0.56101567481E+03  0.00000000000E+00 0. -1.
         22    1    1    2    0    0  0.32819757367E+03  0.11123996663E+04  0.13819079639E+04  0.18041109406E+04  0.00000000000E+00 0. -1.
<mgrwt>
<rscale>  0 0.27092244E+04</rscale>
<asrwt>0</asrwt>
<pdfrwt beam="1">  1        2 0.32390271E+00 0.27092244E+04</pdfrwt>
<pdfrwt beam="2">  1       -2 0.13408761E+00 0.27092244E+04</pdfrwt>
<totfact> 0.20534046E+00</totfact>
</mgrwt>
</event>
<event>
 6    1  0.2238133E-007  0.2579812E+04  0.7818608E-02  0.8375091E-01
          2   -1    0    0  501    0  0.00000000000E+00  0.00000000000E+00  0.15307238829E+04  0.15307238829E+04  0.00000000000E+00 0. -1.
         -2   -1    0    0    0  501 -0.00000000000E+00 -0.00000000000E+00 -0.10869741213E+04  0.10869741213E+04  0.00000000000E+00 0.  1.
         23    2    1    2    0    0  0.37719604004E+03  0.12286323427E+04  0.31373928928E+03  0.13259097054E+04  0.88260516923E+02 0.  0.
         11    1    3    3    0    0  0.27130805786E+03  0.74012904141E+03  0.18317596664E+03  0.80929135356E+03  0.00000000000E+00 0. -1.
        -11    1    3    3    0    0  0.10588798218E+03  0.48850330134E+03  0.13056332264E+03  0.51661835179E+03  0.00000000000E+00 0.  1.
         22    1    1    2    0    0 -0.37719604004E+03 -0.12286323427E+04  0.13001047229E+03  0.12917882989E+04  0.00000000000E+00 0. -1.
<mgrwt>
<rscale>  0 0.25798118E+04</rscale>
<asrwt>0</asrwt>
<pdfrwt beam="1">  1        2 0.23549598E+00 0.25798118E+04</pdfrwt>
<pdfrwt beam="2">  1       -2 0.16722679E+00 0.25798118E+04</pdfrwt>
<totfact> 0.24114230E+00</totfact>
</mgrwt>
</event>
<event>
 6    1  0.2238133E-007  0.5794652E+03  0.7818608E-02  0.9948950E-01
         -2   -1    0    0    0  501 -0.00000000000E+00  0.00000000000E+00  0.11873860875E+03  0.11873860875E+03  0.00000000000E+00 0.  1.
          2   -1    0    0  501    0  0.00000000000E+00 -0.00000000000E+00 -0.70697291387E+03  0.70697291387E+03  0.00000000000E+00 0. -1.
         23    2    1    2    0    0  0.16239267321E+02  0.17884162645E+03 -0.61247787132E+03  0.64450503362E+03  0.89496113604E+02 0.  0.
         11    1    3    3    0    0 -0.29672364572E+01  0.15228806762E+03 -0.57446808855E+03  0.59431813433E+03  0.00000000000E+00 0. -1.
        -11    1    3    3    0    0  0.19206503778E+02  0.26553558833E+02 -0.38009782767E+02  0.50186899287E+02  0.00000000000E+00 0.  1.
         22    1    1    2    0    0 -0.16239267321E+02 -0.17884162645E+03  0.24243566204E+02  0.18120648900E+03  0.00000000000E+00 0.  1.
<mgrwt>
<rscale>  0 0.57946520E+03</rscale>
<asrwt>0</asrwt>
<pdfrwt beam="1">  1        2 0.10876506E+00 0.57946520E+03</pdfrwt>
<pdfrwt beam="2">  1       -2 0.18267479E-01 0.57946520E+03</pdfrwt>
<totfact> 0.10156615E+03</totfact>
</mgrwt>
</event>
<event>
 6    1  0.2238133E-007  0.1483344E+04  0.7818608E-02  0.8895605E-01
         -2   -1    0    0    0  501 -0.00000000000E+00  0.00000000000E+00  0.62864362459E+03  0.62864362459E+03  0.00000000000E+00 0.  1.
          2   -1    0    0  501    0  0.00000000000E+00 -0.00000000000E+00 -0.87502263979E+03  0.87502263979E+03  0.00000000000E+00 0. -1.
         23    2    1    2    0    0  0.19147009248E+03  0.37446300833E+03 -0.73963647454E+03  0.85544850613E+03  0.88581551406E+02 0.  0.
         11    1    3    3    0    0  0.98395108975E+02  0.26152210117E+03 -0.53881693281E+03  0.60695888984E+03  0.00000000000E+00 0.  1.
        -11    1    3    3    0    0  0.93074983508E+02  0.11294090716E+03 -0.20081954173E+03  0.24848961629E+03  0.00000000000E+00 0. -1.
         22    1    1    2    0    0 -0.19147009248E+03 -0.37446300833E+03  0.49325745934E+03  0.64821775825E+03  0.00000000000E+00 0.  1.
<mgrwt>
<rscale>  0 0.14833441E+04</rscale>
<asrwt>0</asrwt>
<pdfrwt beam="1">  1        2 0.13461887E+00 0.14833441E+04</pdfrwt>
<pdfrwt beam="2">  1       -2 0.96714404E-01 0.14833441E+04</pdfrwt>
<totfact> 0.26372978E+01</totfact>
</mgrwt>
</event>
<event>
 6    1  0.2238133E-007  0.9823454E+03  0.7818608E-02  0.9328123E-01
         -2   -1    0    0    0  501 -0.00000000000E+00  0.00000000000E+00  0.71884631175E+03  0.71884631175E+03  0.00000000000E+00 0.  1.
          2   -1    0    0  501    0  0.00000000000E+00 -0.00000000000E+00 -0.33560804642E+03  0.33560804642E+03  0.00000000000E+00 0. -1.
         23    2    1    2    0    0 -0.22099974252E+03  0.79489819083E+02 -0.26349597877E+03  0.36639571240E+03  0.98265811489E+02 0.  0.
         13    1    3    3    0    0 -0.91976193447E+02  0.15143712946E+02 -0.42309083704E+02  0.10236703945E+03  0.00000000000E+00 0.  1.
        -13    1    3    3    0    0 -0.12902354908E+03  0.64346106137E+02 -0.22118689506E+03  0.26402867295E+03  0.00000000000E+00 0. -1.
         22    1    1    2    0    0  0.22099974252E+03 -0.79489819083E+02  0.64673424410E+03  0.68805864577E+03  0.00000000000E+00 0.  1.
<mgrwt>
<rscale>  0 0.98234537E+03</rscale>
<asrwt>0</asrwt>
<pdfrwt beam="1">  1        2 0.51632007E-01 0.98234537E+03</pdfrwt>
<pdfrwt beam="2">  1       -2 0.11059174E+00 0.98234537E+03</pdfrwt>
<totfact> 0.62765731E+01</totfact>
</mgrwt>
</event>
<event>
 6    1  0.2238133E-007  0.1155938E+04  0.7818608E-02  0.9152323E-01
         -2   -1    0    0    0  501 -0.00000000000E+00  0.00000000000E+00  0.12344730790E+03  0.12344730790E+03  0.00000000000E+00 0.  1.
          2   -1    0    0  501    0  0.00000000000E+00 -0.00000000000E+00 -0.27059988992E+04  0.27059988992E+04  0.00000000000E+00 0. -1.
         23    2    1    2    0    0  0.13110758224E+03 -0.12699640603E+03 -0.26323396594E+04  0.26402475364E+04  0.91529697930E+02 0.  0.
         13    1    3    3    0    0  0.76054425068E+01 -0.32262212998E+01 -0.69112478765E+03  0.69117416283E+03  0.00000000000E+00 0. -1.
        -13    1    3    3    0    0  0.12350213974E+03 -0.12377018473E+03 -0.19412148718E+04  0.19490733736E+04  0.00000000000E+00 0.  1.
         22    1    1    2    0    0 -0.13110758224E+03  0.12699640603E+03  0.49788068135E+02  0.18919867070E+03  0.00000000000E+00 0.  1.
<mgrwt>
<rscale>  0 0.11559382E+04</rscale>
<asrwt>0</asrwt>
<pdfrwt beam="1">  1        2 0.41630750E+00 0.11559382E+04</pdfrwt>
<pdfrwt beam="2">  1       -2 0.18991895E-01 0.11559382E+04</pdfrwt>
<totfact> 0.61644250E+01</totfact>
</mgrwt>
</event>
<event>
 6    1  0.2238133E-007  0.3120506E+04  0.7818608E-02  0.8210133E-01
          2   -1    0    0  501    0  0.00000000000E+00  0.00000000000E+00  0.15905704841E+04  0.15905704841E+04  0.00000000000E+00 0. -1.
         -2   -1    0    0    0  501 -0.00000000000E+00 -0.00000000000E+00 -0.15305134337E+04  0.15305134337E+04  0.00000000000E+00 0.  1.
         23    2    1    2    0    0  0.70674241048E+03  0.10354195263E+04 -0.89665860085E+03  0.15440984177E+04  0.93085158264E+02 0.  0.
         13    1    3    3    0    0  0.36097279212E+03  0.58213020630E+03 -0.44587197661E+03  0.81729967164E+03  0.00000000000E+00 0.  1.
        -13    1    3    3    0    0  0.34576961836E+03  0.45328932004E+03 -0.45078662424E+03  0.72679874603E+03  0.00000000000E+00 0. -1.
         22    1    1    2    0    0 -0.70674241048E+03 -0.10354195263E+04  0.95671565127E+03  0.15769855001E+04  0.00000000000E+00 0. -1.
<mgrwt>
<rscale>  0 0.31205060E+04</rscale>
<asrwt>0</asrwt>
<pdfrwt beam="1">  1        2 0.24470315E+00 0.31205060E+04</pdfrwt>
<pdfrwt beam="2">  1       -2 0.23546361E+00 0.31205060E+04</pdfrwt>
<totfact> 0.75628553E-01</totfact>
</mgrwt>
</event>
<event>
 6    1  0.2238133E-007  0.2910115E+04  0.7818608E-02  0.8269874E-01
          2   -1    0    0  501    0  0.00000000000E+00  0.00000000000E+00  0.23441354154E+04  0.23441354154E+04  0.00000000000E+00 0. -1.
         -2   -1    0    0    0  501 -0.00000000000E+00 -0.00000000000E+00 -0.90318696342E+03  0.90318696342E+03  0.00000000000E+00 0.  1.
         23    2    1    2    0    0 -0.53255073702E+03  0.13340225367E+04  0.47272503034E+03  0.15150744144E+04  0.93568749839E+02 0.  0.
         13    1    3    3    0    0 -0.18193683779E+03  0.57387353458E+03  0.21309480126E+03  0.63862449135E+03  0.00000000000E+00 0. -1.
        -13    1    3    3    0    0 -0.35061389923E+03  0.76014900213E+03  0.25963022908E+03  0.87644992306E+03  0.00000000000E+00 0.  1.
         22    1    1    2    0    0  0.53255073702E+03 -0.13340225367E+04  0.96822342159E+03  0.17322479644E+04  0.00000000000E+00 0.  1.
<mgrwt>
<rscale>  0 0.29101152E+04</rscale>
<asrwt>0</asrwt>
<pdfrwt beam="1">  1        2 0.36063621E+00 0.29101152E+04</pdfrwt>
<pdfrwt beam="2">  1       -2 0.13895184E+00 0.29101152E+04</pdfrwt>
<totfact> 0.13512453E+00</totfact>
</mgrwt>
</event>
<event>
 6    1  0.2238133E-007  0.3778148E+04  0.7818608E-02  0.8050861E-01
          2   -1    0    0  501    0  0.00000000000E+00  0.00000000000E+00  0.36475080167E+04  0.36475080167E+04  0.00000000000E+00 0. -1.
         -2   -1    0    0    0  501 -0.00000000000E+00 -0.00000000000E+00 -0.97836677365E+03  0.97836677365E+03  0.00000000000E+00 0.  1.
         23    2    1    2    0    0 -0.61866567462E+02 -0.54724550887E+03  0.35464048263E+04  0.35900676106E+04  0.91066665852E+02 0.  0.
         11    1    3    3    0    0 -0.11489634062E+02 -0.13541286874E+03  0.11511396767E+04  0.11591338197E+04  0.00000000000E+00 0. -1.
        -11    1    3    3    0    0 -0.50376933400E+02 -0.41183264013E+03  0.23952651496E+04  0.24309337909E+04  0.00000000000E+00 0.  1.
         22    1    1    2    0    0  0.61866567462E+02  0.54724550887E+03 -0.87726358323E+03  0.10358071797E+04  0.00000000000E+00 0.  1.
<mgrwt>
<rscale>  0 0.37781480E+04</rscale>
<asrwt>0</asrwt>
<pdfrwt beam="1">  1        2 0.56115507E+00 0.37781480E+04</pdfrwt>
<pdfrwt beam="2">  1       -2 0.15051797E+00 0.37781480E+04</pdfrwt>
<totfact> 0.15177784E-01</totfact>
</mgrwt>
</event>
<event>
 6    1  0.2238133E-007  0.2183711E+04  0.7818608E-02  0.8525239E-01
          2   -1    0    0  501    0  0.00000000000E+00  0.00000000000E+00  0.14945782298E+04  0.14945782298E+04  0.00000000000E+00 0. -1.
         -2   -1    0    0    0  501 -0.00000000000E+00 -0.00000000000E+00 -0.79764880185E+03  0.79764880185E+03  0.00000000000E+00 0.  1.
         23    2    1    2    0    0  0.12139616686E+03 -0.47862147817E+03 -0.67086551818E+03  0.83803359082E+03  0.91783479841E+02 0.  0.
         11    1    3    3    0    0  0.25654130552E+02 -0.10246259926E+03 -0.21322412243E+03  0.23795219067E+03  0.00000000000E+00 0.  1.
        -11    1    3    3    0    0  0.95742036307E+02 -0.37615887891E+03 -0.45764139575E+03  0.60008140015E+03  0.00000000000E+00 0. -1.
         22    1    1    2    0    0 -0.12139616686E+03  0.47862147817E+03  0.13677949462E+04  0.14541934409E+04  0.00000000000E+00 0. -1.
<mgrwt>
<rscale>  0 0.21837111E+04</rscale>
<asrwt>0</asrwt>
<pdfrwt beam="1">  1        2 0.22993511E+00 0.21837111E+04</pdfrwt>
<pdfrwt beam="2">  1       -2 0.12271520E+00 0.21837111E+04</pdfrwt>
<totfact> 0.58766938E+00</totfact>
</mgrwt>
</event>
<event>
 6    1  0.2238133E-007  0.8439761E+03  0.7818608E-02  0.9498458E-01
         -2   -1    0    0    0  501 -0.00000000000E+00  0.00000000000E+00  0.79226408680E+03  0.79226408680E+03  0.00000000000E+00 0.  1.
          2   -1    0    0  501    0  0.00000000000E+00 -0.00000000000E+00 -0.22476582803E+03  0.22476582803E+03  0.00000000000E+00 0. -1.
         23    2    1    2    0    0 -0.33598946814E+03  0.49293058356E+00  0.58467682182E+03  0.68060121702E+03  0.92097040924E+02 0.  0.
         13    1    3    3    0    0 -0.15011940571E+03  0.44991425942E+02  0.28243778356E+03  0.32300335286E+03  0.00000000000E+00 0.  1.
        -13    1    3    3    0    0 -0.18587006244E+03 -0.44498495358E+02  0.30223903826E+03  0.35759786416E+03  0.00000000000E+00 0. -1.
         22    1    1    2    0    0  0.33598946814E+03 -0.49293058356E+00 -0.17178563043E+02  0.33642869781E+03  0.00000000000E+00 0. -1.
<mgrwt>
<rscale>  0 0.84397605E+03</rscale>
<asrwt>0</asrwt>
<pdfrwt beam="1">  1        2 0.34579359E-01 0.84397605E+03</pdfrwt>
<pdfrwt beam="2">  1       -2 0.12188678E+00 0.84397605E+03</pdfrwt>
<totfact> 0.77858427E+01</totfact>
</mgrwt>
</event>
<event>
 6    1  0.2238133E-007  0.9125645E+03  0.7818608E-02  0.9410010E-01
          1   -1    0    0  501    0  0.00000000000E+00  0.00000000000E+00  0.11770370761E+04  0.11770370761E+04  0.00000000000E+00 0. -1.
         -1   -1    0    0    0  501 -0.00000000000E+00 -0.00000000000E+00 -0.17687927868E+03  0.17687927868E+03  0.00000000000E+00 0.  1.
         23    2    1    2    0    0 -0.40676211050E+03 -0.16644328859E+03  0.66015267826E+03  0.79825255002E+03  0.90811850189E+02 0.  0.
         13    1    3    3    0    0 -0.19147142247E+03 -0.38430277774E+02  0.33562033762E+03  0.38830297823E+03  0.00000000000E+00 0. -1.
        -13    1    3    3    0    0 -0.21529068803E+03 -0.12801301081E+03  0.32453234064E+03  0.40994957179E+03  0.00000000000E+00 0.  1.
         22    1    1    2    0    0  0.40676211050E+03  0.16644328859E+03  0.34000511915E+03  0.55566380474E+03  0.00000000000E+00 0.  1.
<mgrwt>
<rscale>  0 0.91256445E+03</rscale>
<asrwt>0</asrwt>
<pdfrwt beam="1">  1        1 0.18108262E+00 0.91256445E+03</pdfrwt>
<pdfrwt beam="2">  1       -1 0.27212197E-01 0.91256445E+03</pdfrwt>
<totfact> 0.13520860E+02</totfact>
</mgrwt>
</event>
<event>
 6    1  0.2238133E-007  0.1908442E+04  0.7818608E-02  0.8650666E-01
         -2   -1    0    0    0  501 -0.00000000000E+00  0.00000000000E+00  0.25118708626E+03  0.25118708626E+03  0.00000000000E+00 0.  1.
          2   -1    0    0  501    0  0.00000000000E+00 -0.00000000000E+00 -0.36249367894E+04  0.36249367894E+04  0.00000000000E+00 0. -1.
         23    2    1    2    0    0 -0.67808294359E+03 -0.39329898280E+03 -0.27880577514E+04  0.28975965993E+04  0.91211068006E+02 0.  0.
         13    1    3    3    0    0 -0.38903786856E+03 -0.26215511825E+03 -0.17775390968E+04  0.18384017542E+04  0.00000000000E+00 0.  1.
        -13    1    3    3    0    0 -0.28904507502E+03 -0.13114386455E+03 -0.10105186546E+04  0.10591948451E+04  0.00000000000E+00 0. -1.
         22    1    1    2    0    0  0.67808294359E+03  0.39329898280E+03 -0.58569195177E+03  0.97852727638E+03  0.00000000000E+00 0.  1.
<mgrwt>
<rscale>  0 0.19084416E+04</rscale>
<asrwt>0</asrwt>
<pdfrwt beam="1">  1        2 0.55768259E+00 0.19084416E+04</pdfrwt>
<pdfrwt beam="2">  1       -2 0.38644167E-01 0.19084416E+04</pdfrwt>
<totfact> 0.39533825E+00</totfact>
</mgrwt>
</event>
<event>
 6    1  0.2238133E-007  0.4178678E+04  0.7818608E-02  0.7969441E-01
         -2   -1    0    0    0  501 -0.00000000000E+00  0.00000000000E+00  0.19940183048E+04  0.19940183048E+04  0.00000000000E+00 0.  1.
          2   -1    0    0  501    0  0.00000000000E+00 -0.00000000000E+00 -0.21892160955E+04  0.21892160955E+04  0.00000000000E+00 0. -1.
         23    2    1    2    0    0 -0.12089039616E+03  0.13332943396E+04  0.15069565650E+04  0.20176818762E+04  0.88508647823E+02 0.  0.
         11    1    3    3    0    0 -0.13283256430E+03  0.11863286235E+04  0.13237120360E+04  0.17824796344E+04  0.00000000000E+00 0. -1.
        -11    1    3    3    0    0  0.11942168143E+02  0.14696571613E+03  0.18324452907E+03  0.23520224176E+03  0.00000000000E+00 0.  1.
         22    1    1    2    0    0  0.12089039616E+03 -0.13332943396E+04 -0.17021543558E+04  0.21655525241E+04  0.00000000000E+00 0. -1.
<mgrwt>
<rscale>  0 0.41786778E+04</rscale>
<asrwt>0</asrwt>
<pdfrwt beam="1">  1        2 0.33680248E+00 0.41786778E+04</pdfrwt>
<pdfrwt beam="2">  1       -2 0.30677205E+00 0.41786778E+04</pdfrwt>
<totfact> 0.11761884E-01</totfact>
</mgrwt>
</event>
<event>
 6    1  0.2238133E-007  0.2761074E+04  0.7818608E-02  0.8315456E-01
          2   -1    0    0  501    0  0.00000000000E+00  0.00000000000E+00  0.22456095323E+04  0.22456095323E+04  0.00000000000E+00 0. -1.
         -2   -1    0    0    0  501 -0.00000000000E+00 -0.00000000000E+00 -0.84871513435E+03  0.84871513435E+03  0.00000000000E+00 0.  1.
         23    2    1    2    0    0  0.12394335616E+04 -0.13966645428E+03  0.13582344155E+04  0.18464477231E+04  0.94160472209E+02 0.  0.
         13    1    3    3    0    0  0.76320633438E+03 -0.99024417802E+02  0.77222133683E+03  0.10902364593E+04  0.00000000000E+00 0. -1.
        -13    1    3    3    0    0  0.47622722727E+03 -0.40642036482E+02  0.58601307862E+03  0.75621126376E+03  0.00000000000E+00 0.  1.
         22    1    1    2    0    0 -0.12394335616E+04  0.13966645428E+03  0.38659982548E+02  0.12478769436E+04  0.00000000000E+00 0.  1.
<mgrwt>
<rscale>  0 0.27610743E+04</rscale>
<asrwt>0</asrwt>
<pdfrwt beam="1">  1        2 0.34547839E+00 0.27610743E+04</pdfrwt>
<pdfrwt beam="2">  1       -2 0.13057156E+00 0.27610743E+04</pdfrwt>
<totfact> 0.18245240E+00</totfact>
</mgrwt>
</event>
<event>
 6    1  0.2238133E-007  0.3123475E+04  0.7818608E-02  0.8209325E-01
         -2   -1    0    0    0  501 -0.00000000000E+00  0.00000000000E+00  0.17298749824E+04  0.17298749824E+04  0.00000000000E+00 0.  1.
          2   -1    0    0  501    0  0.00000000000E+00 -0.00000000000E+00 -0.14099425611E+04  0.14099425611E+04  0.00000000000E+00 0. -1.
         23    2    1    2    0    0 -0.46383986448E+03  0.28689661912E+03  0.16298322748E+04  0.17209113747E+04  0.87895538453E+02 0.  0.
         13    1    3    3    0    0 -0.35884104715E+03  0.20188416731E+03  0.13246409908E+04  0.13871545943E+04  0.00000000000E+00 0. -1.
        -13    1    3    3    0    0 -0.10499881733E+03  0.85012451815E+02  0.30519128401E+03  0.33375678037E+03  0.00000000000E+00 0.  1.
         22    1    1    2    0    0  0.46383986448E+03 -0.28689661912E+03 -0.13098998534E+04  0.14189061688E+04  0.00000000000E+00 0. -1.
<mgrwt>
<rscale>  0 0.31234752E+04</rscale>
<asrwt>0</asrwt>
<pdfrwt beam="1">  1        2 0.21691424E+00 0.31234752E+04</pdfrwt>
<pdfrwt beam="2">  1       -2 0.26613461E+00 0.31234752E+04</pdfrwt>
<totfact> 0.61935101E-01</totfact>
</mgrwt>
</event>
<event>
 6    1  0.2238133E-007  0.2353176E+04  0.7818608E-02  0.8457245E-01
         -2   -1    0    0    0  501 -0.00000000000E+00  0.00000000000E+00  0.68374113313E+03  0.68374113313E+03  0.00000000000E+00 0.  1.
          2   -1    0    0  501    0  0.00000000000E+00 -0.00000000000E+00 -0.20246842450E+04  0.20246842450E+04  0.00000000000E+00 0. -1.
         23    2    1    2    0    0 -0.51468077661E+03  0.26027264869E+02  0.54366412784E+03  0.75462954226E+03  0.91221389134E+02 0.  0.
         11    1    3    3    0    0 -0.15159591439E+03  0.34339199121E+02  0.21137630755E+03  0.26237462768E+03  0.00000000000E+00 0.  1.
        -11    1    3    3    0    0 -0.36308486222E+03 -0.83119342516E+01  0.33228782028E+03  0.49225491458E+03  0.00000000000E+00 0. -1.
         22    1    1    2    0    0  0.51468077661E+03 -0.26027264869E+02 -0.18846072397E+04  0.19537958358E+04  0.00000000000E+00 0. -1.
<mgrwt>
<rscale>  0 0.23531765E+04</rscale>
<asrwt>0</asrwt>
<pdfrwt beam="1">  1        2 0.31148988E+00 0.23531765E+04</pdfrwt>
<pdfrwt beam="2">  1       -2 0.10519094E+00 0.23531765E+04</pdfrwt>
<totfact> 0.42762162E+00</totfact>
</mgrwt>
</event>
<event>
 6    1  0.2238133E-007  0.2602667E+04  0.7818608E-02  0.8367296E-01
         -2   -1    0    0    0  501 -0.00000000000E+00  0.00000000000E+00  0.17493463990E+04  0.17493463990E+04  0.00000000000E+00 0.  1.
          2   -1    0    0  501    0  0.00000000000E+00 -0.00000000000E+00 -0.96805773289E+03  0.96805773289E+03  0.00000000000E+00 0. -1.
         23    2    1    2    0    0 -0.49382825010E+03 -0.81172141933E+03  0.13171135286E+04  0.16265942096E+04  0.90899241699E+02 0.  0.
         11    1    3    3    0    0 -0.31650116450E+03 -0.49189840346E+03  0.73813075484E+03  0.94179299089E+03  0.00000000000E+00 0. -1.
        -11    1    3    3    0    0 -0.17732708560E+03 -0.31982301586E+03  0.57898277379E+03  0.68480121868E+03  0.00000000000E+00 0.  1.
         22    1    1    2    0    0  0.49382825010E+03  0.81172141933E+03 -0.53582486256E+03  0.10908099223E+04  0.00000000000E+00 0. -1.
<mgrwt>
<rscale>  0 0.26026666E+04</rscale>
<asrwt>0</asrwt>
<pdfrwt beam="1">  1        2 0.14893196E+00 0.26026666E+04</pdfrwt>
<pdfrwt beam="2">  1       -2 0.26913021E+00 0.26026666E+04</pdfrwt>
<totfact> 0.11462683E+00</totfact>
</mgrwt>
</event>
<event>
 6    1  0.2238133E-007  0.5448139E+03  0.7818608E-02  0.1002701E+00
          1   -1    0    0  501    0  0.00000000000E+00  0.00000000000E+00  0.52027422962E+03  0.52027422962E+03  0.00000000000E+00 0. -1.
         -1   -1    0    0    0  501 -0.00000000000E+00 -0.00000000000E+00 -0.14262776028E+03  0.14262776028E+03  0.00000000000E+00 0.  1.
         23    2    1    2    0    0 -0.22371800210E+02  0.33354981916E+02  0.51247782018E+03  0.52221600826E+03  0.91994515288E+02 0.  0.
         11    1    3    3    0    0  0.24005268102E+02  0.44061709725E+02  0.32174393510E+03  0.32563299423E+03  0.00000000000E+00 0. -1.
        -11    1    3    3    0    0 -0.46377068312E+02 -0.10706727809E+02  0.19073388508E+03  0.19658301402E+03  0.00000000000E+00 0.  1.
         22    1    1    2    0    0  0.22371800210E+02 -0.33354981916E+02 -0.13483135084E+03  0.14068598165E+03  0.00000000000E+00 0.  1.
<mgrwt>
<rscale>  0 0.54481391E+03</rscale>
<asrwt>0</asrwt>
<pdfrwt beam="1">  1        1 0.80042188E-01 0.54481391E+03</pdfrwt>
<pdfrwt beam="2">  1       -1 0.21942733E-01 0.54481391E+03</pdfrwt>
<totfact> 0.73906689E+02</totfact>
</mgrwt>
</event>
<event>
 6    1  0.2238133E-007  0.2099717E+04  0.7818608E-02  0.8561368E-01
          2   -1    0    0  501    0  0.00000000000E+00  0.00000000000E+00  0.60797862846E+03  0.60797862846E+03  0.00000000000E+00 0. -1.
         -2   -1    0    0    0  501 -0.00000000000E+00 -0.00000000000E+00 -0.18128977539E+04  0.18128977539E+04  0.00000000000E+00 0.  1.
         23    2    1    2    0    0  0.36311697564E+03  0.74877116740E+03  0.13170453417E+03  0.84636852065E+03  0.80507076121E+02 0.  0.
         11    1    3    3    0    0  0.35233506170E+02  0.72964931967E+02 -0.11051173767E+02  0.81776584030E+02  0.00000000000E+00 0.  1.
        -11    1    3    3    0    0  0.32788346947E+03  0.67580623543E+03  0.14275570794E+03  0.76459193662E+03  0.00000000000E+00 0. -1.
         22    1    1    2    0    0 -0.36311697564E+03 -0.74877116740E+03 -0.13366236597E+04  0.15745078617E+04  0.00000000000E+00 0.  1.
<mgrwt>
<rscale>  0 0.20997172E+04</rscale>
<asrwt>0</asrwt>
<pdfrwt beam="1">  1        2 0.93535176E-01 0.20997172E+04</pdfrwt>
<pdfrwt beam="2">  1       -2 0.27890734E+00 0.20997172E+04</pdfrwt>
<totfact> 0.19240638E+00</totfact>
</mgrwt>
</event>
<event>
 6    1  0.2238133E-007  0.2314170E+04  0.7818608E-02  0.8472355E-01
          2   -1    0    0  501    0  0.00000000000E+00  0.00000000000E+00  0.22280072032E+04  0.22280072032E+04  0.00000000000E+00 0. -1.
         -2   -1    0    0    0  501 -0.00000000000E+00 -0.00000000000E+00 -0.60091634268E+03  0.60091634268E+03  0.00000000000E+00 0.  1.
         23    2    1    2    0    0  0.58167514731E+03  0.88967604521E+03  0.26128604920E+03  0.10982322895E+04  0.89299046439E+02 0.  0.
         13    1    3    3    0    0  0.11165700756E+03  0.12754287605E+03  0.65071468889E+02  0.18157303939E+03  0.00000000000E+00 0. -1.
        -13    1    3    3    0    0  0.47001813976E+03  0.76213316916E+03  0.19621458031E+03  0.91665925008E+03  0.00000000000E+00 0.  1.
         22    1    1    2    0    0 -0.58167514731E+03 -0.88967604521E+03  0.13658048114E+04  0.17306912565E+04  0.00000000000E+00 0. -1.
<mgrwt>
<rscale>  0 0.23141702E+04</rscale>
<asrwt>0</asrwt>
<pdfrwt beam="1">  1        2 0.34277033E+00 0.23141702E+04</pdfrwt>
<pdfrwt beam="2">  1       -2 0.92448669E-01 0.23141702E+04</pdfrwt>
<totfact> 0.44774957E+00</totfact>
</mgrwt>
</event>
<event>
 6    1  0.2238133E-007  0.2943262E+04  0.7818608E-02  0.8260121E-01
         -2   -1    0    0    0  501 -0.00000000000E+00  0.00000000000E+00  0.12802725594E+04  0.12802725594E+04  0.00000000000E+00 0.  1.
          2   -1    0    0  501    0  0.00000000000E+00 -0.00000000000E+00 -0.16915912911E+04  0.16915912911E+04  0.00000000000E+00 0. -1.
         23    2    1    2    0    0 -0.28321847407E+03  0.12736803642E+04  0.47825105110E+03  0.13926840721E+04  0.91490341867E+02 0.  0.
         13    1    3    3    0    0 -0.19972559122E+03  0.89911502612E+03  0.29270062283E+03  0.96642216271E+03  0.00000000000E+00 0.  1.
        -13    1    3    3    0    0 -0.83492882856E+02  0.37456533808E+03  0.18555042827E+03  0.42626190941E+03  0.00000000000E+00 0. -1.
         22    1    1    2    0    0  0.28321847407E+03 -0.12736803642E+04 -0.88956978275E+03  0.15791797784E+04  0.00000000000E+00 0.  1.
<mgrwt>
<rscale>  0 0.29432621E+04</rscale>
<asrwt>0</asrwt>
<pdfrwt beam="1">  1        2 0.26024481E+00 0.29432621E+04</pdfrwt>
<pdfrwt beam="2">  1       -2 0.19696501E+00 0.29432621E+04</pdfrwt>
<totfact> 0.11875148E+00</totfact>
</mgrwt>
</event>
<event>
 6    1  0.2238133E-007  0.4236123E+04  0.7818608E-02  0.7958536E-01
         -2   -1    0    0    0  501 -0.00000000000E+00  0.00000000000E+00  0.23681840355E+04  0.23681840355E+04  0.00000000000E+00 0.  1.
          2   -1    0    0  501    0  0.00000000000E+00 -0.00000000000E+00 -0.18943563439E+04  0.18943563439E+04  0.00000000000E+00 0. -1.
         23    2    1    2    0    0  0.16615671304E+03  0.27276437973E+03  0.23429458298E+04  0.23663307194E+04  0.90096906173E+02 0.  0.
         13    1    3    3    0    0  0.51749196845E+02  0.45529372924E+02  0.31267780431E+03  0.32018480989E+03  0.00000000000E+00 0. -1.
        -13    1    3    3    0    0  0.11440751620E+03  0.22723500681E+03  0.20302680254E+04  0.20461459096E+04  0.00000000000E+00 0.  1.
         22    1    1    2    0    0 -0.16615671304E+03 -0.27276437973E+03 -0.18691181381E+04  0.18962096599E+04  0.00000000000E+00 0. -1.
<mgrwt>
<rscale>  0 0.42361230E+04</rscale>
<asrwt>0</asrwt>
<pdfrwt beam="1">  1        2 0.29143944E+00 0.42361230E+04</pdfrwt>
<pdfrwt beam="2">  1       -2 0.36433601E+00 0.42361230E+04</pdfrwt>
<totfact> 0.74690455E-02</totfact>
</mgrwt>
</event>
<event>
 6    1  0.3159424E-007  0.3746456E+04  0.7818608E-02  0.8057744E-01
         -2   -1    0    0    0  501 -0.00000000000E+00  0.00000000000E+00  0.14852317551E+04  0.14852317551E+04  0.00000000000E+00 0.  1.
          2   -1    0    0  501    0  0.00000000000E+00 -0.00000000000E+00 -0.23625825043E+04  0.23625825043E+04  0.00000000000E+00 0. -1.
         23    2    1    2    0    0  0.59210789040E+03  0.16099593150E+02  0.13850000894E+04  0.15092073521E+04  0.92901201495E+02 0.  0.
         11    1    3    3    0    0  0.11159873816E+03 -0.10672330542E+02  0.35587881777E+03  0.37311916318E+03  0.00000000000E+00 0. -1.
        -11    1    3    3    0    0  0.48050915224E+03  0.26771923692E+02  0.10291212716E+04  0.11360881889E+04  0.00000000000E+00 0.  1.
         22    1    1    2    0    0 -0.59210789040E+03 -0.16099593150E+02 -0.22623508385E+04  0.23386069074E+04  0.00000000000E+00 0. -1.
<mgrwt>
<rscale>  0 0.37464557E+04</rscale>
<asrwt>0</asrwt>
<pdfrwt beam="1">  1        2 0.36347423E+00 0.37464557E+04</pdfrwt>
<pdfrwt beam="2">  1       -2 0.22849719E+00 0.37464557E+04</pdfrwt>
<totfact> 0.29388197E-01</totfact>
</mgrwt>
</event>
<event>
 6    1  0.2238133E-007  0.5229043E+04  0.7818608E-02  0.7794115E-01
         -2   -1    0    0    0  501 -0.00000000000E+00  0.00000000000E+00  0.18875794196E+04  0.18875794196E+04  0.00000000000E+00 0.  1.
          2   -1    0    0  501    0  0.00000000000E+00 -0.00000000000E+00 -0.36214228652E+04  0.36214228652E+04  0.00000000000E+00 0. -1.
         23    2    1    2    0    0  0.24569241068E+04 -0.69099600031E+03 -0.14609333736E+04  0.29422082832E+04  0.91168638622E+02 0.  0.
         11    1    3    3    0    0  0.95241230018E+03 -0.31296103326E+03 -0.56217039047E+03  0.11493778081E+04  0.00000000000E+00 0.  1.
        -11    1    3    3    0    0  0.15045118066E+04 -0.37803496706E+03 -0.89876298316E+03  0.17928304751E+04  0.00000000000E+00 0. -1.
         22    1    1    2    0    0 -0.24569241068E+04  0.69099600031E+03 -0.27291007190E+03  0.25667940015E+04  0.00000000000E+00 0. -1.
<mgrwt>
<rscale>  0 0.52290432E+04</rscale>
<asrwt>0</asrwt>
<pdfrwt beam="1">  1        2 0.55714198E+00 0.52290432E+04</pdfrwt>
<pdfrwt beam="2">  1       -2 0.29039683E+00 0.52290432E+04</pdfrwt>
<totfact> 0.17287498E-02</totfact>
</mgrwt>
</event>
<event>
 6    1  0.2238133E-007  0.5145603E+04  0.7818608E-02  0.7806431E-01
         -2   -1    0    0    0  501 -0.00000000000E+00  0.00000000000E+00  0.22205609388E+04  0.22205609388E+04  0.00000000000E+00 0.  1.
          2   -1    0    0  501    0  0.00000000000E+00 -0.00000000000E+00 -0.29809172791E+04  0.29809172791E+04  0.00000000000E+00 0. -1.
         23    2    1    2    0    0  0.90544980521E+03 -0.24061486247E+04 -0.44921867917E+03  0.26118455803E+04  0.10271007555E+03 0.  0.
         11    1    3    3    0    0  0.29344821287E+03 -0.90088059520E+03 -0.13987882749E+03  0.95773889282E+03  0.00000000000E+00 0. -1.
        -11    1    3    3    0    0  0.61200159234E+03 -0.15052680295E+04 -0.30933985167E+03  0.16541066875E+04  0.00000000000E+00 0.  1.
         22    1    1    2    0    0 -0.90544980521E+03  0.24061486247E+04 -0.31113766112E+03  0.25896326377E+04  0.00000000000E+00 0.  1.
<mgrwt>
<rscale>  0 0.51456034E+04</rscale>
<asrwt>0</asrwt>
<pdfrwt beam="1">  1        2 0.45860266E+00 0.51456034E+04</pdfrwt>
<pdfrwt beam="2">  1       -2 0.34162476E+00 0.51456034E+04</pdfrwt>
<totfact> 0.22614469E-02</totfact>
</mgrwt>
</event>
<event>
 6    1  0.2238133E-007  0.6440711E+04  0.7818608E-02  0.7638037E-01
         -1   -1    0    0    0  501 -0.00000000000E+00  0.00000000000E+00  0.43080518151E+04  0.43080518151E+04  0.00000000000E+00 0.  1.
          1   -1    0    0  501    0  0.00000000000E+00 -0.00000000000E+00 -0.24072808555E+04  0.24072808555E+04  0.00000000000E+00 0. -1.
         23    2    1    2    0    0 -0.17201634610E+04  0.27212558952E+04  0.90121222133E+03  0.33443812246E+04  0.92229754413E+02 0.  0.
         11    1    3    3    0    0 -0.14474095013E+04  0.22677966551E+04  0.78621166754E+03  0.28028600963E+04  0.00000000000E+00 0. -1.
        -11    1    3    3    0    0 -0.27275395968E+03  0.45345924012E+03  0.11500055379E+03  0.54152112825E+03  0.00000000000E+00 0.  1.
         22    1    1    2    0    0  0.17201634610E+04 -0.27212558952E+04  0.99955873826E+03  0.33709514460E+04  0.00000000000E+00 0.  1.
<mgrwt>
<rscale>  0 0.64407113E+04</rscale>
<asrwt>0</asrwt>
<pdfrwt beam="1">  1        1 0.37035090E+00 0.64407113E+04</pdfrwt>
<pdfrwt beam="2">  1       -1 0.66277720E+00 0.64407113E+04</pdfrwt>
<totfact> 0.27666948E-04</totfact>
</mgrwt>
</event>
<event>
 6    1  0.2238133E-007  0.2125422E+04  0.7818608E-02  0.8550127E-01
         -2   -1    0    0    0  501 -0.00000000000E+00  0.00000000000E+00  0.61197331323E+03  0.61197331323E+03  0.00000000000E+00 0.  1.
          2   -1    0    0  501    0  0.00000000000E+00 -0.00000000000E+00 -0.18454315332E+04  0.18454315332E+04  0.00000000000E+00 0. -1.
         23    2    1    2    0    0 -0.77189692524E+03 -0.72114153955E+03 -0.50710820664E+03  0.11754320210E+04  0.92799350989E+02 0.  0.
         11    1    3    3    0    0 -0.33776208129E+03 -0.36025067110E+03 -0.20030694599E+03  0.53290397090E+03  0.00000000000E+00 0. -1.
        -11    1    3    3    0    0 -0.43413484394E+03 -0.36089086845E+03 -0.30680126065E+03  0.64252805012E+03  0.00000000000E+00 0.  1.
         22    1    1    2    0    0  0.77189692524E+03  0.72114153955E+03 -0.72635001333E+03  0.12819728254E+04  0.00000000000E+00 0. -1.
<mgrwt>
<rscale>  0 0.21254222E+04</rscale>
<asrwt>0</asrwt>
<pdfrwt beam="1">  1        2 0.28391254E+00 0.21254222E+04</pdfrwt>
<pdfrwt beam="2">  1       -2 0.94149743E-01 0.21254222E+04</pdfrwt>
<totfact> 0.71265119E+00</totfact>
</mgrwt>
</event>
<event>
 6    1  0.2238133E-007  0.4448740E+04  0.7818608E-02  0.7919673E-01
          2   -1    0    0  501    0  0.00000000000E+00  0.00000000000E+00  0.46580339188E+04  0.46580339188E+04  0.00000000000E+00 0. -1.
         -2   -1    0    0    0  501 -0.00000000000E+00 -0.00000000000E+00 -0.10622127253E+04  0.10622127253E+04  0.00000000000E+00 0.  1.
         23    2    1    2    0    0  0.77958456880E+03 -0.52686212431E+03  0.43889816526E+04  0.44896210667E+04  0.90562564009E+02 0.  0.
         11    1    3    3    0    0  0.32745328589E+03 -0.27540363199E+03  0.20092885238E+04  0.20543400855E+04  0.00000000000E+00 0.  1.
        -11    1    3    3    0    0  0.45213128291E+03 -0.25145849232E+03  0.23796931288E+04  0.24352809812E+04  0.00000000000E+00 0. -1.
         22    1    1    2    0    0 -0.77958456880E+03  0.52686212431E+03 -0.79316045908E+03  0.12306255774E+04  0.00000000000E+00 0.  1.
<mgrwt>
<rscale>  0 0.44487405E+04</rscale>
<asrwt>0</asrwt>
<pdfrwt beam="1">  1        2 0.71662059E+00 0.44487405E+04</pdfrwt>
<pdfrwt beam="2">  1       -2 0.16341734E+00 0.44487405E+04</pdfrwt>
<totfact> 0.15228031E-02</totfact>
</mgrwt>
</event>
<event>
 6    1  0.2238133E-007  0.2793464E+04  0.7818608E-02  0.8305300E-01
         -2   -1    0    0    0  501 -0.00000000000E+00  0.00000000000E+00  0.14967095794E+04  0.14967095794E+04  0.00000000000E+00 0.  1.
          2   -1    0    0  501    0  0.00000000000E+00 -0.00000000000E+00 -0.13034326499E+04  0.13034326499E+04  0.00000000000E+00 0. -1.
         23    2    1    2    0    0  0.85672202901E+03 -0.10016727112E+04 -0.36191294616E+03  0.13699126486E+04  0.91426631508E+02 0.  0.
         13    1    3    3    0    0  0.53728226175E+03 -0.59119183183E+03 -0.25811506540E+03  0.83952569812E+03  0.00000000000E+00 0. -1.
        -13    1    3    3    0    0  0.31943976726E+03 -0.41048087933E+03 -0.10379788077E+03  0.53038695049E+03  0.00000000000E+00 0.  1.
         22    1    1    2    0    0 -0.85672202901E+03  0.10016727112E+04  0.55518987564E+03  0.14302295806E+04  0.00000000000E+00 0.  1.
<mgrwt>
<rscale>  0 0.27934639E+04</rscale>
<asrwt>0</asrwt>
<pdfrwt beam="1">  1        2 0.20052810E+00 0.27934639E+04</pdfrwt>
<pdfrwt beam="2">  1       -2 0.23026301E+00 0.27934639E+04</pdfrwt>
<totfact> 0.12202705E+00</totfact>
</mgrwt>
</event>
<event>
 6    1  0.2238133E-007  0.1221090E+04  0.7818608E-02  0.9094594E-01
          2   -1    0    0  501    0  0.00000000000E+00  0.00000000000E+00  0.14351080794E+04  0.14351080794E+04  0.00000000000E+00 0. -1.
         -2   -1    0    0    0  501 -0.00000000000E+00 -0.00000000000E+00 -0.25974727113E+03  0.25974727113E+03  0.00000000000E+00 0.  1.
         23    2    1    2    0    0  0.45577124373E+03 -0.39161412120E+03  0.71169703994E+03  0.93586053066E+03  0.90737035721E+02 0.  0.
         13    1    3    3    0    0  0.35289045439E+03 -0.26007658857E+03  0.55094331608E+03  0.70406678820E+03  0.00000000000E+00 0. -1.
        -13    1    3    3    0    0  0.10288078934E+03 -0.13153753263E+03  0.16075372387E+03  0.23179374246E+03  0.00000000000E+00 0.  1.
         22    1    1    2    0    0 -0.45577124373E+03  0.39161412120E+03  0.46366376835E+03  0.75899481988E+03  0.00000000000E+00 0. -1.
<mgrwt>
<rscale>  0 0.12210903E+04</rscale>
<asrwt>0</asrwt>
<pdfrwt beam="1">  1        2 0.22078585E+00 0.12210903E+04</pdfrwt>
<pdfrwt beam="2">  1       -2 0.39961119E-01 0.12210903E+04</pdfrwt>
<totfact> 0.80634017E+01</totfact>
</mgrwt>
</event>
<event>
 6    1  0.2238133E-007  0.3138759E+04  0.7818608E-02  0.8205181E-01
          2   -1    0    0  501    0  0.00000000000E+00  0.00000000000E+00  0.19291439131E+04  0.19291439131E+04  0.00000000000E+00 0. -1.
         -2   -1    0    0    0  501 -0.00000000000E+00 -0.00000000000E+00 -0.12767071039E+04  0.12767071039E+04  0.00000000000E+00 0.  1.
         23    2    1    2    0    0  0.12390868603E+03  0.13432818295E+04  0.11429525384E+04  0.17704538188E+04  0.91688514403E+02 0.  0.
         13    1    3    3    0    0  0.27529451141E+02  0.78937854363E+03  0.66389410453E+03  0.10318099330E+04  0.00000000000E+00 0. -1.
        -13    1    3    3    0    0  0.96379234890E+02  0.55390328582E+03  0.47905843391E+03  0.73864388582E+03  0.00000000000E+00 0.  1.
         22    1    1    2    0    0 -0.12390868603E+03 -0.13432818295E+04 -0.49051572928E+03  0.14353971982E+04  0.00000000000E+00 0.  1.
<mgrwt>
<rscale>  0 0.31387588E+04</rscale>
<asrwt>0</asrwt>
<pdfrwt beam="1">  1        2 0.29679137E+00 0.31387588E+04</pdfrwt>
<pdfrwt beam="2">  1       -2 0.19641648E+00 0.31387588E+04</pdfrwt>
<totfact> 0.86961794E-01</totfact>
</mgrwt>
</event>
<event>
 6    1  0.2238133E-007  0.1802528E+04  0.7818608E-02  0.8704956E-01
          2   -1    0    0  501    0  0.00000000000E+00  0.00000000000E+00  0.64114069880E+03  0.64114069880E+03  0.00000000000E+00 0. -1.
         -2   -1    0    0    0  501 -0.00000000000E+00 -0.00000000000E+00 -0.12669246730E+04  0.12669246730E+04  0.00000000000E+00 0.  1.
         23    2    1    2    0    0  0.75539939365E+03 -0.29571121853E+03 -0.72378322330E+03  0.10909501893E+04  0.90756776430E+02 0.  0.
         11    1    3    3    0    0  0.48261005867E+03 -0.21738279546E+03 -0.42459888676E+03  0.67856610815E+03  0.00000000000E+00 0.  1.
        -11    1    3    3    0    0  0.27278933498E+03 -0.78328423075E+02 -0.29918433654E+03  0.41238408113E+03  0.00000000000E+00 0. -1.
         22    1    1    2    0    0 -0.75539939365E+03  0.29571121853E+03  0.97999249092E+02  0.81711518253E+03  0.00000000000E+00 0. -1.
<mgrwt>
<rscale>  0 0.18025282E+04</rscale>
<asrwt>0</asrwt>
<pdfrwt beam="1">  1        2 0.98637033E-01 0.18025282E+04</pdfrwt>
<pdfrwt beam="2">  1       -2 0.19491148E+00 0.18025282E+04</pdfrwt>
<totfact> 0.61984377E+00</totfact>
</mgrwt>
</event>
<event>
 6    1  0.2238133E-007  0.2578407E+04  0.7818608E-02  0.8375573E-01
         -2   -1    0    0    0  501 -0.00000000000E+00  0.00000000000E+00  0.23298724434E+04  0.23298724434E+04  0.00000000000E+00 0.  1.
          2   -1    0    0  501    0  0.00000000000E+00 -0.00000000000E+00 -0.71336359020E+03  0.71336359020E+03  0.00000000000E+00 0. -1.
         23    2    1    2    0    0  0.56906847679E+03 -0.11190873977E+04  0.11460306449E+04  0.17025103796E+04  0.94656317858E+02 0.  0.
         13    1    3    3    0    0  0.21931070455E+03 -0.36923179061E+03  0.34488254515E+03  0.55079330994E+03  0.00000000000E+00 0. -1.
        -13    1    3    3    0    0  0.34975777224E+03 -0.74985560705E+03  0.80114809979E+03  0.11517170696E+04  0.00000000000E+00 0.  1.
         22    1    1    2    0    0 -0.56906847679E+03  0.11190873977E+04  0.47047820822E+03  0.13407256540E+04  0.00000000000E+00 0. -1.
<mgrwt>
<rscale>  0 0.25784074E+04</rscale>
<asrwt>0</asrwt>
<pdfrwt beam="1">  1        2 0.10974825E+00 0.25784074E+04</pdfrwt>
<pdfrwt beam="2">  1       -2 0.35844191E+00 0.25784074E+04</pdfrwt>
<totfact> 0.48778686E-01</totfact>
</mgrwt>
</event>
<event>
 6    1  0.2238133E-007  0.1493378E+04  0.7818608E-02  0.8888868E-01
          2   -1    0    0  501    0  0.00000000000E+00  0.00000000000E+00  0.21092089920E+03  0.21092089920E+03  0.00000000000E+00 0. -1.
         -2   -1    0    0    0  501 -0.00000000000E+00 -0.00000000000E+00 -0.26433832711E+04  0.26433832711E+04  0.00000000000E+00 0.  1.
         23    2    1    2    0    0 -0.61694266659E+03  0.11444317159E+03 -0.45800536056E+03  0.78254260511E+03  0.94278975037E+02 0.  0.
         13    1    3    3    0    0 -0.91247911694E+02  0.31703386491E+02 -0.11142851072E+03  0.14747067202E+03  0.00000000000E+00 0. -1.
        -13    1    3    3    0    0 -0.52569475489E+03  0.82739785100E+02 -0.34657684984E+03  0.63507193309E+03  0.00000000000E+00 0.  1.
         22    1    1    2    0    0  0.61694266659E+03 -0.11444317159E+03 -0.19744570113E+04  0.20717615652E+04  0.00000000000E+00 0.  1.
<mgrwt>
<rscale>  0 0.14933784E+04</rscale>
<asrwt>0</asrwt>
<pdfrwt beam="1">  1        2 0.32449368E-01 0.14933784E+04</pdfrwt>
<pdfrwt beam="2">  1       -2 0.40667436E+00 0.14933784E+04</pdfrwt>
<totfact> 0.10674361E+00</totfact>
</mgrwt>
</event>
<event>
 6    1  0.2238133E-007  0.1562117E+04  0.7818608E-02  0.8844165E-01
          1   -1    0    0  501    0  0.00000000000E+00  0.00000000000E+00  0.79671618048E+03  0.79671618048E+03  0.00000000000E+00 0. -1.
         -1   -1    0    0    0  501 -0.00000000000E+00 -0.00000000000E+00 -0.76570816116E+03  0.76570816116E+03  0.00000000000E+00 0.  1.
         23    2    1    2    0    0 -0.42239302248E+03 -0.29904960482E+03  0.59715716269E+03  0.79537063810E+03  0.90394930238E+02 0.  0.
         11    1    3    3    0    0 -0.34552681744E+03 -0.23527299680E+03  0.42362329764E+03  0.59514608534E+03  0.00000000000E+00 0.  1.
        -11    1    3    3    0    0 -0.76866205044E+02 -0.63776608021E+02  0.17353386505E+03  0.20022455276E+03  0.00000000000E+00 0. -1.
         22    1    1    2    0    0  0.42239302248E+03  0.29904960482E+03 -0.56614914337E+03  0.76705370354E+03  0.00000000000E+00 0.  1.
<mgrwt>
<rscale>  0 0.15621166E+04</rscale>
<asrwt>0</asrwt>
<pdfrwt beam="1">  1        1 0.12257172E+00 0.15621166E+04</pdfrwt>
<pdfrwt beam="2">  1       -1 0.11780126E+00 0.15621166E+04</pdfrwt>
<totfact> 0.13878306E+01</totfact>
</mgrwt>
</event>
<event>
 6    1  0.2238133E-007  0.1988182E+04  0.7818608E-02  0.8612166E-01
          2   -1    0    0  501    0  0.00000000000E+00  0.00000000000E+00  0.82917397080E+03  0.82917397080E+03  0.00000000000E+00 0. -1.
         -2   -1    0    0    0  501 -0.00000000000E+00 -0.00000000000E+00 -0.11918093469E+04  0.11918093469E+04  0.00000000000E+00 0.  1.
         23    2    1    2    0    0 -0.75929247405E+03 -0.24773890741E+03  0.41643821383E+03  0.90525248730E+03  0.90341864289E+02 0.  0.
         11    1    3    3    0    0 -0.41596999313E+03 -0.12736243172E+03  0.27643145762E+03  0.51542853526E+03  0.00000000000E+00 0. -1.
        -11    1    3    3    0    0 -0.34332248092E+03 -0.12037647569E+03  0.14000675621E+03  0.38982395204E+03  0.00000000000E+00 0.  1.
         22    1    1    2    0    0  0.75929247405E+03  0.24773890741E+03 -0.77907358994E+03  0.11157308304E+04  0.00000000000E+00 0.  1.
<mgrwt>
<rscale>  0 0.19881824E+04</rscale>
<asrwt>0</asrwt>
<pdfrwt beam="1">  1        2 0.12756523E+00 0.19881824E+04</pdfrwt>
<pdfrwt beam="2">  1       -2 0.18335528E+00 0.19881824E+04</pdfrwt>
<totfact> 0.52466298E+00</totfact>
</mgrwt>
</event>
<event>
 6    1  0.2238133E-007  0.4279783E+04  0.7818608E-02  0.7950367E-01
          2   -1    0    0  501    0  0.00000000000E+00  0.00000000000E+00  0.36307225765E+04  0.36307225765E+04  0.00000000000E+00 0. -1.
         -2   -1    0    0    0  501 -0.00000000000E+00 -0.00000000000E+00 -0.12612185550E+04  0.12612185550E+04  0.00000000000E+00 0.  1.
         23    2    1    2    0    0  0.11402821441E+04 -0.70705029275E+03  0.30893435222E+04  0.33693340282E+04  0.90580960800E+02 0.  0.
         13    1    3    3    0    0  0.19434545268E+03 -0.85100741066E+02  0.45456825418E+03  0.50164189300E+03  0.00000000000E+00 0.  1.
        -13    1    3    3    0    0  0.94593669140E+03 -0.62194955168E+03  0.26347752680E+04  0.28676921352E+04  0.00000000000E+00 0. -1.
         22    1    1    2    0    0 -0.11402821441E+04  0.70705029275E+03 -0.71983950069E+03  0.15226071034E+04  0.00000000000E+00 0.  1.
<mgrwt>
<rscale>  0 0.42797826E+04</rscale>
<asrwt>0</asrwt>
<pdfrwt beam="1">  1        2 0.55857270E+00 0.42797826E+04</pdfrwt>
<pdfrwt beam="2">  1       -2 0.19403363E+00 0.42797826E+04</pdfrwt>
<totfact> 0.73528595E-02</totfact>
</mgrwt>
</event>
<event>
 6    1  0.2238133E-007  0.4220276E+04  0.7818608E-02  0.7961527E-01
          2   -1    0    0  501    0  0.00000000000E+00  0.00000000000E+00  0.26997818314E+04  0.26997818314E+04  0.00000000000E+00 0. -1.
         -2   -1    0    0    0  501 -0.00000000000E+00 -0.00000000000E+00 -0.16492746851E+04  0.16492746851E+04  0.00000000000E+00 0.  1.
         23    2    1    2    0    0  0.16212578724E+04 -0.10722564609E+04 -0.31823996785E+03  0.19717303568E+04  0.90735416998E+02 0.  0.
         11    1    3    3    0    0  0.27978884694E+03 -0.19366572049E+03 -0.21727393439E+02  0.34096963177E+03  0.00000000000E+00 0. -1.
        -11    1    3    3    0    0  0.13414690255E+04 -0.87859074041E+03 -0.29651257441E+03  0.16307607250E+04  0.00000000000E+00 0.  1.
         22    1    1    2    0    0 -0.16212578724E+04  0.10722564609E+04  0.13687471142E+04  0.23773261597E+04  0.00000000000E+00 0. -1.
<mgrwt>
<rscale>  0 0.42202757E+04</rscale>
<asrwt>0</asrwt>
<pdfrwt beam="1">  1        2 0.41535105E+00 0.42202757E+04</pdfrwt>
<pdfrwt beam="2">  1       -2 0.25373457E+00 0.42202757E+04</pdfrwt>
<totfact> 0.12546171E-01</totfact>
</mgrwt>
</event>
<event>
 6    1  0.2238133E-007  0.5010499E+04  0.7818608E-02  0.7826890E-01
         -2   -1    0    0    0  501 -0.00000000000E+00  0.00000000000E+00  0.18833813770E+04  0.18833813770E+04  0.00000000000E+00 0.  1.
          2   -1    0    0  501    0  0.00000000000E+00 -0.00000000000E+00 -0.33324502980E+04  0.33324502980E+04  0.00000000000E+00 0. -1.
         23    2    1    2    0    0 -0.24272452469E+04 -0.55823224881E+03 -0.99814257087E+03  0.26847296807E+04  0.91335283812E+02 0.  0.
         11    1    3    3    0    0 -0.96665771041E+03 -0.26642944615E+03 -0.41513807296E+03  0.10852425528E+04  0.00000000000E+00 0. -1.
        -11    1    3    3    0    0 -0.14605875365E+04 -0.29180280266E+03 -0.58300449791E+03  0.15994871278E+04  0.00000000000E+00 0.  1.
         22    1    1    2    0    0  0.24272452469E+04  0.55823224881E+03 -0.45092635015E+03  0.25311019943E+04  0.00000000000E+00 0. -1.
<mgrwt>
<rscale>  0 0.50104989E+04</rscale>
<asrwt>0</asrwt>
<pdfrwt beam="1">  1        2 0.51268466E+00 0.50104989E+04</pdfrwt>
<pdfrwt beam="2">  1       -2 0.28975098E+00 0.50104989E+04</pdfrwt>
<totfact> 0.28258725E-02</totfact>
</mgrwt>
</event>
<event>
 6    1  0.2238133E-007  0.8318043E+03  0.7818608E-02  0.9515089E-01
         -1   -1    0    0    0  501 -0.00000000000E+00  0.00000000000E+00  0.24282197686E+03  0.24282197686E+03  0.00000000000E+00 0.  1.
          1   -1    0    0  501    0  0.00000000000E+00 -0.00000000000E+00 -0.71235150111E+03  0.71235150111E+03  0.00000000000E+00 0. -1.
         23    2    1    2    0    0 -0.14954780223E+02  0.11998514114E+03  0.21339869673E+03  0.26162388741E+03  0.91038316962E+02 0.  0.
         13    1    3    3    0    0  0.45381179385E+01  0.94302366104E+02  0.78075173588E+02  0.12251229937E+03  0.00000000000E+00 0.  1.
        -13    1    3    3    0    0 -0.19492898161E+02  0.25682775036E+02  0.13532352314E+03  0.13911158804E+03  0.00000000000E+00 0. -1.
         22    1    1    2    0    0  0.14954780223E+02 -0.11998514114E+03 -0.68292822098E+03  0.69354959055E+03  0.00000000000E+00 0. -1.
<mgrwt>
<rscale>  0 0.83180430E+03</rscale>
<asrwt>0</asrwt>
<pdfrwt beam="1">  1        1 0.10959254E+00 0.83180430E+03</pdfrwt>
<pdfrwt beam="2">  1       -1 0.37357228E-01 0.83180430E+03</pdfrwt>
<totfact> 0.18470098E+02</totfact>
</mgrwt>
</event>
<event>
 6    1  0.2238133E-007  0.2315439E+04  0.7818608E-02  0.8471858E-01
          2   -1    0    0  501    0  0.00000000000E+00  0.00000000000E+00  0.12045375595E+04  0.12045375595E+04  0.00000000000E+00 0. -1.
         -2   -1    0    0    0  501 -0.00000000000E+00 -0.00000000000E+00 -0.11127215030E+04  0.11127215030E+04  0.00000000000E+00 0.  1.
         23    2    1    2    0    0 -0.10090154479E+04 -0.46723875608E+03 -0.27000938091E+03  0.11479251169E+04  0.91666672560E+02 0.  0.
         13    1    3    3    0    0 -0.43233723520E+03 -0.15723193751E+03 -0.88092904032E+02  0.46839911065E+03  0.00000000000E+00 0. -1.
        -13    1    3    3    0    0 -0.57667821271E+03 -0.31000681858E+03 -0.18191647687E+03  0.67952600622E+03  0.00000000000E+00 0.  1.
         22    1    1    2    0    0  0.10090154479E+04  0.46723875608E+03  0.36182543732E+03  0.11693339456E+04  0.00000000000E+00 0. -1.
<mgrwt>
<rscale>  0 0.23154393E+04</rscale>
<asrwt>0</asrwt>
<pdfrwt beam="1">  1        2 0.18531347E+00 0.23154393E+04</pdfrwt>
<pdfrwt beam="2">  1       -2 0.17118792E+00 0.23154393E+04</pdfrwt>
<totfact> 0.35627153E+00</totfact>
</mgrwt>
</event>
<event>
 6    1  0.2238133E-007  0.1275036E+04  0.7818608E-02  0.9049599E-01
          2   -1    0    0  501    0  0.00000000000E+00  0.00000000000E+00  0.45526792691E+03  0.45526792691E+03  0.00000000000E+00 0. -1.
         -2   -1    0    0    0  501 -0.00000000000E+00 -0.00000000000E+00 -0.89272594359E+03  0.89272594359E+03  0.00000000000E+00 0.  1.
         23    2    1    2    0    0  0.50786726116E+03 -0.45312207699E+02 -0.62039381237E+03  0.80628559434E+03  0.72288492009E+02 0.  0.
         13    1    3    3    0    0  0.16585014864E+03  0.11352000280E+02 -0.16815757163E+03  0.23645741395E+03  0.00000000000E+00 0.  1.
        -13    1    3    3    0    0  0.34201711252E+03 -0.56664207979E+02 -0.45223624074E+03  0.56982818039E+03  0.00000000000E+00 0. -1.
         22    1    1    2    0    0 -0.50786726116E+03  0.45312207699E+02  0.18293579569E+03  0.54170827617E+03  0.00000000000E+00 0. -1.
<mgrwt>
<rscale>  0 0.12750365E+04</rscale>
<asrwt>0</asrwt>
<pdfrwt beam="1">  1        2 0.70041220E-01 0.12750365E+04</pdfrwt>
<pdfrwt beam="2">  1       -2 0.13734245E+00 0.12750365E+04</pdfrwt>
<totfact> 0.25414531E+01</totfact>
</mgrwt>
</event>
<event>
 6    1  0.2238133E-007  0.2117647E+04  0.7818608E-02  0.8553509E-01
          2   -1    0    0  501    0  0.00000000000E+00  0.00000000000E+00  0.18141262240E+04  0.18141262240E+04  0.00000000000E+00 0. -1.
         -2   -1    0    0    0  501 -0.00000000000E+00 -0.00000000000E+00 -0.61798728984E+03  0.61798728984E+03  0.00000000000E+00 0.  1.
         23    2    1    2    0    0 -0.84199978612E+03 -0.48607293391E+03  0.12347546037E+03  0.98441276268E+03  0.92691753199E+02 0.  0.
         13    1    3    3    0    0 -0.44502476800E+02 -0.27846481132E+02  0.28553520771E+02  0.59759522264E+02  0.00000000000E+00 0.  1.
        -13    1    3    3    0    0 -0.79749730932E+03 -0.45822645278E+03  0.94921939603E+02  0.92465324042E+03  0.00000000000E+00 0. -1.
         22    1    1    2    0    0  0.84199978612E+03  0.48607293391E+03  0.10726634738E+04  0.14477007511E+04  0.00000000000E+00 0.  1.
<mgrwt>
<rscale>  0 0.21176468E+04</rscale>
<asrwt>0</asrwt>
<pdfrwt beam="1">  1        2 0.27909634E+00 0.21176468E+04</pdfrwt>
<pdfrwt beam="2">  1       -2 0.95074968E-01 0.21176468E+04</pdfrwt>
<totfact> 0.72545652E+00</totfact>
</mgrwt>
</event>
<event>
 6    1  0.2238133E-007  0.2203806E+04  0.7818608E-02  0.8516846E-01
         -2   -1    0    0    0  501 -0.00000000000E+00  0.00000000000E+00  0.14845426551E+04  0.14845426551E+04  0.00000000000E+00 0.  1.
          2   -1    0    0  501    0  0.00000000000E+00 -0.00000000000E+00 -0.81788815479E+03  0.81788815479E+03  0.00000000000E+00 0. -1.
         23    2    1    2    0    0  0.98928003412E+03  0.38306156796E+03  0.63742674972E+03  0.12411742847E+04  0.93752829806E+02 0.  0.
         13    1    3    3    0    0  0.82815300985E+03  0.35301184869E+03  0.52119779262E+03  0.10402412759E+04  0.00000000000E+00 0. -1.
        -13    1    3    3    0    0  0.16112702426E+03  0.30049719275E+02  0.11622895709E+03  0.20093300885E+03  0.00000000000E+00 0.  1.
         22    1    1    2    0    0 -0.98928003412E+03 -0.38306156796E+03  0.29227750591E+02  0.10612565251E+04  0.00000000000E+00 0. -1.
<mgrwt>
<rscale>  0 0.22038057E+04</rscale>
<asrwt>0</asrwt>
<pdfrwt beam="1">  1        2 0.12582895E+00 0.22038057E+04</pdfrwt>
<pdfrwt beam="2">  1       -2 0.22839118E+00 0.22038057E+04</pdfrwt>
<totfact> 0.26730373E+00</totfact>
</mgrwt>
</event>
<event>
 6    1  0.2238133E-007  0.8750465E+03  0.7818608E-02  0.9457324E-01
          2   -1    0    0  501    0  0.00000000000E+00  0.00000000000E+00  0.20685878624E+04  0.20685878624E+04  0.00000000000E+00 0. -1.
         -2   -1    0    0    0  501 -0.00000000000E+00 -0.00000000000E+00 -0.92539738704E+02  0.92539738704E+02  0.00000000000E+00 0.  1.
         23    2    1    2    0    0  0.10727624783E+03  0.28017665055E+03  0.17691889542E+04  0.17967131874E+04  0.90230668781E+02 0.  0.
         13    1    3    3    0    0  0.66854521430E+02  0.18185598924E+03  0.87308750001E+03  0.89432818949E+03  0.00000000000E+00 0.  1.
        -13    1    3    3    0    0  0.40421726396E+02  0.98320661307E+02  0.89610145415E+03  0.90238499795E+03  0.00000000000E+00 0. -1.
         22    1    1    2    0    0 -0.10727624783E+03 -0.28017665055E+03  0.20685916955E+03  0.36441441366E+03  0.00000000000E+00 0.  1.
<mgrwt>
<rscale>  0 0.87504647E+03</rscale>
<asrwt>0</asrwt>
<pdfrwt beam="1">  1        2 0.31824425E+00 0.87504647E+03</pdfrwt>
<pdfrwt beam="2">  1       -2 0.14236884E-01 0.87504647E+03</pdfrwt>
<totfact> 0.23765798E+02</totfact>
</mgrwt>
</event>
<event>
 6    1  0.2238133E-007  0.3344798E+04  0.7818608E-02  0.8151589E-01
         -2   -1    0    0    0  501 -0.00000000000E+00  0.00000000000E+00  0.26397484019E+04  0.26397484019E+04  0.00000000000E+00 0.  1.
          2   -1    0    0  501    0  0.00000000000E+00 -0.00000000000E+00 -0.10595396722E+04  0.10595396722E+04  0.00000000000E+00 0. -1.
         23    2    1    2    0    0  0.25890387959E+03  0.15081030956E+04  0.15337366915E+04  0.21684171402E+04  0.90986202628E+02 0.  0.
         11    1    3    3    0    0  0.66253858549E+02  0.64219429593E+03  0.66269036157E+03  0.92518192958E+03  0.00000000000E+00 0. -1.
        -11    1    3    3    0    0  0.19265002104E+03  0.86590879972E+03  0.87104632991E+03  0.12432352106E+04  0.00000000000E+00 0.  1.
         22    1    1    2    0    0 -0.25890387959E+03 -0.15081030956E+04  0.46472038154E+02  0.15308709339E+04  0.00000000000E+00 0. -1.
<mgrwt>
<rscale>  0 0.33447978E+04</rscale>
<asrwt>0</asrwt>
<pdfrwt beam="1">  1        2 0.16300610E+00 0.33447978E+04</pdfrwt>
<pdfrwt beam="2">  1       -2 0.40611514E+00 0.33447978E+04</pdfrwt>
<totfact> 0.12990752E-01</totfact>
</mgrwt>
</event>
<event>
 6    1  0.2238133E-007  0.2668308E+04  0.7818608E-02  0.8345362E-01
         -1   -1    0    0    0  501 -0.00000000000E+00  0.00000000000E+00  0.55969611376E+03  0.55969611376E+03  0.00000000000E+00 0.  1.
          1   -1    0    0  501    0  0.00000000000E+00 -0.00000000000E+00 -0.31802383178E+04  0.31802383178E+04  0.00000000000E+00 0. -1.
         23    2    1    2    0    0 -0.53799797258E+03  0.59356078339E+03 -0.28043589983E+04  0.29180190856E+04  0.93004143952E+02 0.  0.
         11    1    3    3    0    0 -0.38479701750E+03  0.41772562346E+03 -0.21325027534E+04  0.22068374282E+04  0.00000000000E+00 0. -1.
        -11    1    3    3    0    0 -0.15320095508E+03  0.17583515992E+03 -0.67185624485E+03  0.71118165742E+03  0.00000000000E+00 0.  1.
         22    1    1    2    0    0  0.53799797258E+03 -0.59356078339E+03  0.18381679422E+03  0.82191534595E+03  0.00000000000E+00 0.  1.
<mgrwt>
<rscale>  0 0.26683081E+04</rscale>
<asrwt>0</asrwt>
<pdfrwt beam="1">  1        1 0.48926744E+00 0.26683081E+04</pdfrwt>
<pdfrwt beam="2">  1       -1 0.86107094E-01 0.26683081E+04</pdfrwt>
<totfact> 0.51243209E-01</totfact>
</mgrwt>
</event>
<event>
 6    1  0.2238133E-007  0.5850782E+04  0.7818608E-02  0.7709183E-01
         -2   -1    0    0    0  501 -0.00000000000E+00  0.00000000000E+00  0.26583583719E+04  0.26583583719E+04  0.00000000000E+00 0.  1.
          2   -1    0    0  501    0  0.00000000000E+00 -0.00000000000E+00 -0.32192473580E+04  0.32192473580E+04  0.00000000000E+00 0. -1.
         23    2    1    2    0    0 -0.12199834697E+04  0.20938461087E+04 -0.19258666024E+04  0.30962903781E+04  0.74166989384E+02 0.  0.
         13    1    3    3    0    0 -0.37621076908E+03  0.58500269494E+03 -0.57029317226E+03  0.89944260417E+03  0.00000000000E+00 0.  1.
        -13    1    3    3    0    0 -0.84377270060E+03  0.15088434137E+04 -0.13555734301E+04  0.21968477740E+04  0.00000000000E+00 0. -1.
         22    1    1    2    0    0  0.12199834697E+04 -0.20938461087E+04  0.13649776163E+04  0.27813153518E+04  0.00000000000E+00 0. -1.
<mgrwt>
<rscale>  0 0.58507822E+04</rscale>
<asrwt>0</asrwt>
<pdfrwt beam="1">  1        2 0.49526882E+00 0.58507822E+04</pdfrwt>
<pdfrwt beam="2">  1       -2 0.40897821E+00 0.58507822E+04</pdfrwt>
<totfact> 0.55624701E-03</totfact>
</mgrwt>
</event>
<event>
 6    1  0.2238133E-007  0.1623100E+04  0.7818608E-02  0.8806481E-01
          2   -1    0    0  501    0  0.00000000000E+00  0.00000000000E+00  0.74892873725E+03  0.74892873725E+03  0.00000000000E+00 0. -1.
         -2   -1    0    0    0  501 -0.00000000000E+00 -0.00000000000E+00 -0.87940701034E+03  0.87940701034E+03  0.00000000000E+00 0.  1.
         23    2    1    2    0    0  0.18965217312E+03  0.43710819245E+03 -0.72276340128E+03  0.86818234746E+03  0.65742950442E+02 0.  0.
         13    1    3    3    0    0  0.16860591445E+02  0.89276276585E+02 -0.16773350659E+03  0.19075917367E+03  0.00000000000E+00 0. -1.
        -13    1    3    3    0    0  0.17279158167E+03  0.34783191586E+03 -0.55502989469E+03  0.67742317379E+03  0.00000000000E+00 0.  1.
         22    1    1    2    0    0 -0.18965217312E+03 -0.43710819245E+03  0.59228512818E+03  0.76015340014E+03  0.00000000000E+00 0. -1.
<mgrwt>
<rscale>  0 0.16230997E+04</rscale>
<asrwt>0</asrwt>
<pdfrwt beam="1">  1        2 0.11521981E+00 0.16230997E+04</pdfrwt>
<pdfrwt beam="2">  1       -2 0.13529339E+00 0.16230997E+04</pdfrwt>
<totfact> 0.14104898E+01</totfact>
</mgrwt>
</event>
<event>
 6    1  0.2238133E-007  0.1557137E+04  0.7818608E-02  0.8847322E-01
         -2   -1    0    0    0  501 -0.00000000000E+00  0.00000000000E+00  0.18224526645E+03  0.18224526645E+03  0.00000000000E+00 0.  1.
          2   -1    0    0  501    0  0.00000000000E+00 -0.00000000000E+00 -0.33261153827E+04  0.33261153827E+04  0.00000000000E+00 0. -1.
         23    2    1    2    0    0 -0.32229867716E+03 -0.68595686589E+03 -0.19518158988E+04  0.20957720620E+04  0.90895401243E+02 0.  0.
         13    1    3    3    0    0 -0.19705787542E+03 -0.47439697322E+03 -0.12190667801E+04  0.13228787203E+04  0.00000000000E+00 0. -1.
        -13    1    3    3    0    0 -0.12524080174E+03 -0.21155989266E+03 -0.73274911869E+03  0.77289334163E+03  0.00000000000E+00 0.  1.
         22    1    1    2    0    0  0.32229867716E+03  0.68595686589E+03 -0.11920542175E+04  0.14125885871E+04  0.00000000000E+00 0. -1.
<mgrwt>
<rscale>  0 0.15571368E+04</rscale>
<asrwt>0</asrwt>
<pdfrwt beam="1">  1        2 0.51171001E+00 0.15571368E+04</pdfrwt>
<pdfrwt beam="2">  1       -2 0.28037736E-01 0.15571368E+04</pdfrwt>
<totfact> 0.12093222E+01</totfact>
</mgrwt>
</event>
<event>
 6    1  0.2238133E-007  0.8060576E+03  0.7818608E-02  0.9551290E-01
         -2   -1    0    0    0  501 -0.00000000000E+00  0.00000000000E+00  0.51480308720E+03  0.51480308720E+03  0.00000000000E+00 0.  1.
          2   -1    0    0  501    0  0.00000000000E+00 -0.00000000000E+00 -0.31552302761E+03  0.31552302761E+03  0.00000000000E+00 0. -1.
         23    2    1    2    0    0  0.17423174453E+03 -0.21590062331E+03  0.39459724926E+03  0.49103481735E+03  0.91860888186E+02 0.  0.
         13    1    3    3    0    0  0.14651357303E+03 -0.15833680922E+03  0.35638497339E+03  0.41658975203E+03  0.00000000000E+00 0.  1.
        -13    1    3    3    0    0  0.27718171502E+02 -0.57563814090E+02  0.38212275875E+02  0.74445065327E+02  0.00000000000E+00 0. -1.
         22    1    1    2    0    0 -0.17423174453E+03  0.21590062331E+03 -0.19531718968E+03  0.33929129746E+03  0.00000000000E+00 0. -1.
<mgrwt>
<rscale>  0 0.80605764E+03</rscale>
<asrwt>0</asrwt>
<pdfrwt beam="1">  1        2 0.48542004E-01 0.80605764E+03</pdfrwt>
<pdfrwt beam="2">  1       -2 0.79200475E-01 0.80605764E+03</pdfrwt>
<totfact> 0.14781924E+02</totfact>
</mgrwt>
</event>
<event>
 6    1  0.2238133E-007  0.2076084E+04  0.7818608E-02  0.8571852E-01
         -2   -1    0    0    0  501 -0.00000000000E+00  0.00000000000E+00  0.43194219794E+03  0.43194219794E+03  0.00000000000E+00 0.  1.
          2   -1    0    0  501    0  0.00000000000E+00 -0.00000000000E+00 -0.24946200517E+04  0.24946200517E+04  0.00000000000E+00 0. -1.
         23    2    1    2    0    0  0.61640910531E+02  0.31403970534E+03 -0.24223733708E+04  0.24451046676E+04  0.90683787308E+02 0.  0.
         13    1    3    3    0    0  0.14742599568E+02  0.13828716770E+03 -0.74252213379E+03  0.75543352068E+03  0.00000000000E+00 0. -1.
        -13    1    3    3    0    0  0.46898310963E+02  0.17575253764E+03 -0.16798512370E+04  0.16896711469E+04  0.00000000000E+00 0.  1.
         22    1    1    2    0    0 -0.61640910531E+02 -0.31403970534E+03  0.35969551704E+03  0.48145758210E+03  0.00000000000E+00 0.  1.
<mgrwt>
<rscale>  0 0.20760845E+04</rscale>
<asrwt>0</asrwt>
<pdfrwt beam="1">  1        2 0.38378770E+00 0.20760845E+04</pdfrwt>
<pdfrwt beam="2">  1       -2 0.66452646E-01 0.20760845E+04</pdfrwt>
<totfact> 0.67410764E+00</totfact>
</mgrwt>
</event>
<event>
 6    1  0.2238133E-007  0.1968544E+04  0.7818608E-02  0.8621470E-01
         -2   -1    0    0    0  501 -0.00000000000E+00  0.00000000000E+00  0.58110103328E+03  0.58110103328E+03  0.00000000000E+00 0.  1.
          2   -1    0    0  501    0  0.00000000000E+00 -0.00000000000E+00 -0.16671643825E+04  0.16671643825E+04  0.00000000000E+00 0. -1.
         23    2    1    2    0    0  0.32480445420E+03  0.59278880532E+03 -0.13580765511E+04  0.15196450186E+04  0.89736072093E+02 0.  0.
         11    1    3    3    0    0  0.13224684443E+03  0.27988963611E+03 -0.53116435682E+03  0.61478696328E+03  0.00000000000E+00 0.  1.
        -11    1    3    3    0    0  0.19255760977E+03  0.31289916922E+03 -0.82691219429E+03  0.90485805530E+03  0.00000000000E+00 0. -1.
         22    1    1    2    0    0 -0.32480445420E+03 -0.59278880532E+03  0.27201320190E+03  0.72862039719E+03  0.00000000000E+00 0.  1.
<mgrwt>
<rscale>  0 0.19685436E+04</rscale>
<asrwt>0</asrwt>
<pdfrwt beam="1">  1        2 0.25648682E+00 0.19685436E+04</pdfrwt>
<pdfrwt beam="2">  1       -2 0.89400161E-01 0.19685436E+04</pdfrwt>
<totfact> 0.10225184E+01</totfact>
</mgrwt>
</event>
<event>
 6    1  0.2238133E-007  0.2474860E+04  0.7818608E-02  0.8411997E-01
         -2   -1    0    0    0  501 -0.00000000000E+00  0.00000000000E+00  0.39101164956E+03  0.39101164956E+03  0.00000000000E+00 0.  1.
          2   -1    0    0  501    0  0.00000000000E+00 -0.00000000000E+00 -0.39160811919E+04  0.39160811919E+04  0.00000000000E+00 0. -1.
         23    2    1    2    0    0 -0.40539616862E+03  0.92377155461E+03 -0.30070677446E+04  0.31730620654E+04  0.90368753806E+02 0.  0.
         11    1    3    3    0    0 -0.19791286467E+03  0.36021405336E+03 -0.11433304474E+04  0.12149601550E+04  0.00000000000E+00 0.  1.
        -11    1    3    3    0    0 -0.20748330396E+03  0.56355750124E+03 -0.18637372972E+04  0.19581019105E+04  0.00000000000E+00 0. -1.
         22    1    1    2    0    0  0.40539616862E+03 -0.92377155461E+03 -0.51800179777E+03  0.11340307761E+04  0.00000000000E+00 0.  1.
<mgrwt>
<rscale>  0 0.24748603E+04</rscale>
<asrwt>0</asrwt>
<pdfrwt beam="1">  1        2 0.60247402E+00 0.24748603E+04</pdfrwt>
<pdfrwt beam="2">  1       -2 0.60155639E-01 0.24748603E+04</pdfrwt>
<totfact> 0.92215244E-01</totfact>
</mgrwt>
</event>
<event>
 6    1  0.2238133E-007  0.1988527E+04  0.7818608E-02  0.8612003E-01
         -2   -1    0    0    0  501 -0.00000000000E+00  0.00000000000E+00  0.30895363102E+04  0.30895363102E+04  0.00000000000E+00 0.  1.
          2   -1    0    0  501    0  0.00000000000E+00 -0.00000000000E+00 -0.31997038503E+03  0.31997038503E+03  0.00000000000E+00 0. -1.
         23    2    1    2    0    0 -0.96785201203E+03 -0.21594102482E+03  0.13356157931E+04  0.16660672713E+04  0.92425984120E+02 0.  0.
         11    1    3    3    0    0 -0.29338802572E+03 -0.10671926942E+03  0.39458878202E+03  0.50315588340E+03  0.00000000000E+00 0.  1.
        -11    1    3    3    0    0 -0.67446398631E+03 -0.10922175541E+03  0.94102701105E+03  0.11629113879E+04  0.00000000000E+00 0. -1.
         22    1    1    2    0    0  0.96785201203E+03  0.21594102482E+03  0.14339501321E+04  0.17434394239E+04  0.00000000000E+00 0. -1.
<mgrwt>
<rscale>  0 0.19885272E+04</rscale>
<asrwt>0</asrwt>
<pdfrwt beam="1">  1        2 0.49226215E-01 0.19885272E+04</pdfrwt>
<pdfrwt beam="2">  1       -2 0.47531326E+00 0.19885272E+04</pdfrwt>
<totfact> 0.22491212E-01</totfact>
</mgrwt>
</event>
<event>
 6    1  0.2238133E-007  0.1867724E+04  0.7818608E-02  0.8671091E-01
         -2   -1    0    0    0  501 -0.00000000000E+00  0.00000000000E+00  0.10185979663E+04  0.10185979663E+04  0.00000000000E+00 0.  1.
          2   -1    0    0  501    0  0.00000000000E+00 -0.00000000000E+00 -0.85617523613E+03  0.85617523613E+03  0.00000000000E+00 0. -1.
         23    2    1    2    0    0  0.70196582453E+03  0.48262949602E+03 -0.29703824095E+03  0.90689323402E+03  0.92392489321E+02 0.  0.
         13    1    3    3    0    0  0.38914482737E+03  0.24619909606E+03 -0.11527165660E+03  0.47469489821E+03  0.00000000000E+00 0.  1.
        -13    1    3    3    0    0  0.31282099716E+03  0.23643039996E+03 -0.18176658435E+03  0.43219833581E+03  0.00000000000E+00 0. -1.
         22    1    1    2    0    0 -0.70196582453E+03 -0.48262949602E+03  0.45946097109E+03  0.96787996838E+03  0.00000000000E+00 0.  1.
<mgrwt>
<rscale>  0 0.18677241E+04</rscale>
<asrwt>0</asrwt>
<pdfrwt beam="1">  1        2 0.13171927E+00 0.18677241E+04</pdfrwt>
<pdfrwt beam="2">  1       -2 0.15670738E+00 0.18677241E+04</pdfrwt>
<totfact> 0.78619142E+00</totfact>
</mgrwt>
</event>
<event>
 6    1  0.3013036E-007  0.3215226E+04  0.7818608E-02  0.8184808E-01
          2   -1    0    0  501    0  0.00000000000E+00  0.00000000000E+00  0.15665862532E+04  0.15665862532E+04  0.00000000000E+00 0. -1.
         -2   -1    0    0    0  501 -0.00000000000E+00 -0.00000000000E+00 -0.16497144282E+04  0.16497144282E+04  0.00000000000E+00 0.  1.
         23    2    1    2    0    0  0.42547969189E+03  0.83087286309E+03  0.12660568475E+04  0.15756657714E+04  0.91869469033E+02 0.  0.
         13    1    3    3    0    0  0.22590544407E+03  0.37546250798E+03  0.53497639391E+03  0.69152375708E+03  0.00000000000E+00 0. -1.
        -13    1    3    3    0    0  0.19957424782E+03  0.45541035511E+03  0.73108045359E+03  0.88414201436E+03  0.00000000000E+00 0.  1.
         22    1    1    2    0    0 -0.42547969189E+03 -0.83087286309E+03 -0.13491850225E+04  0.16406349099E+04  0.00000000000E+00 0.  1.
<mgrwt>
<rscale>  0 0.32152262E+04</rscale>
<asrwt>0</asrwt>
<pdfrwt beam="1">  1        2 0.24101327E+00 0.32152262E+04</pdfrwt>
<pdfrwt beam="2">  1       -2 0.25380222E+00 0.32152262E+04</pdfrwt>
<totfact> 0.59630644E-01</totfact>
</mgrwt>
</event>
<event>
 6    1  0.2238133E-007  0.2719536E+04  0.7818608E-02  0.8328694E-01
         -2   -1    0    0    0  501 -0.00000000000E+00  0.00000000000E+00  0.11712792643E+04  0.11712792643E+04  0.00000000000E+00 0.  1.
          2   -1    0    0  501    0  0.00000000000E+00 -0.00000000000E+00 -0.15785896259E+04  0.15785896259E+04  0.00000000000E+00 0. -1.
         23    2    1    2    0    0 -0.80517555148E+03 -0.74627112356E+03  0.60480035202E+03  0.12566855943E+04  0.90812766143E+02 0.  0.
         11    1    3    3    0    0 -0.55989491885E+03 -0.46111912780E+03  0.40672375092E+03  0.83158726526E+03  0.00000000000E+00 0.  1.
        -11    1    3    3    0    0 -0.24528063263E+03 -0.28515199576E+03  0.19807660109E+03  0.42509832901E+03  0.00000000000E+00 0. -1.
         22    1    1    2    0    0  0.80517555148E+03  0.74627112356E+03 -0.10121107136E+04  0.14931832959E+04  0.00000000000E+00 0. -1.
<mgrwt>
<rscale>  0 0.27195362E+04</rscale>
<asrwt>0</asrwt>
<pdfrwt beam="1">  1        2 0.24285994E+00 0.27195362E+04</pdfrwt>
<pdfrwt beam="2">  1       -2 0.18019681E+00 0.27195362E+04</pdfrwt>
<totfact> 0.18153957E+00</totfact>
</mgrwt>
</event>
<event>
 6    1  0.2238133E-007  0.1914699E+04  0.7818608E-02  0.8647574E-01
          2   -1    0    0  501    0  0.00000000000E+00  0.00000000000E+00  0.82194995576E+03  0.82194995576E+03  0.00000000000E+00 0. -1.
         -2   -1    0    0    0  501 -0.00000000000E+00 -0.00000000000E+00 -0.11150528048E+04  0.11150528048E+04  0.00000000000E+00 0.  1.
         23    2    1    2    0    0  0.32980674254E+02 -0.95405828906E+03 -0.11531278743E+03  0.96595989341E+03  0.92013764953E+02 0.  0.
         11    1    3    3    0    0 -0.29966417422E+02 -0.39839222248E+03 -0.60256611942E+02  0.40403614738E+03  0.00000000000E+00 0.  1.
        -11    1    3    3    0    0  0.62947091677E+02 -0.55566606657E+03 -0.55056175487E+02  0.56192374603E+03  0.00000000000E+00 0. -1.
         22    1    1    2    0    0 -0.32980674254E+02  0.95405828906E+03 -0.17779006159E+03  0.97104286712E+03  0.00000000000E+00 0.  1.
<mgrwt>
<rscale>  0 0.19146985E+04</rscale>
<asrwt>0</asrwt>
<pdfrwt beam="1">  1        2 0.12645384E+00 0.19146985E+04</pdfrwt>
<pdfrwt beam="2">  1       -2 0.17154659E+00 0.19146985E+04</pdfrwt>
<totfact> 0.64546638E+00</totfact>
</mgrwt>
</event>
<event>
 6    1  0.2238133E-007  0.2666801E+04  0.7818608E-02  0.8345858E-01
         -2   -1    0    0    0  501 -0.00000000000E+00  0.00000000000E+00  0.18057148097E+04  0.18057148097E+04  0.00000000000E+00 0.  1.
          2   -1    0    0  501    0  0.00000000000E+00 -0.00000000000E+00 -0.98462745424E+03  0.98462745424E+03  0.00000000000E+00 0. -1.
         23    2    1    2    0    0 -0.99284272977E+03  0.69906267393E+03  0.98336426185E+03  0.15652875295E+04  0.93244143966E+02 0.  0.
         11    1    3    3    0    0 -0.44366466328E+03  0.30757341363E+03  0.49684654672E+03  0.73368673778E+03  0.00000000000E+00 0.  1.
        -11    1    3    3    0    0 -0.54917806649E+03  0.39148926030E+03  0.48651771513E+03  0.83160079172E+03  0.00000000000E+00 0. -1.
         22    1    1    2    0    0  0.99284272977E+03 -0.69906267393E+03 -0.16227690635E+03  0.12250547345E+04  0.00000000000E+00 0. -1.
<mgrwt>
<rscale>  0 0.26668006E+04</rscale>
<asrwt>0</asrwt>
<pdfrwt beam="1">  1        2 0.15148115E+00 0.26668006E+04</pdfrwt>
<pdfrwt beam="2">  1       -2 0.27780228E+00 0.26668006E+04</pdfrwt>
<totfact> 0.98462170E-01</totfact>
</mgrwt>
</event>
<event>
 6    1  0.2238133E-007  0.3499142E+04  0.7818608E-02  0.8113993E-01
          2   -1    0    0  501    0  0.00000000000E+00  0.00000000000E+00  0.15864662676E+04  0.15864662676E+04  0.00000000000E+00 0. -1.
         -2   -1    0    0    0  501 -0.00000000000E+00 -0.00000000000E+00 -0.19294450111E+04  0.19294450111E+04  0.00000000000E+00 0.  1.
         23    2    1    2    0    0  0.12747510969E+04  0.10801336301E+04 -0.68896330263E+03  0.18096333608E+04  0.91779355048E+02 0.  0.
         11    1    3    3    0    0  0.25513836331E+03  0.21419916361E+03 -0.98332522963E+02  0.34734154833E+03  0.00000000000E+00 0.  1.
        -11    1    3    3    0    0  0.10196127336E+04  0.86593446649E+03 -0.59063077966E+03  0.14622918124E+04  0.00000000000E+00 0. -1.
         22    1    1    2    0    0 -0.12747510969E+04 -0.10801336301E+04  0.34598455915E+03  0.17062779179E+04  0.00000000000E+00 0. -1.
<mgrwt>
<rscale>  0 0.34991424E+04</rscale>
<asrwt>0</asrwt>
<pdfrwt beam="1">  1        2 0.24407173E+00 0.34991424E+04</pdfrwt>
<pdfrwt beam="2">  1       -2 0.29683769E+00 0.34991424E+04</pdfrwt>
<totfact> 0.30988718E-01</totfact>
</mgrwt>
</event>
<event>
 6    1  0.2729922E-007  0.2935898E+04  0.7818608E-02  0.8262276E-01
          2   -1    0    0  501    0  0.00000000000E+00  0.00000000000E+00  0.18023805993E+04  0.18023805993E+04  0.00000000000E+00 0. -1.
         -2   -1    0    0    0  501 -0.00000000000E+00 -0.00000000000E+00 -0.11955713966E+04  0.11955713966E+04  0.00000000000E+00 0.  1.
         23    2    1    2    0    0 -0.59163930589E+03 -0.13651332137E+02 -0.10664605407E+04  0.12231125493E+04  0.91884689302E+02 0.  0.
         11    1    3    3    0    0 -0.37969031951E+03  0.74848040056E+01 -0.59641583431E+03  0.70705912655E+03  0.00000000000E+00 0.  1.
        -11    1    3    3    0    0 -0.21194898637E+03 -0.21136136143E+02 -0.47004470640E+03  0.51605342271E+03  0.00000000000E+00 0. -1.
         22    1    1    2    0    0  0.59163930589E+03  0.13651332137E+02  0.16732697434E+04  0.17748394467E+04  0.00000000000E+00 0. -1.
<mgrwt>
<rscale>  0 0.29358983E+04</rscale>
<asrwt>0</asrwt>
<pdfrwt beam="1">  1        2 0.27728932E+00 0.29358983E+04</pdfrwt>
<pdfrwt beam="2">  1       -2 0.18393406E+00 0.29358983E+04</pdfrwt>
<totfact> 0.12614536E+00</totfact>
</mgrwt>
</event>
<event>
 6    1  0.2238133E-007  0.1810813E+04  0.7818608E-02  0.8700570E-01
          1   -1    0    0  501    0  0.00000000000E+00  0.00000000000E+00  0.15089126740E+04  0.15089126740E+04  0.00000000000E+00 0. -1.
         -1   -1    0    0    0  501 -0.00000000000E+00 -0.00000000000E+00 -0.54327951197E+03  0.54327951197E+03  0.00000000000E+00 0.  1.
         23    2    1    2    0    0 -0.74098828497E+03  0.21622856669E+03 -0.47387817932E+02  0.77860279478E+03  0.90323171105E+02 0.  0.
         13    1    3    3    0    0 -0.33572712208E+03  0.14460230396E+03 -0.27621472439E+02  0.36658624163E+03  0.00000000000E+00 0.  1.
        -13    1    3    3    0    0 -0.40526116289E+03  0.71626262728E+02 -0.19766345493E+02  0.41201655315E+03  0.00000000000E+00 0. -1.
         22    1    1    2    0    0  0.74098828497E+03 -0.21622856669E+03  0.10130209800E+04  0.12735893912E+04  0.00000000000E+00 0. -1.
<mgrwt>
<rscale>  0 0.18108135E+04</rscale>
<asrwt>0</asrwt>
<pdfrwt beam="1">  1        1 0.23214041E+00 0.18108135E+04</pdfrwt>
<pdfrwt beam="2">  1       -1 0.83581464E-01 0.18108135E+04</pdfrwt>
<totfact> 0.86326315E+00</totfact>
</mgrwt>
</event>
<event>
 6    1  0.2238133E-007  0.3274808E+04  0.7818608E-02  0.8169335E-01
         -2   -1    0    0    0  501 -0.00000000000E+00  0.00000000000E+00  0.21614111101E+04  0.21614111101E+04  0.00000000000E+00 0.  1.
          2   -1    0    0  501    0  0.00000000000E+00 -0.00000000000E+00 -0.12404361740E+04  0.12404361740E+04  0.00000000000E+00 0. -1.
         23    2    1    2    0    0  0.78768340379E+03 -0.13538091711E+04  0.95218422429E+03  0.18352527494E+04  0.90848449939E+02 0.  0.
         11    1    3    3    0    0  0.31720920391E+03 -0.54880315581E+03  0.43777740922E+03  0.77036072258E+03  0.00000000000E+00 0.  1.
        -11    1    3    3    0    0  0.47047419988E+03 -0.80500601532E+03  0.51440681508E+03  0.10648920268E+04  0.00000000000E+00 0. -1.
         22    1    1    2    0    0 -0.78768340379E+03  0.13538091711E+04 -0.31209288144E+02  0.15665945347E+04  0.00000000000E+00 0. -1.
<mgrwt>
<rscale>  0 0.32748084E+04</rscale>
<asrwt>0</asrwt>
<pdfrwt beam="1">  1        2 0.19083633E+00 0.32748084E+04</pdfrwt>
<pdfrwt beam="2">  1       -2 0.33252479E+00 0.32748084E+04</pdfrwt>
<totfact> 0.30017271E-01</totfact>
</mgrwt>
</event>
<event>
 6    1  0.2238133E-007  0.7414510E+03  0.7818608E-02  0.9648859E-01
          2   -1    0    0  501    0  0.00000000000E+00  0.00000000000E+00  0.24410612840E+03  0.24410612840E+03  0.00000000000E+00 0. -1.
         -2   -1    0    0    0  501 -0.00000000000E+00 -0.00000000000E+00 -0.56302310801E+03  0.56302310801E+03  0.00000000000E+00 0.  1.
         23    2    1    2    0    0  0.34628183246E+03  0.26117321512E+00 -0.34956112756E+02  0.35930678318E+03  0.89265104704E+02 0.  0.
         13    1    3    3    0    0  0.25496500046E+03 -0.19868117646E+02 -0.59628552786E+02  0.26259752068E+03  0.00000000000E+00 0.  1.
        -13    1    3    3    0    0  0.91316831998E+02  0.20129290861E+02  0.24672440030E+02  0.96709262502E+02  0.00000000000E+00 0. -1.
         22    1    1    2    0    0 -0.34628183246E+03 -0.26117321512E+00 -0.28396086685E+03  0.44782245322E+03  0.00000000000E+00 0. -1.
<mgrwt>
<rscale>  0 0.74145099E+03</rscale>
<asrwt>0</asrwt>
<pdfrwt beam="1">  1        2 0.37554789E-01 0.74145099E+03</pdfrwt>
<pdfrwt beam="2">  1       -2 0.86618939E-01 0.74145099E+03</pdfrwt>
<totfact> 0.16096467E+02</totfact>
</mgrwt>
</event>
<event>
 6    1  0.2238133E-007  0.1522851E+04  0.7818608E-02  0.8869398E-01
          2   -1    0    0  501    0  0.00000000000E+00  0.00000000000E+00  0.15051538348E+04  0.15051538348E+04  0.00000000000E+00 0. -1.
         -2   -1    0    0    0  501 -0.00000000000E+00 -0.00000000000E+00 -0.38518915899E+03  0.38518915899E+03  0.00000000000E+00 0.  1.
         23    2    1    2    0    0 -0.13551510129E+03  0.86611677403E+01  0.14886362385E+04  0.14974586855E+04  0.88911786738E+02 0.  0.
         13    1    3    3    0    0 -0.10498019777E+03  0.21895205579E+02  0.70437486973E+03  0.71249154314E+03  0.00000000000E+00 0.  1.
        -13    1    3    3    0    0 -0.30534903526E+02 -0.13234037838E+02  0.78426136877E+03  0.78496714240E+03  0.00000000000E+00 0. -1.
         22    1    1    2    0    0  0.13551510129E+03 -0.86611677403E+01 -0.36867156271E+03  0.39288430823E+03  0.00000000000E+00 0.  1.
<mgrwt>
<rscale>  0 0.15228512E+04</rscale>
<asrwt>0</asrwt>
<pdfrwt beam="1">  1        2 0.23156213E+00 0.15228512E+04</pdfrwt>
<pdfrwt beam="2">  1       -2 0.59259871E-01 0.15228512E+04</pdfrwt>
<totfact> 0.32331599E+01</totfact>
</mgrwt>
</event>
<event>
 6    1  0.2238133E-007  0.1787364E+04  0.7818608E-02  0.8713048E-01
          2   -1    0    0  501    0  0.00000000000E+00  0.00000000000E+00  0.18390764972E+04  0.18390764972E+04  0.00000000000E+00 0. -1.
         -2   -1    0    0    0  501 -0.00000000000E+00 -0.00000000000E+00 -0.43427619039E+03  0.43427619039E+03  0.00000000000E+00 0.  1.
         23    2    1    2    0    0  0.56833212393E+03  0.60452029254E+03  0.11191635175E+04  0.13958365552E+04  0.85944882260E+02 0.  0.
         13    1    3    3    0    0  0.51575255993E+03  0.52725750156E+03  0.95156554701E+03  0.12039427587E+04  0.00000000000E+00 0.  1.
        -13    1    3    3    0    0  0.52579563998E+02  0.77262790979E+02  0.16759797045E+03  0.19189379646E+03  0.00000000000E+00 0. -1.
         22    1    1    2    0    0 -0.56833212393E+03 -0.60452029254E+03  0.28563678931E+03  0.87751613238E+03  0.00000000000E+00 0.  1.
<mgrwt>
<rscale>  0 0.17873636E+04</rscale>
<asrwt>0</asrwt>
<pdfrwt beam="1">  1        2 0.28293484E+00 0.17873636E+04</pdfrwt>
<pdfrwt beam="2">  1       -2 0.66811723E-01 0.17873636E+04</pdfrwt>
<totfact> 0.15957540E+01</totfact>
</mgrwt>
</event>
<event>
 6    1  0.2238133E-007  0.3484841E+03  0.7818608E-02  0.1063239E+00
          2   -1    0    0  501    0  0.00000000000E+00  0.00000000000E+00  0.74358438239E+03  0.74358438239E+03  0.00000000000E+00 0. -1.
         -2   -1    0    0    0  501 -0.00000000000E+00 -0.00000000000E+00 -0.40829661370E+02  0.40829661370E+02  0.00000000000E+00 0.  1.
         23    2    1    2    0    0 -0.21187549594E+02  0.33065474978E+02  0.72999287957E+03  0.73662120775E+03  0.90437611604E+02 0.  0.
         11    1    3    3    0    0 -0.44560842278E+02  0.16463820322E+02  0.18933196446E+03  0.19520071417E+03  0.00000000000E+00 0.  1.
        -11    1    3    3    0    0  0.23373292683E+02  0.16601654656E+02  0.54066091510E+03  0.54142049358E+03  0.00000000000E+00 0. -1.
         22    1    1    2    0    0  0.21187549594E+02 -0.33065474978E+02 -0.27238158545E+02  0.47792836014E+02  0.00000000000E+00 0.  1.
<mgrwt>
<rscale>  0 0.34848414E+03</rscale>
<asrwt>0</asrwt>
<pdfrwt beam="1">  1        2 0.11439759E+00 0.34848414E+03</pdfrwt>
<pdfrwt beam="2">  1       -2 0.62814869E-02 0.34848414E+03</pdfrwt>
<totfact> 0.53883719E+03</totfact>
</mgrwt>
</event>
<event>
 6    1  0.2238133E-007  0.4994039E+03  0.7818608E-02  0.1013935E+00
         -2   -1    0    0    0  501 -0.00000000000E+00  0.00000000000E+00  0.29938821297E+03  0.29938821297E+03  0.00000000000E+00 0.  1.
          2   -1    0    0  501    0  0.00000000000E+00 -0.00000000000E+00 -0.20826162501E+03  0.20826162501E+03  0.00000000000E+00 0. -1.
         23    2    1    2    0    0 -0.20734414383E+03 -0.11518192814E+03  0.43079379567E+01  0.25507123925E+03  0.93724640388E+02 0.  0.
         13    1    3    3    0    0 -0.10253214125E+03 -0.10374724713E+03  0.23967603454E+02  0.14782008420E+03  0.00000000000E+00 0. -1.
        -13    1    3    3    0    0 -0.10481200257E+03 -0.11434681010E+02 -0.19659665497E+02  0.10725115506E+03  0.00000000000E+00 0.  1.
         22    1    1    2    0    0  0.20734414383E+03  0.11518192814E+03  0.86818650005E+02  0.25257859873E+03  0.00000000000E+00 0.  1.
<mgrwt>
<rscale>  0 0.49940395E+03</rscale>
<asrwt>0</asrwt>
<pdfrwt beam="1">  1        2 0.32040250E-01 0.49940395E+03</pdfrwt>
<pdfrwt beam="2">  1       -2 0.46059725E-01 0.49940395E+03</pdfrwt>
<totfact> 0.74199149E+02</totfact>
</mgrwt>
</event>
<event>
 6    1  0.2238133E-007  0.1323158E+04  0.7818608E-02  0.9011400E-01
         -2   -1    0    0    0  501 -0.00000000000E+00  0.00000000000E+00  0.44204570172E+03  0.44204570172E+03  0.00000000000E+00 0.  1.
          2   -1    0    0  501    0  0.00000000000E+00 -0.00000000000E+00 -0.99013854442E+03  0.99013854442E+03  0.00000000000E+00 0. -1.
         23    2    1    2    0    0  0.15650138198E+02  0.43818360794E+03 -0.80761564721E+03  0.92267282610E+03  0.82657784317E+02 0.  0.
         13    1    3    3    0    0  0.72495489871E+00  0.16807606103E+03 -0.23021092674E+03  0.28503887216E+03  0.00000000000E+00 0. -1.
        -13    1    3    3    0    0  0.14925183300E+02  0.27010754690E+03 -0.57740472047E+03  0.63763395393E+03  0.00000000000E+00 0.  1.
         22    1    1    2    0    0 -0.15650138198E+02 -0.43818360794E+03  0.25952280451E+03  0.50951142004E+03  0.00000000000E+00 0.  1.
<mgrwt>
<rscale>  0 0.13231576E+04</rscale>
<asrwt>0</asrwt>
<pdfrwt beam="1">  1        2 0.15232900E+00 0.13231576E+04</pdfrwt>
<pdfrwt beam="2">  1       -2 0.68007033E-01 0.13231576E+04</pdfrwt>
<totfact> 0.49531269E+01</totfact>
</mgrwt>
</event>
<event>
 6    1  0.2238133E-007  0.2695593E+04  0.7818608E-02  0.8336436E-01
          2   -1    0    0  501    0  0.00000000000E+00  0.00000000000E+00  0.34980832580E+04  0.34980832580E+04  0.00000000000E+00 0. -1.
         -2   -1    0    0    0  501 -0.00000000000E+00 -0.00000000000E+00 -0.51930018129E+03  0.51930018129E+03  0.00000000000E+00 0.  1.
         23    2    1    2    0    0 -0.21691351824E+03 -0.14811956493E+03  0.34589393219E+04  0.34700801415E+04  0.90576354690E+02 0.  0.
         11    1    3    3    0    0 -0.59282612480E+02 -0.81221733026E+02  0.16471796490E+04  0.16502461011E+04  0.00000000000E+00 0. -1.
        -11    1    3    3    0    0 -0.15763090576E+03 -0.66897831905E+02  0.18117596729E+04  0.18198340404E+04  0.00000000000E+00 0.  1.
         22    1    1    2    0    0  0.21691351824E+03  0.14811956493E+03 -0.48015624522E+03  0.54730329775E+03  0.00000000000E+00 0.  1.
<mgrwt>
<rscale>  0 0.26955929E+04</rscale>
<asrwt>0</asrwt>
<pdfrwt beam="1">  1        2 0.53816664E+00 0.26955929E+04</pdfrwt>
<pdfrwt beam="2">  1       -2 0.79892338E-01 0.26955929E+04</pdfrwt>
<totfact> 0.99252132E-01</totfact>
</mgrwt>
</event>
<event>
 6    1  0.2238133E-007  0.2275027E+04  0.7818608E-02  0.8487833E-01
         -1   -1    0    0    0  501 -0.00000000000E+00  0.00000000000E+00  0.10864815492E+04  0.10864815492E+04  0.00000000000E+00 0.  1.
          1   -1    0    0  501    0  0.00000000000E+00 -0.00000000000E+00 -0.11909419998E+04  0.11909419998E+04  0.00000000000E+00 0. -1.
         23    2    1    2    0    0 -0.25673020166E+03 -0.11055225454E+04 -0.72422639070E+01  0.11383265950E+04  0.87432783942E+02 0.  0.
         13    1    3    3    0    0 -0.23535473168E+03 -0.10765656545E+04 -0.11745165799E+02  0.11020541761E+04  0.00000000000E+00 0. -1.
        -13    1    3    3    0    0 -0.21375469979E+02 -0.28956890884E+02  0.45029018923E+01  0.36272418888E+02  0.00000000000E+00 0.  1.
         22    1    1    2    0    0  0.25673020166E+03  0.11055225454E+04 -0.97218186645E+02  0.11390969540E+04  0.00000000000E+00 0. -1.
<mgrwt>
<rscale>  0 0.22750266E+04</rscale>
<asrwt>0</asrwt>
<pdfrwt beam="1">  1        1 0.18322185E+00 0.22750266E+04</pdfrwt>
<pdfrwt beam="2">  1       -1 0.16715101E+00 0.22750266E+04</pdfrwt>
<totfact> 0.25387508E+00</totfact>
</mgrwt>
</event>
<event>
 6    1  0.2238133E-007  0.5911485E+03  0.7818608E-02  0.9923942E-01
         -2   -1    0    0    0  501 -0.00000000000E+00  0.00000000000E+00  0.66231967727E+02  0.66231967727E+02  0.00000000000E+00 0.  1.
          2   -1    0    0  501    0  0.00000000000E+00 -0.00000000000E+00 -0.13190628166E+04  0.13190628166E+04  0.00000000000E+00 0. -1.
         23    2    1    2    0    0 -0.25840139994E+03 -0.11903399190E+03 -0.74179776596E+03  0.80040574652E+03  0.97185692188E+02 0.  0.
         11    1    3    3    0    0 -0.77365202345E+02 -0.84008613524E+02 -0.33018899821E+03  0.34938173424E+03  0.00000000000E+00 0. -1.
        -11    1    3    3    0    0 -0.18103619759E+03 -0.35025378377E+02 -0.41160876775E+03  0.45102401229E+03  0.00000000000E+00 0.  1.
         22    1    1    2    0    0  0.25840139994E+03  0.11903399190E+03 -0.51103308293E+03  0.58488903783E+03  0.00000000000E+00 0.  1.
<mgrwt>
<rscale>  0 0.59114846E+03</rscale>
<asrwt>0</asrwt>
<pdfrwt beam="1">  1        2 0.20293273E+00 0.59114846E+03</pdfrwt>
<pdfrwt beam="2">  1       -2 0.10189534E-01 0.59114846E+03</pdfrwt>
<totfact> 0.10882608E+03</totfact>
</mgrwt>
</event>
<event>
 6    1  0.2238133E-007  0.1706447E+04  0.7818608E-02  0.8757696E-01
         -2   -1    0    0    0  501 -0.00000000000E+00  0.00000000000E+00  0.21386235644E+03  0.21386235644E+03  0.00000000000E+00 0.  1.
          2   -1    0    0  501    0  0.00000000000E+00 -0.00000000000E+00 -0.34040116863E+04  0.34040116863E+04  0.00000000000E+00 0. -1.
         23    2    1    2    0    0 -0.41059463581E+03  0.72940484412E+03 -0.19060547638E+04  0.20850602131E+04  0.11752424550E+03 0.  0.
         13    1    3    3    0    0 -0.29470296073E+03  0.43215658720E+03 -0.10953520422E+04  0.12138390533E+04  0.00000000000E+00 0.  1.
        -13    1    3    3    0    0 -0.11589167508E+03  0.29724825693E+03 -0.81070272157E+03  0.87122115984E+03  0.00000000000E+00 0. -1.
         22    1    1    2    0    0  0.41059463581E+03 -0.72940484412E+03 -0.12840945661E+04  0.15328138296E+04  0.00000000000E+00 0.  1.
<mgrwt>
<rscale>  0 0.17064466E+04</rscale>
<asrwt>0</asrwt>
<pdfrwt beam="1">  1        2 0.52369415E+00 0.17064466E+04</pdfrwt>
<pdfrwt beam="2">  1       -2 0.32901898E-01 0.17064466E+04</pdfrwt>
<totfact> 0.78337407E+00</totfact>
</mgrwt>
</event>
<event>
 6    1  0.2238133E-007  0.2460378E+04  0.7818608E-02  0.8417239E-01
         -2   -1    0    0    0  501 -0.00000000000E+00  0.00000000000E+00  0.15533320747E+04  0.15533320747E+04  0.00000000000E+00 0.  1.
          2   -1    0    0  501    0  0.00000000000E+00 -0.00000000000E+00 -0.97426969535E+03  0.97426969535E+03  0.00000000000E+00 0. -1.
         23    2    1    2    0    0  0.92426336412E+03  0.30223357051E+03  0.10611193695E+04  0.14422507488E+04  0.92222603533E+02 0.  0.
         11    1    3    3    0    0  0.18204710037E+03  0.88500533148E+02  0.25897609636E+03  0.32869759598E+03  0.00000000000E+00 0. -1.
        -11    1    3    3    0    0  0.74221626375E+03  0.21373303736E+03  0.80214327318E+03  0.11135531528E+04  0.00000000000E+00 0.  1.
         22    1    1    2    0    0 -0.92426336412E+03 -0.30223357051E+03 -0.48205699023E+03  0.10853510212E+04  0.00000000000E+00 0. -1.
<mgrwt>
<rscale>  0 0.24603775E+04</rscale>
<asrwt>0</asrwt>
<pdfrwt beam="1">  1        2 0.14988765E+00 0.24603775E+04</pdfrwt>
<pdfrwt beam="2">  1       -2 0.23897416E+00 0.24603775E+04</pdfrwt>
<totfact> 0.17601347E+00</totfact>
</mgrwt>
</event>
<event>
 6    1  0.2238133E-007  0.3568350E+04  0.7818608E-02  0.8097780E-01
          2   -1    0    0  501    0  0.00000000000E+00  0.00000000000E+00  0.27380557559E+04  0.27380557559E+04  0.00000000000E+00 0. -1.
         -2   -1    0    0    0  501 -0.00000000000E+00 -0.00000000000E+00 -0.11626058982E+04  0.11626058982E+04  0.00000000000E+00 0.  1.
         23    2    1    2    0    0 -0.55577352795E+03  0.11814292897E+04 -0.53912150553E+03  0.14154913519E+04  0.91128417850E+02 0.  0.
         13    1    3    3    0    0 -0.30904341320E+03  0.67176754003E+03 -0.25678265482E+03  0.78276228250E+03  0.00000000000E+00 0. -1.
        -13    1    3    3    0    0 -0.24673011475E+03  0.50966174967E+03 -0.28233885071E+03  0.63272906937E+03  0.00000000000E+00 0.  1.
         22    1    1    2    0    0  0.55577352795E+03 -0.11814292897E+04  0.21145713632E+04  0.24851703022E+04  0.00000000000E+00 0. -1.
<mgrwt>
<rscale>  0 0.35683496E+04</rscale>
<asrwt>0</asrwt>
<pdfrwt beam="1">  1        2 0.42123935E+00 0.35683496E+04</pdfrwt>
<pdfrwt beam="2">  1       -2 0.17886245E+00 0.35683496E+04</pdfrwt>
<totfact> 0.38009643E-01</totfact>
</mgrwt>
</event>
<event>
 6    1  0.2238133E-007  0.2032774E+04  0.7818608E-02  0.8591449E-01
         -2   -1    0    0    0  501 -0.00000000000E+00  0.00000000000E+00  0.80939761844E+03  0.80939761844E+03  0.00000000000E+00 0.  1.
          2   -1    0    0  501    0  0.00000000000E+00 -0.00000000000E+00 -0.12763099220E+04  0.12763099220E+04  0.00000000000E+00 0. -1.
         23    2    1    2    0    0  0.32866765248E+03 -0.94594120552E+03 -0.65484529590E+02  0.10068324560E+04  0.81216874745E+02 0.  0.
         13    1    3    3    0    0  0.23217905559E+03 -0.63697887550E+03 -0.80918434395E+02  0.68278619985E+03  0.00000000000E+00 0. -1.
        -13    1    3    3    0    0  0.96488596897E+02 -0.30896233002E+03  0.15433904805E+02  0.32404625615E+03  0.00000000000E+00 0.  1.
         22    1    1    2    0    0 -0.32866765248E+03  0.94594120552E+03 -0.40142777394E+03  0.10788750844E+04  0.00000000000E+00 0.  1.
<mgrwt>
<rscale>  0 0.20327737E+04</rscale>
<asrwt>0</asrwt>
<pdfrwt beam="1">  1        2 0.19635537E+00 0.20327737E+04</pdfrwt>
<pdfrwt beam="2">  1       -2 0.12452271E+00 0.20327737E+04</pdfrwt>
<totfact> 0.76575398E+00</totfact>
</mgrwt>
</event>
<event>
 6    1  0.2238133E-007  0.2821394E+04  0.7818608E-02  0.8296657E-01
         -2   -1    0    0    0  501 -0.00000000000E+00  0.00000000000E+00  0.16441109533E+04  0.16441109533E+04  0.00000000000E+00 0.  1.
          2   -1    0    0  501    0  0.00000000000E+00 -0.00000000000E+00 -0.12104207204E+04  0.12104207204E+04  0.00000000000E+00 0. -1.
         23    2    1    2    0    0 -0.49219992658E+03 -0.79110353480E+03  0.12867502727E+04  0.15912751669E+04  0.91240462404E+02 0.  0.
         13    1    3    3    0    0 -0.27828067963E+03 -0.36497688271E+03  0.65456656925E+03  0.79944083905E+03  0.00000000000E+00 0. -1.
        -13    1    3    3    0    0 -0.21391924695E+03 -0.42612665209E+03  0.63218370349E+03  0.79183432787E+03  0.00000000000E+00 0.  1.
         22    1    1    2    0    0  0.49219992658E+03  0.79110353480E+03 -0.85306003977E+03  0.12632565068E+04  0.00000000000E+00 0. -1.
<mgrwt>
<rscale>  0 0.28213940E+04</rscale>
<asrwt>0</asrwt>
<pdfrwt beam="1">  1        2 0.18621857E+00 0.28213940E+04</pdfrwt>
<pdfrwt beam="2">  1       -2 0.25294015E+00 0.28213940E+04</pdfrwt>
<totfact> 0.99970334E-01</totfact>
</mgrwt>
</event>
<event>
 6    1  0.2238133E-007  0.2292566E+04  0.7818608E-02  0.8480858E-01
         -2   -1    0    0    0  501 -0.00000000000E+00  0.00000000000E+00  0.39427389690E+03  0.39427389690E+03  0.00000000000E+00 0.  1.
          2   -1    0    0  501    0  0.00000000000E+00 -0.00000000000E+00 -0.33326195869E+04  0.33326195869E+04  0.00000000000E+00 0. -1.
         23    2    1    2    0    0 -0.31779352972E+03 -0.46384228958E+03 -0.30919594716E+04  0.31440216360E+04  0.92283672611E+02 0.  0.
         11    1    3    3    0    0 -0.93545214376E+02 -0.10951274412E+03 -0.60122222292E+03  0.61823289268E+03  0.00000000000E+00 0. -1.
        -11    1    3    3    0    0 -0.22424831535E+03 -0.35432954545E+03 -0.24907372487E+04  0.25257887433E+04  0.00000000000E+00 0.  1.
         22    1    1    2    0    0  0.31779352972E+03  0.46384228958E+03  0.15361378159E+03  0.58287184786E+03  0.00000000000E+00 0.  1.
<mgrwt>
<rscale>  0 0.22925662E+04</rscale>
<asrwt>0</asrwt>
<pdfrwt beam="1">  1        2 0.51271072E+00 0.22925662E+04</pdfrwt>
<pdfrwt beam="2">  1       -2 0.60657521E-01 0.22925662E+04</pdfrwt>
<totfact> 0.24365118E+00</totfact>
</mgrwt>
</event>
<event>
 6    1  0.2238133E-007  0.1051208E+04  0.7818608E-02  0.9254098E-01
         -2   -1    0    0    0  501 -0.00000000000E+00  0.00000000000E+00  0.96116378982E+02  0.96116378982E+02  0.00000000000E+00 0.  1.
          2   -1    0    0  501    0  0.00000000000E+00 -0.00000000000E+00 -0.28742192496E+04  0.28742192496E+04  0.00000000000E+00 0. -1.
         23    2    1    2    0    0  0.13582110162E+03 -0.44771749361E+03 -0.20511900295E+04  0.21058701265E+04  0.91706743305E+02 0.  0.
         13    1    3    3    0    0  0.12769723363E+03 -0.40411774360E+03 -0.19477076854E+04  0.19932844659E+04  0.00000000000E+00 0. -1.
        -13    1    3    3    0    0  0.81238679937E+01 -0.43599750012E+02 -0.10348234409E+03  0.11258566059E+03  0.00000000000E+00 0.  1.
         22    1    1    2    0    0 -0.13582110162E+03  0.44771749361E+03 -0.72691284110E+03  0.86446550208E+03  0.00000000000E+00 0.  1.
<mgrwt>
<rscale>  0 0.10512080E+04</rscale>
<asrwt>0</asrwt>
<pdfrwt beam="1">  1        2 0.44218759E+00 0.10512080E+04</pdfrwt>
<pdfrwt beam="2">  1       -2 0.14787135E-01 0.10512080E+04</pdfrwt>
<totfact> 0.76007681E+01</totfact>
</mgrwt>
</event>
<event>
 6    1  0.2238133E-007  0.1001534E+04  0.7818608E-02  0.9306864E-01
          2   -1    0    0  501    0  0.00000000000E+00  0.00000000000E+00  0.23489937575E+04  0.23489937575E+04  0.00000000000E+00 0. -1.
         -2   -1    0    0    0  501 -0.00000000000E+00 -0.00000000000E+00 -0.10675525893E+03  0.10675525893E+03  0.00000000000E+00 0.  1.
         23    2    1    2    0    0 -0.11183282433E+03 -0.35823812553E+03  0.33352128112E+03  0.51048745268E+03  0.92303083381E+02 0.  0.
         11    1    3    3    0    0 -0.28031796042E+02 -0.13582520648E+03  0.18122526787E+03  0.22820356268E+03  0.00000000000E+00 0. -1.
        -11    1    3    3    0    0 -0.83801028285E+02 -0.22241291905E+03  0.15229601325E+03  0.28228389000E+03  0.00000000000E+00 0.  1.
         22    1    1    2    0    0  0.11183282433E+03  0.35823812553E+03  0.19087172175E+04  0.19452615638E+04  0.00000000000E+00 0. -1.
<mgrwt>
<rscale>  0 0.10015337E+04</rscale>
<asrwt>0</asrwt>
<pdfrwt beam="1">  1        2 0.36138362E+00 0.10015337E+04</pdfrwt>
<pdfrwt beam="2">  1       -2 0.16423888E-01 0.10015337E+04</pdfrwt>
<totfact> 0.12889957E+02</totfact>
</mgrwt>
</event>
<event>
 6    1  0.2238133E-007  0.3330673E+04  0.7818608E-02  0.8155134E-01
          2   -1    0    0  501    0  0.00000000000E+00  0.00000000000E+00  0.28606672622E+04  0.28606672622E+04  0.00000000000E+00 0. -1.
         -2   -1    0    0    0  501 -0.00000000000E+00 -0.00000000000E+00 -0.96947482596E+03  0.96947482596E+03  0.00000000000E+00 0.  1.
         23    2    1    2    0    0 -0.56082293179E+02 -0.77951272759E+03  0.26358040841E+04  0.27506830467E+04  0.89491552483E+02 0.  0.
         11    1    3    3    0    0 -0.62119550701E+02 -0.57034749530E+03  0.20431432779E+04  0.21221662419E+04  0.00000000000E+00 0.  1.
        -11    1    3    3    0    0  0.60372575211E+01 -0.20916523230E+03  0.59266080614E+03  0.62851680488E+03  0.00000000000E+00 0. -1.
         22    1    1    2    0    0  0.56082293179E+02  0.77951272759E+03 -0.74461164781E+03  0.10794590414E+04  0.00000000000E+00 0.  1.
<mgrwt>
<rscale>  0 0.33306725E+04</rscale>
<asrwt>0</asrwt>
<pdfrwt beam="1">  1        2 0.44010265E+00 0.33306725E+04</pdfrwt>
<pdfrwt beam="2">  1       -2 0.14914997E+00 0.33306725E+04</pdfrwt>
<totfact> 0.53792997E-01</totfact>
</mgrwt>
</event>
<event>
 6    1  0.2238133E-007  0.1294981E+04  0.7818608E-02  0.9033555E-01
          1   -1    0    0  501    0  0.00000000000E+00  0.00000000000E+00  0.16096039392E+04  0.16096039392E+04  0.00000000000E+00 0. -1.
         -1   -1    0    0    0  501 -0.00000000000E+00 -0.00000000000E+00 -0.26046386855E+03  0.26046386855E+03  0.00000000000E+00 0.  1.
         23    2    1    2    0    0 -0.26228577273E+03  0.43609850975E+03  0.12486035928E+04  0.13513353910E+04  0.90114761612E+02 0.  0.
         11    1    3    3    0    0 -0.16767731987E+03  0.19809135570E+03  0.58312325680E+03  0.63827000667E+03  0.00000000000E+00 0.  1.
        -11    1    3    3    0    0 -0.94608452858E+02  0.23800715406E+03  0.66548033600E+03  0.71306538434E+03  0.00000000000E+00 0. -1.
         22    1    1    2    0    0  0.26228577273E+03 -0.43609850975E+03  0.10053647782E+03  0.51873241672E+03  0.00000000000E+00 0.  1.
<mgrwt>
<rscale>  0 0.12949806E+04</rscale>
<asrwt>0</asrwt>
<pdfrwt beam="1">  1        1 0.24763137E+00 0.12949806E+04</pdfrwt>
<pdfrwt beam="2">  1       -1 0.40071365E-01 0.12949806E+04</pdfrwt>
<totfact> 0.32795658E+01</totfact>
</mgrwt>
</event>
<event>
 6    1  0.2238133E-007  0.1159073E+04  0.7818608E-02  0.9149454E-01
          2   -1    0    0  501    0  0.00000000000E+00  0.00000000000E+00  0.20585089424E+04  0.20585089424E+04  0.00000000000E+00 0. -1.
         -2   -1    0    0    0  501 -0.00000000000E+00 -0.00000000000E+00 -0.16315822575E+03  0.16315822575E+03  0.00000000000E+00 0.  1.
         23    2    1    2    0    0  0.12624003834E+03 -0.35580604494E+03  0.17873503491E+04  0.18289859128E+04  0.89630964981E+02 0.  0.
         11    1    3    3    0    0  0.10878988625E+03 -0.27221769580E+03  0.11907008981E+04  0.12262570457E+04  0.00000000000E+00 0.  1.
        -11    1    3    3    0    0  0.17450152096E+02 -0.83588349137E+02  0.59664945099E+03  0.60272886714E+03  0.00000000000E+00 0. -1.
         22    1    1    2    0    0 -0.12624003834E+03  0.35580604494E+03  0.10800036752E+03  0.39268125532E+03  0.00000000000E+00 0.  1.
<mgrwt>
<rscale>  0 0.11590732E+04</rscale>
<asrwt>0</asrwt>
<pdfrwt beam="1">  1        2 0.31669367E+00 0.11590732E+04</pdfrwt>
<pdfrwt beam="2">  1       -2 0.25101267E-01 0.11590732E+04</pdfrwt>
<totfact> 0.87508899E+01</totfact>
</mgrwt>
</event>
<event>
 6    1  0.2238133E-007  0.4204818E+04  0.7818608E-02  0.7964456E-01
          2   -1    0    0  501    0  0.00000000000E+00  0.00000000000E+00  0.29815064550E+04  0.29815064550E+04  0.00000000000E+00 0. -1.
         -2   -1    0    0    0  501 -0.00000000000E+00 -0.00000000000E+00 -0.14825135582E+04  0.14825135582E+04  0.00000000000E+00 0.  1.
         23    2    1    2    0    0 -0.98272084299E+03 -0.11328247225E+04 -0.81280608280E+03  0.17083990978E+04  0.94560255877E+02 0.  0.
         13    1    3    3    0    0 -0.44485255558E+03 -0.58192990439E+03 -0.38094198420E+03  0.82562279835E+03  0.00000000000E+00 0. -1.
        -13    1    3    3    0    0 -0.53786828742E+03 -0.55089481814E+03 -0.43186409859E+03  0.88277629948E+03  0.00000000000E+00 0.  1.
         22    1    1    2    0    0  0.98272084299E+03  0.11328247225E+04  0.23117989796E+04  0.27556209154E+04  0.00000000000E+00 0. -1.
<mgrwt>
<rscale>  0 0.42048181E+04</rscale>
<asrwt>0</asrwt>
<pdfrwt beam="1">  1        2 0.45869330E+00 0.42048181E+04</pdfrwt>
<pdfrwt beam="2">  1       -2 0.22807901E+00 0.42048181E+04</pdfrwt>
<totfact> 0.12190721E-01</totfact>
</mgrwt>
</event>
<event>
 6    1  0.2238133E-007  0.3225342E+04  0.7818608E-02  0.8182156E-01
         -2   -1    0    0    0  501 -0.00000000000E+00  0.00000000000E+00  0.79042693539E+03  0.79042693539E+03  0.00000000000E+00 0.  1.
          2   -1    0    0  501    0  0.00000000000E+00 -0.00000000000E+00 -0.32902569300E+04  0.32902569300E+04  0.00000000000E+00 0. -1.
         23    2    1    2    0    0  0.62077965787E+03  0.11881805955E+04 -0.23820864301E+04  0.27349483572E+04  0.92012199581E+02 0.  0.
         13    1    3    3    0    0  0.53875703106E+03  0.10210678190E+04 -0.19831590982E+04  0.22947240876E+04  0.00000000000E+00 0.  1.
        -13    1    3    3    0    0  0.82022626803E+02  0.16711277644E+03 -0.39892733193E+03  0.44022426956E+03  0.00000000000E+00 0. -1.
         22    1    1    2    0    0 -0.62077965787E+03 -0.11881805955E+04 -0.11774356450E+03  0.13457355082E+04  0.00000000000E+00 0. -1.
<mgrwt>
<rscale>  0 0.32253420E+04</rscale>
<asrwt>0</asrwt>
<pdfrwt beam="1">  1        2 0.50619338E+00 0.32253420E+04</pdfrwt>
<pdfrwt beam="2">  1       -2 0.12160414E+00 0.32253420E+04</pdfrwt>
<totfact> 0.48755241E-01</totfact>
</mgrwt>
</event>
<event>
 6    1  0.2238133E-007  0.4873736E+04  0.7818608E-02  0.7848285E-01
         -2   -1    0    0    0  501 -0.00000000000E+00  0.00000000000E+00  0.14420590326E+04  0.14420590326E+04  0.00000000000E+00 0.  1.
          2   -1    0    0  501    0  0.00000000000E+00 -0.00000000000E+00 -0.41179494270E+04  0.41179494270E+04  0.00000000000E+00 0. -1.
         23    2    1    2    0    0 -0.45592687339E+03 -0.23926676055E+04 -0.13778146715E+04  0.27999852411E+04  0.93896203551E+02 0.  0.
         13    1    3    3    0    0 -0.38269379000E+03 -0.17925029191E+04 -0.10321924138E+04  0.21035547130E+04  0.00000000000E+00 0.  1.
        -13    1    3    3    0    0 -0.73233083392E+02 -0.60016468641E+03 -0.34562225779E+03  0.69643052804E+03  0.00000000000E+00 0. -1.
         22    1    1    2    0    0  0.45592687339E+03  0.23926676055E+04 -0.12980757228E+04  0.27600232184E+04  0.00000000000E+00 0. -1.
<mgrwt>
<rscale>  0 0.48737362E+04</rscale>
<asrwt>0</asrwt>
<pdfrwt beam="1">  1        2 0.63353069E+00 0.48737362E+04</pdfrwt>
<pdfrwt beam="2">  1       -2 0.22185523E+00 0.48737362E+04</pdfrwt>
<totfact> 0.19230133E-02</totfact>
</mgrwt>
</event>
<event>
 6    1  0.2238133E-007  0.1625234E+04  0.7818608E-02  0.8805194E-01
          2   -1    0    0  501    0  0.00000000000E+00  0.00000000000E+00  0.16422072512E+04  0.16422072512E+04  0.00000000000E+00 0. -1.
         -2   -1    0    0    0  501 -0.00000000000E+00 -0.00000000000E+00 -0.40210916553E+03  0.40210916553E+03  0.00000000000E+00 0.  1.
         23    2    1    2    0    0 -0.35265410636E+03  0.54622330729E+03  0.12299483965E+04  0.13940642838E+04  0.88979487413E+02 0.  0.
         13    1    3    3    0    0 -0.85386944483E+02  0.17579232823E+03  0.44219589798E+03  0.48345742847E+03  0.00000000000E+00 0. -1.
        -13    1    3    3    0    0 -0.26726716188E+03  0.37043097906E+03  0.78775249849E+03  0.91060685532E+03  0.00000000000E+00 0.  1.
         22    1    1    2    0    0  0.35265410636E+03 -0.54622330729E+03  0.10149689163E+02  0.65025213290E+03  0.00000000000E+00 0.  1.
<mgrwt>
<rscale>  0 0.16252342E+04</rscale>
<asrwt>0</asrwt>
<pdfrwt beam="1">  1        2 0.25264727E+00 0.16252342E+04</pdfrwt>
<pdfrwt beam="2">  1       -2 0.61862949E-01 0.16252342E+04</pdfrwt>
<totfact> 0.24532038E+01</totfact>
</mgrwt>
</event>
<event>
 6    1  0.2238133E-007  0.1758236E+04  0.7818608E-02  0.8728830E-01
         -2   -1    0    0    0  501 -0.00000000000E+00  0.00000000000E+00  0.16391405552E+04  0.16391405552E+04  0.00000000000E+00 0.  1.
          2   -1    0    0  501    0  0.00000000000E+00 -0.00000000000E+00 -0.47149616764E+03  0.47149616764E+03  0.00000000000E+00 0. -1.
         23    2    1    2    0    0  0.93297787048E+01  0.23629413257E+03  0.15990252425E+04  0.16186901772E+04  0.85756642102E+02 0.  0.
         13    1    3    3    0    0  0.26506735720E+01  0.12755853876E+03  0.58050477405E+03  0.59436015982E+03  0.00000000000E+00 0. -1.
        -13    1    3    3    0    0  0.66791051328E+01  0.10873559381E+03  0.10185204684E+04  0.10243300173E+04  0.00000000000E+00 0.  1.
         22    1    1    2    0    0 -0.93297787048E+01 -0.23629413257E+03 -0.43138085490E+03  0.49194654571E+03  0.00000000000E+00 0. -1.
<mgrwt>
<rscale>  0 0.17582360E+04</rscale>
<asrwt>0</asrwt>
<pdfrwt beam="1">  1        2 0.72537873E-01 0.17582360E+04</pdfrwt>
<pdfrwt beam="2">  1       -2 0.25217547E+00 0.17582360E+04</pdfrwt>
<totfact> 0.38906470E+00</totfact>
</mgrwt>
</event>
<event>
 6    1  0.2238133E-007  0.3592928E+04  0.7818608E-02  0.8092114E-01
         -2   -1    0    0    0  501 -0.00000000000E+00  0.00000000000E+00  0.11850148269E+04  0.11850148269E+04  0.00000000000E+00 0.  1.
          2   -1    0    0  501    0  0.00000000000E+00 -0.00000000000E+00 -0.27234112970E+04  0.27234112970E+04  0.00000000000E+00 0. -1.
         23    2    1    2    0    0  0.17394512658E+04 -0.39423253314E+03 -0.99221388821E+03  0.20431043262E+04  0.93149832507E+02 0.  0.
         13    1    3    3    0    0  0.13350168135E+04 -0.26281824053E+03 -0.76546412735E+03  0.15611786093E+04  0.00000000000E+00 0.  1.
        -13    1    3    3    0    0  0.40443445228E+03 -0.13141429260E+03 -0.22674976086E+03  0.48192571683E+03  0.00000000000E+00 0. -1.
         22    1    1    2    0    0 -0.17394512658E+04  0.39423253314E+03 -0.54618258192E+03  0.18653217978E+04  0.00000000000E+00 0. -1.
<mgrwt>
<rscale>  0 0.35929279E+04</rscale>
<asrwt>0</asrwt>
<pdfrwt beam="1">  1        2 0.41898635E+00 0.35929279E+04</pdfrwt>
<pdfrwt beam="2">  1       -2 0.18230997E+00 0.35929279E+04</pdfrwt>
<totfact> 0.36644280E-01</totfact>
</mgrwt>
</event>
<event>
 6    1  0.2238133E-007  0.1898106E+04  0.7818608E-02  0.8655800E-01
          1   -1    0    0  501    0  0.00000000000E+00  0.00000000000E+00  0.50323131476E+03  0.50323131476E+03  0.00000000000E+00 0. -1.
         -1   -1    0    0    0  501 -0.00000000000E+00 -0.00000000000E+00 -0.17898368596E+04  0.17898368596E+04  0.00000000000E+00 0.  1.
         23    2    1    2    0    0  0.19555255864E+03 -0.41814858876E+03 -0.16435535442E+04  0.17095436079E+04  0.90454680825E+02 0.  0.
         13    1    3    3    0    0  0.87193746565E+02 -0.10132929263E+03 -0.54071662071E+03  0.55699626471E+03  0.00000000000E+00 0. -1.
        -13    1    3    3    0    0  0.10835881207E+03 -0.31681929613E+03 -0.11028369235E+04  0.11525473432E+04  0.00000000000E+00 0.  1.
         22    1    1    2    0    0 -0.19555255864E+03  0.41814858876E+03  0.35694799931E+03  0.58352456648E+03  0.00000000000E+00 0. -1.
<mgrwt>
<rscale>  0 0.18981064E+04</rscale>
<asrwt>0</asrwt>
<pdfrwt beam="1">  1        1 0.77420201E-01 0.18981064E+04</pdfrwt>
<pdfrwt beam="2">  1       -1 0.27535952E+00 0.18981064E+04</pdfrwt>
<totfact> 0.19614360E+00</totfact>
</mgrwt>
</event>
<event>
 6    1  0.2238133E-007  0.1741341E+04  0.7818608E-02  0.8738131E-01
         -2   -1    0    0    0  501 -0.00000000000E+00  0.00000000000E+00  0.10853479321E+04  0.10853479321E+04  0.00000000000E+00 0.  1.
          2   -1    0    0  501    0  0.00000000000E+00 -0.00000000000E+00 -0.69845507100E+03  0.69845507100E+03  0.00000000000E+00 0. -1.
         23    2    1    2    0    0 -0.50271542165E+03 -0.70516890581E+03  0.12993699626E+03  0.88046901321E+03  0.91411593072E+02 0.  0.
         11    1    3    3    0    0 -0.45217944784E+03 -0.64198503644E+03  0.90445319057E+02  0.79043747116E+03  0.00000000000E+00 0.  1.
        -11    1    3    3    0    0 -0.50535973807E+02 -0.63183869364E+02  0.39491677208E+02  0.90031542057E+02  0.00000000000E+00 0. -1.
         22    1    1    2    0    0  0.50271542165E+03  0.70516890581E+03  0.25695586488E+03  0.90333398994E+03  0.00000000000E+00 0.  1.
<mgrwt>
<rscale>  0 0.17413406E+04</rscale>
<asrwt>0</asrwt>
<pdfrwt beam="1">  1        2 0.10745463E+00 0.17413406E+04</pdfrwt>
<pdfrwt beam="2">  1       -2 0.16697660E+00 0.17413406E+04</pdfrwt>
<totfact> 0.87244605E+00</totfact>
</mgrwt>
</event>
<event>
 6    1  0.2238133E-007  0.1747680E+04  0.7818608E-02  0.8734628E-01
         -2   -1    0    0    0  501 -0.00000000000E+00  0.00000000000E+00  0.18773763368E+04  0.18773763368E+04  0.00000000000E+00 0.  1.
          2   -1    0    0  501    0  0.00000000000E+00 -0.00000000000E+00 -0.40673608177E+03  0.40673608177E+03  0.00000000000E+00 0. -1.
         23    2    1    2    0    0  0.85157032041E+03 -0.11895320030E+03  0.92230686215E+03  0.12643127401E+04  0.92276120305E+02 0.  0.
         13    1    3    3    0    0  0.75090142051E+03 -0.74077152296E+02  0.80264590678E+03  0.11016264428E+04  0.00000000000E+00 0.  1.
        -13    1    3    3    0    0  0.10066889989E+03 -0.44876048007E+02  0.11966095536E+03  0.16268629730E+03  0.00000000000E+00 0. -1.
         22    1    1    2    0    0 -0.85157032041E+03  0.11895320030E+03  0.54833339293E+03  0.10197996785E+04  0.00000000000E+00 0.  1.
<mgrwt>
<rscale>  0 0.17476804E+04</rscale>
<asrwt>0</asrwt>
<pdfrwt beam="1">  1        2 0.62574783E-01 0.17476804E+04</pdfrwt>
<pdfrwt beam="2">  1       -2 0.28882712E+00 0.17476804E+04</pdfrwt>
<totfact> 0.27557604E+00</totfact>
</mgrwt>
</event>
<event>
 6    1  0.2238133E-007  0.2520923E+04  0.7818608E-02  0.8395569E-01
          2   -1    0    0  501    0  0.00000000000E+00  0.00000000000E+00  0.15252589874E+04  0.15252589874E+04  0.00000000000E+00 0. -1.
         -2   -1    0    0    0  501 -0.00000000000E+00 -0.00000000000E+00 -0.10416347231E+04  0.10416347231E+04  0.00000000000E+00 0.  1.
         23    2    1    2    0    0  0.15646779378E+03 -0.12349313797E+04  0.43310837679E+03  0.13210648547E+04  0.89954440033E+02 0.  0.
         11    1    3    3    0    0  0.90853217057E+02 -0.44641289401E+03  0.12998862078E+03  0.47374657837E+03  0.00000000000E+00 0.  1.
        -11    1    3    3    0    0  0.65614576725E+02 -0.78851848568E+03  0.30311975601E+03  0.84731827634E+03  0.00000000000E+00 0. -1.
         22    1    1    2    0    0 -0.15646779378E+03  0.12349313797E+04  0.50515887519E+02  0.12458288558E+04  0.00000000000E+00 0.  1.
<mgrwt>
<rscale>  0 0.25209226E+04</rscale>
<asrwt>0</asrwt>
<pdfrwt beam="1">  1        2 0.23465523E+00 0.25209226E+04</pdfrwt>
<pdfrwt beam="2">  1       -2 0.16025150E+00 0.25209226E+04</pdfrwt>
<totfact> 0.27435819E+00</totfact>
</mgrwt>
</event>
<event>
 6    1  0.2238133E-007  0.1644747E+04  0.7818608E-02  0.8793520E-01
         -2   -1    0    0    0  501 -0.00000000000E+00  0.00000000000E+00  0.27071312186E+03  0.27071312186E+03  0.00000000000E+00 0.  1.
          2   -1    0    0  501    0  0.00000000000E+00 -0.00000000000E+00 -0.24982090833E+04  0.24982090833E+04  0.00000000000E+00 0. -1.
         23    2    1    2    0    0  0.71770829269E+03 -0.13146838068E+03 -0.48770750200E+03  0.88232394052E+03  0.90817399172E+02 0.  0.
         13    1    3    3    0    0  0.28531791286E+03 -0.89703403720E+02 -0.16884313600E+03  0.34345453354E+03  0.00000000000E+00 0.  1.
        -13    1    3    3    0    0  0.43239037983E+03 -0.41764976963E+02 -0.31886436599E+03  0.53886940698E+03  0.00000000000E+00 0. -1.
         22    1    1    2    0    0 -0.71770829269E+03  0.13146838068E+03 -0.17397884594E+04  0.18865982646E+04  0.00000000000E+00 0. -1.
<mgrwt>
<rscale>  0 0.16447468E+04</rscale>
<asrwt>0</asrwt>
<pdfrwt beam="1">  1        2 0.38433987E+00 0.16447468E+04</pdfrwt>
<pdfrwt beam="2">  1       -2 0.41648172E-01 0.16447468E+04</pdfrwt>
<totfact> 0.18250528E+01</totfact>
</mgrwt>
</event>
<event>
 6    1  0.2238133E-007  0.6505456E+03  0.7818608E-02  0.9805756E-01
          2   -1    0    0  501    0  0.00000000000E+00  0.00000000000E+00  0.61669839338E+03  0.61669839338E+03  0.00000000000E+00 0. -1.
         -2   -1    0    0    0  501 -0.00000000000E+00 -0.00000000000E+00 -0.17156262288E+03  0.17156262288E+03  0.00000000000E+00 0.  1.
         23    2    1    2    0    0 -0.19301406813E+03  0.24959543327E+03  0.28546607174E+03  0.43464155482E+03  0.88713540440E+02 0.  0.
         11    1    3    3    0    0 -0.86670649631E+02  0.86295635759E+02  0.16554699786E+03  0.20582649674E+03  0.00000000000E+00 0. -1.
        -11    1    3    3    0    0 -0.10634341850E+03  0.16329979752E+03  0.11991907387E+03  0.22881505808E+03  0.00000000000E+00 0.  1.
         22    1    1    2    0    0  0.19301406813E+03 -0.24959543327E+03  0.15966969877E+03  0.35361946144E+03  0.00000000000E+00 0. -1.
<mgrwt>
<rscale>  0 0.65054560E+03</rscale>
<asrwt>0</asrwt>
<pdfrwt beam="1">  1        2 0.94876674E-01 0.65054560E+03</pdfrwt>
<pdfrwt beam="2">  1       -2 0.26394250E-01 0.65054560E+03</pdfrwt>
<totfact> 0.62651693E+02</totfact>
</mgrwt>
</event>
<event>
 6    1  0.2238133E-007  0.3545257E+04  0.7818608E-02  0.8103148E-01
         -2   -1    0    0    0  501 -0.00000000000E+00  0.00000000000E+00  0.15852971284E+04  0.15852971284E+04  0.00000000000E+00 0.  1.
          2   -1    0    0  501    0  0.00000000000E+00 -0.00000000000E+00 -0.19820966318E+04  0.19820966318E+04  0.00000000000E+00 0. -1.
         23    2    1    2    0    0 -0.17544087944E+04  0.23020797471E+03 -0.28341966192E+03  0.17943170789E+04  0.91110622500E+02 0.  0.
         11    1    3    3    0    0 -0.57950183986E+03  0.11331715864E+03 -0.11667143245E+03  0.60189316659E+03  0.00000000000E+00 0. -1.
        -11    1    3    3    0    0 -0.11749069545E+04  0.11689081607E+03 -0.16674822947E+03  0.11924239123E+04  0.00000000000E+00 0.  1.
         22    1    1    2    0    0  0.17544087944E+04 -0.23020797471E+03 -0.11337984154E+03  0.17730766813E+04  0.00000000000E+00 0.  1.
<mgrwt>
<rscale>  0 0.35452572E+04</rscale>
<asrwt>0</asrwt>
<pdfrwt beam="1">  1        2 0.30493794E+00 0.35452572E+04</pdfrwt>
<pdfrwt beam="2">  1       -2 0.24389187E+00 0.35452572E+04</pdfrwt>
<totfact> 0.39225354E-01</totfact>
</mgrwt>
</event>
<event>
 6    1  0.2238133E-007  0.1584364E+04  0.7818608E-02  0.8830212E-01
         -1   -1    0    0    0  501 -0.00000000000E+00  0.00000000000E+00  0.33778091797E+03  0.33778091797E+03  0.00000000000E+00 0.  1.
          1   -1    0    0  501    0  0.00000000000E+00 -0.00000000000E+00 -0.18578668003E+04  0.18578668003E+04  0.00000000000E+00 0. -1.
         23    2    1    2    0    0 -0.41888508407E+03 -0.46147324293E+03 -0.90953405465E+02  0.63653197399E+03  0.92076948014E+02 0.  0.
         13    1    3    3    0    0 -0.28243945252E+03 -0.28729300464E+03 -0.99947206243E+02  0.41508885662E+03  0.00000000000E+00 0. -1.
        -13    1    3    3    0    0 -0.13644563155E+03 -0.17418023829E+03  0.89938007784E+01  0.22144311737E+03  0.00000000000E+00 0.  1.
         22    1    1    2    0    0  0.41888508407E+03  0.46147324293E+03 -0.14291324768E+04  0.15591157442E+04  0.00000000000E+00 0. -1.
<mgrwt>
<rscale>  0 0.15843635E+04</rscale>
<asrwt>0</asrwt>
<pdfrwt beam="1">  1        1 0.28582566E+00 0.15843635E+04</pdfrwt>
<pdfrwt beam="2">  1       -1 0.51966295E-01 0.15843635E+04</pdfrwt>
<totfact> 0.13332205E+01</totfact>
</mgrwt>
</event>
<event>
 6    1  0.2238133E-007  0.1207651E+04  0.7818608E-02  0.9106186E-01
         -2   -1    0    0    0  501 -0.00000000000E+00  0.00000000000E+00  0.15469048023E+03  0.15469048023E+03  0.00000000000E+00 0.  1.
          2   -1    0    0  501    0  0.00000000000E+00 -0.00000000000E+00 -0.23569971335E+04  0.23569971335E+04  0.00000000000E+00 0. -1.
         23    2    1    2    0    0  0.62477490767E+02  0.45890515448E+03 -0.31295490943E+03  0.56639910308E+03  0.91486561724E+02 0.  0.
         13    1    3    3    0    0  0.80941407448E+02  0.34280767803E+03 -0.20966932206E+03  0.40991443030E+03  0.00000000000E+00 0. -1.
        -13    1    3    3    0    0 -0.18463916681E+02  0.11609747645E+03 -0.10328558737E+03  0.15648467278E+03  0.00000000000E+00 0.  1.
         22    1    1    2    0    0 -0.62477490767E+02 -0.45890515448E+03 -0.18893517438E+04  0.19452885106E+04  0.00000000000E+00 0. -1.
<mgrwt>
<rscale>  0 0.12076506E+04</rscale>
<asrwt>0</asrwt>
<pdfrwt beam="1">  1        2 0.36261493E+00 0.12076506E+04</pdfrwt>
<pdfrwt beam="2">  1       -2 0.23798536E-01 0.12076506E+04</pdfrwt>
<totfact> 0.65370395E+01</totfact>
</mgrwt>
</event>
<event>
 6    1  0.2238133E-007  0.7906581E+03  0.7818608E-02  0.9573638E-01
          2   -1    0    0  501    0  0.00000000000E+00  0.00000000000E+00  0.16562161567E+04  0.16562161567E+04  0.00000000000E+00 0. -1.
         -2   -1    0    0    0  501 -0.00000000000E+00 -0.00000000000E+00 -0.94362724489E+02  0.94362724489E+02  0.00000000000E+00 0.  1.
         23    2    1    2    0    0 -0.33172650396E+03  0.14738404691E+03  0.47458548162E+03  0.60431707554E+03  0.90571616489E+02 0.  0.
         13    1    3    3    0    0 -0.28093537048E+03  0.15342067316E+03  0.43256117499E+03  0.53811871874E+03  0.00000000000E+00 0. -1.
        -13    1    3    3    0    0 -0.50791133475E+02 -0.60366262528E+01  0.42024306628E+02  0.66198356806E+02  0.00000000000E+00 0.  1.
         22    1    1    2    0    0  0.33172650396E+03 -0.14738404691E+03  0.10872679506E+04  0.11462618057E+04  0.00000000000E+00 0. -1.
<mgrwt>
<rscale>  0 0.79065813E+03</rscale>
<asrwt>0</asrwt>
<pdfrwt beam="1">  1        2 0.25480247E+00 0.79065813E+03</pdfrwt>
<pdfrwt beam="2">  1       -2 0.14517343E-01 0.79065813E+03</pdfrwt>
<totfact> 0.38910710E+02</totfact>
</mgrwt>
</event>
<event>
 6    1  0.2238133E-007  0.9455224E+03  0.7818608E-02  0.9370400E-01
          2   -1    0    0  501    0  0.00000000000E+00  0.00000000000E+00  0.13593363133E+04  0.13593363133E+04  0.00000000000E+00 0. -1.
         -2   -1    0    0    0  501 -0.00000000000E+00 -0.00000000000E+00 -0.16442079624E+03  0.16442079624E+03  0.00000000000E+00 0.  1.
         23    2    1    2    0    0  0.19846382430E+03 -0.30939053180E+03  0.13466961261E+03  0.40160214314E+03  0.89654816334E+02 0.  0.
         13    1    3    3    0    0  0.59047054532E+02 -0.10341158337E+03  0.68383494963E+00  0.11908391098E+03  0.00000000000E+00 0. -1.
        -13    1    3    3    0    0  0.13941676976E+03 -0.20597894843E+03  0.13398577766E+03  0.28251823216E+03  0.00000000000E+00 0.  1.
         22    1    1    2    0    0 -0.19846382430E+03  0.30939053180E+03  0.10602459045E+04  0.11221549664E+04  0.00000000000E+00 0. -1.
<mgrwt>
<rscale>  0 0.94552241E+03</rscale>
<asrwt>0</asrwt>
<pdfrwt beam="1">  1        2 0.20912866E+00 0.94552241E+03</pdfrwt>
<pdfrwt beam="2">  1       -2 0.25295508E-01 0.94552241E+03</pdfrwt>
<totfact> 0.21437345E+02</totfact>
</mgrwt>
</event>
<event>
 6    1  0.2238133E-007  0.2118163E+04  0.7818608E-02  0.8553284E-01
         -3   -1    0    0    0  501 -0.00000000000E+00  0.00000000000E+00  0.35259566976E+04  0.35259566976E+04  0.00000000000E+00 0.  1.
          3   -1    0    0  501    0  0.00000000000E+00 -0.00000000000E+00 -0.31811321494E+03  0.31811321494E+03  0.00000000000E+00 0. -1.
         23    2    1    2    0    0 -0.25917030918E+03 -0.65443116956E+03  0.17583250385E+03  0.73142795104E+03  0.92845965464E+02 0.  0.
         11    1    3    3    0    0 -0.29160409255E+02 -0.92938019615E+02 -0.71296908118E+01  0.97665948257E+02  0.00000000000E+00 0. -1.
        -11    1    3    3    0    0 -0.23000989992E+03 -0.56149314995E+03  0.18296219466E+03  0.63376200278E+03  0.00000000000E+00 0.  1.
         22    1    1    2    0    0  0.25917030918E+03  0.65443116956E+03  0.30320109788E+04  0.31126419615E+04  0.00000000000E+00 0.  1.
<mgrwt>
<rscale>  0 0.21181628E+04</rscale>
<asrwt>0</asrwt>
<pdfrwt beam="1">  1        3 0.48940497E-01 0.21181628E+04</pdfrwt>
<pdfrwt beam="2">  1       -3 0.54245485E+00 0.21181628E+04</pdfrwt>
<totfact> 0.18184089E-02</totfact>
</mgrwt>
</event>
<event>
 6    1  0.2238133E-007  0.1054275E+04  0.7818608E-02  0.9250942E-01
          2   -1    0    0  501    0  0.00000000000E+00  0.00000000000E+00  0.15215941141E+04  0.15215941141E+04  0.00000000000E+00 0. -1.
         -2   -1    0    0    0  501 -0.00000000000E+00 -0.00000000000E+00 -0.18262017373E+03  0.18262017373E+03  0.00000000000E+00 0.  1.
         23    2    1    2    0    0  0.32759207671E+03 -0.31895045884E+03  0.10849546487E+04  0.11811734056E+04  0.94858107273E+02 0.  0.
         13    1    3    3    0    0  0.22053320692E+03 -0.18726385864E+03  0.57434262763E+03  0.64309571762E+03  0.00000000000E+00 0.  1.
        -13    1    3    3    0    0  0.10705886979E+03 -0.13168660020E+03  0.51061202109E+03  0.53807768803E+03  0.00000000000E+00 0. -1.
         22    1    1    2    0    0 -0.32759207671E+03  0.31895045884E+03  0.25401929167E+03  0.52304088220E+03  0.00000000000E+00 0.  1.
<mgrwt>
<rscale>  0 0.10542747E+04</rscale>
<asrwt>0</asrwt>
<pdfrwt beam="1">  1        2 0.23409139E+00 0.10542747E+04</pdfrwt>
<pdfrwt beam="2">  1       -2 0.28095412E-01 0.10542747E+04</pdfrwt>
<totfact> 0.14221790E+02</totfact>
</mgrwt>
</event>
<event>
 6    1  0.2238133E-007  0.2667012E+04  0.7818608E-02  0.8345788E-01
         -1   -1    0    0    0  501 -0.00000000000E+00  0.00000000000E+00  0.12940369931E+04  0.12940369931E+04  0.00000000000E+00 0.  1.
          1   -1    0    0  501    0  0.00000000000E+00 -0.00000000000E+00 -0.13741790276E+04  0.13741790276E+04  0.00000000000E+00 0. -1.
         23    2    1    2    0    0  0.45312501505E+03  0.10631325541E+02  0.12128603373E+04  0.12980735325E+04  0.92354716443E+02 0.  0.
         11    1    3    3    0    0  0.28279087135E+03  0.14098313659E+01  0.62576445362E+03  0.68669776172E+03  0.00000000000E+00 0. -1.
        -11    1    3    3    0    0  0.17033414370E+03  0.92214941752E+01  0.58709588367E+03  0.61137577078E+03  0.00000000000E+00 0.  1.
         22    1    1    2    0    0 -0.45312501505E+03 -0.10631325541E+02 -0.12930023718E+04  0.13701424881E+04  0.00000000000E+00 0. -1.
<mgrwt>
<rscale>  0 0.26670122E+04</rscale>
<asrwt>0</asrwt>
<pdfrwt beam="1">  1        1 0.21141216E+00 0.26670122E+04</pdfrwt>
<pdfrwt beam="2">  1       -1 0.19908261E+00 0.26670122E+04</pdfrwt>
<totfact> 0.10713940E+00</totfact>
</mgrwt>
</event>
<event>
 6    1  0.2238133E-007  0.3145100E+04  0.7818608E-02  0.8203469E-01
          2   -1    0    0  501    0  0.00000000000E+00  0.00000000000E+00  0.31201216481E+04  0.31201216481E+04  0.00000000000E+00 0. -1.
         -2   -1    0    0    0  501 -0.00000000000E+00 -0.00000000000E+00 -0.79256949969E+03  0.79256949969E+03  0.00000000000E+00 0.  1.
         23    2    1    2    0    0  0.87385727965E+03  0.85985412538E+03  0.23873302001E+04  0.26852755387E+04  0.91561849999E+02 0.  0.
         11    1    3    3    0    0  0.26691402125E+03  0.20681111172E+03  0.63583592979E+03  0.71993142748E+03  0.00000000000E+00 0.  1.
        -11    1    3    3    0    0  0.60694325840E+03  0.65304301366E+03  0.17514942703E+04  0.19653441112E+04  0.00000000000E+00 0. -1.
         22    1    1    2    0    0 -0.87385727965E+03 -0.85985412538E+03 -0.59778051618E+02  0.12274156091E+04  0.00000000000E+00 0.  1.
<mgrwt>
<rscale>  0 0.31450998E+04</rscale>
<asrwt>0</asrwt>
<pdfrwt beam="1">  1        2 0.48001871E+00 0.31450998E+04</pdfrwt>
<pdfrwt beam="2">  1       -2 0.12193377E+00 0.31450998E+04</pdfrwt>
<totfact> 0.62999813E-01</totfact>
</mgrwt>
</event>
<event>
 6    1  0.2238133E-007  0.4807714E+04  0.7818608E-02  0.7858873E-01
          2   -1    0    0  501    0  0.00000000000E+00  0.00000000000E+00  0.18819803972E+04  0.18819803972E+04  0.00000000000E+00 0. -1.
         -2   -1    0    0    0  501 -0.00000000000E+00 -0.00000000000E+00 -0.30704514228E+04  0.30704514228E+04  0.00000000000E+00 0.  1.
         23    2    1    2    0    0  0.11331674552E+04  0.21075393060E+04 -0.36750771134E+03  0.24226549185E+04  0.91676214387E+02 0.  0.
         11    1    3    3    0    0  0.67637865187E+03  0.12047577837E+04 -0.25019116782E+03  0.14041100450E+04  0.00000000000E+00 0.  1.
        -11    1    3    3    0    0  0.45678880334E+03  0.90278152232E+03 -0.11731654352E+03  0.10185448735E+04  0.00000000000E+00 0. -1.
         22    1    1    2    0    0 -0.11331674552E+04 -0.21075393060E+04 -0.82096331426E+03  0.25297769015E+04  0.00000000000E+00 0.  1.
<mgrwt>
<rscale>  0 0.48077144E+04</rscale>
<asrwt>0</asrwt>
<pdfrwt beam="1">  1        2 0.28953545E+00 0.48077144E+04</pdfrwt>
<pdfrwt beam="2">  1       -2 0.47237714E+00 0.48077144E+04</pdfrwt>
<totfact> 0.14262724E-02</totfact>
</mgrwt>
</event>
<event>
 6    1  0.2238133E-007  0.1380300E+04  0.7818608E-02  0.8968203E-01
         -2   -1    0    0    0  501 -0.00000000000E+00  0.00000000000E+00  0.31159542958E+03  0.31159542958E+03  0.00000000000E+00 0.  1.
          2   -1    0    0  501    0  0.00000000000E+00 -0.00000000000E+00 -0.15286077177E+04  0.15286077177E+04  0.00000000000E+00 0. -1.
         23    2    1    2    0    0  0.60038960484E+02  0.64285384315E+03 -0.29731556165E+03  0.71650042453E+03  0.90058729284E+02 0.  0.
         13    1    3    3    0    0 -0.15921672088E+02  0.15764161821E+03 -0.99127062375E+02  0.18689717475E+03  0.00000000000E+00 0. -1.
        -13    1    3    3    0    0  0.75960632571E+02  0.48521222494E+03 -0.19818849928E+03  0.52960324978E+03  0.00000000000E+00 0.  1.
         22    1    1    2    0    0 -0.60038960484E+02 -0.64285384315E+03 -0.91969672644E+03  0.11237027227E+04  0.00000000000E+00 0. -1.
<mgrwt>
<rscale>  0 0.13803002E+04</rscale>
<asrwt>0</asrwt>
<pdfrwt beam="1">  1        2 0.23517042E+00 0.13803002E+04</pdfrwt>
<pdfrwt beam="2">  1       -2 0.47937758E-01 0.13803002E+04</pdfrwt>
<totfact> 0.49136637E+01</totfact>
</mgrwt>
</event>
<event>
 6    1  0.2238133E-007  0.2356908E+04  0.7818608E-02  0.8455815E-01
          2   -1    0    0  501    0  0.00000000000E+00  0.00000000000E+00  0.36265753195E+04  0.36265753195E+04  0.00000000000E+00 0. -1.
         -2   -1    0    0    0  501 -0.00000000000E+00 -0.00000000000E+00 -0.38293817002E+03  0.38293817002E+03  0.00000000000E+00 0.  1.
         23    2    1    2    0    0  0.16130731445E+03 -0.95573948597E+03  0.27592587944E+04  0.29259635804E+04  0.91081086211E+02 0.  0.
         13    1    3    3    0    0  0.60101800838E+02 -0.61745895293E+03  0.17435613210E+04  0.18506414739E+04  0.00000000000E+00 0.  1.
        -13    1    3    3    0    0  0.10120551361E+03 -0.33828053304E+03  0.10156974735E+04  0.10753221065E+04  0.00000000000E+00 0. -1.
         22    1    1    2    0    0 -0.16130731445E+03  0.95573948597E+03  0.48437835500E+03  0.10835499091E+04  0.00000000000E+00 0.  1.
<mgrwt>
<rscale>  0 0.23569082E+04</rscale>
<asrwt>0</asrwt>
<pdfrwt beam="1">  1        2 0.55793464E+00 0.23569082E+04</pdfrwt>
<pdfrwt beam="2">  1       -2 0.58913567E-01 0.23569082E+04</pdfrwt>
<totfact> 0.16092656E+00</totfact>
</mgrwt>
</event>
<event>
 6    1  0.2238133E-007  0.9866500E+03  0.7818608E-02  0.9323309E-01
         -1   -1    0    0    0  501 -0.00000000000E+00  0.00000000000E+00  0.63325236758E+03  0.63325236758E+03  0.00000000000E+00 0.  1.
          1   -1    0    0  501    0  0.00000000000E+00 -0.00000000000E+00 -0.38431683300E+03  0.38431683300E+03  0.00000000000E+00 0. -1.
         23    2    1    2    0    0  0.34636837911E+03 -0.10511514640E+03  0.46626044711E+03  0.59537213089E+03  0.77774813732E+02 0.  0.
         11    1    3    3    0    0  0.23376801198E+03 -0.32014434832E+02  0.29349728260E+03  0.37658075144E+03  0.00000000000E+00 0. -1.
        -11    1    3    3    0    0  0.11260036713E+03 -0.73100711564E+02  0.17276316451E+03  0.21879137944E+03  0.00000000000E+00 0.  1.
         22    1    1    2    0    0 -0.34636837911E+03  0.10511514640E+03 -0.21732491253E+03  0.42219706969E+03  0.00000000000E+00 0. -1.
<mgrwt>
<rscale>  0 0.98664998E+03</rscale>
<asrwt>0</asrwt>
<pdfrwt beam="1">  1        1 0.59125667E-01 0.98664998E+03</pdfrwt>
<pdfrwt beam="2">  1       -1 0.97423441E-01 0.98664998E+03</pdfrwt>
<totfact> 0.64264383E+01</totfact>
</mgrwt>
</event>
<event>
 6    1  0.2238133E-007  0.1334534E+04  0.7818608E-02  0.9002619E-01
          2   -1    0    0  501    0  0.00000000000E+00  0.00000000000E+00  0.12936725024E+04  0.12936725024E+04  0.00000000000E+00 0. -1.
         -2   -1    0    0    0  501 -0.00000000000E+00 -0.00000000000E+00 -0.34417175551E+03  0.34417175551E+03  0.00000000000E+00 0.  1.
         23    2    1    2    0    0 -0.54882534709E+02  0.50133955719E+03 -0.53806995459E+02  0.51491065788E+03  0.88793854592E+02 0.  0.
         13    1    3    3    0    0  0.19738513215E+02  0.57020102803E+02 -0.17905595566E+02  0.62940538448E+02  0.00000000000E+00 0. -1.
        -13    1    3    3    0    0 -0.74621047924E+02  0.44431945439E+03 -0.35901399893E+02  0.45197011943E+03  0.00000000000E+00 0.  1.
         22    1    1    2    0    0  0.54882534709E+02 -0.50133955719E+03  0.10033077423E+04  0.11229336000E+04  0.00000000000E+00 0. -1.
<mgrwt>
<rscale>  0 0.13345344E+04</rscale>
<asrwt>0</asrwt>
<pdfrwt beam="1">  1        2 0.19902654E+00 0.13345344E+04</pdfrwt>
<pdfrwt beam="2">  1       -2 0.52949501E-01 0.13345344E+04</pdfrwt>
<totfact> 0.54831336E+01</totfact>
</mgrwt>
</event>
<event>
 6    1  0.2238133E-007  0.2553611E+04  0.7818608E-02  0.8384132E-01
          2   -1    0    0  501    0  0.00000000000E+00  0.00000000000E+00  0.16974114632E+04  0.16974114632E+04  0.00000000000E+00 0. -1.
         -2   -1    0    0    0  501 -0.00000000000E+00 -0.00000000000E+00 -0.96042238574E+03  0.96042238574E+03  0.00000000000E+00 0.  1.
         23    2    1    2    0    0 -0.76803136592E+01  0.12589691223E+04  0.15822266734E+03  0.12721813688E+04  0.91371683529E+02 0.  0.
         13    1    3    3    0    0 -0.35163944611E+02  0.27121821919E+03  0.17108437991E+02  0.27402285319E+03  0.00000000000E+00 0. -1.
        -13    1    3    3    0    0  0.27483630952E+02  0.98775090312E+03  0.14111422934E+03  0.99815851562E+03  0.00000000000E+00 0.  1.
         22    1    1    2    0    0  0.76803136592E+01 -0.12589691223E+04  0.57876641011E+03  0.13856524801E+04  0.00000000000E+00 0. -1.
<mgrwt>
<rscale>  0 0.25536108E+04</rscale>
<asrwt>0</asrwt>
<pdfrwt beam="1">  1        2 0.26114022E+00 0.25536108E+04</pdfrwt>
<pdfrwt beam="2">  1       -2 0.14775729E+00 0.25536108E+04</pdfrwt>
<totfact> 0.27247227E+00</totfact>
</mgrwt>
</event>
<event>
 6    1  0.2238133E-007  0.1760116E+04  0.7818608E-02  0.8727802E-01
          4   -1    0    0  501    0  0.00000000000E+00  0.00000000000E+00  0.64886968921E+03  0.64886968921E+03  0.00000000000E+00 0. -1.
         -4   -1    0    0    0  501 -0.00000000000E+00 -0.00000000000E+00 -0.11936168398E+04  0.11936168398E+04  0.00000000000E+00 0.  1.
         23    2    1    2    0    0  0.40576111168E+03  0.69143886684E+03 -0.64712579594E+03  0.10342717226E+04  0.90644437487E+02 0.  0.
         11    1    3    3    0    0  0.26004180496E+02  0.10402557148E+03 -0.91814930908E+02  0.14116486271E+03  0.00000000000E+00 0. -1.
        -11    1    3    3    0    0  0.37975693118E+03  0.58741329536E+03 -0.55531086503E+03  0.89310685988E+03  0.00000000000E+00 0.  1.
         22    1    1    2    0    0 -0.40576111168E+03 -0.69143886684E+03  0.10237864534E+03  0.80821480644E+03  0.00000000000E+00 0. -1.
<mgrwt>
<rscale>  0 0.17601157E+04</rscale>
<asrwt>0</asrwt>
<pdfrwt beam="1">  1        4 0.99826107E-01 0.17601157E+04</pdfrwt>
<pdfrwt beam="2">  1       -4 0.18363336E+00 0.17601157E+04</pdfrwt>
<totfact> 0.26652304E-01</totfact>
</mgrwt>
</event>
<event>
 6    1  0.2238133E-007  0.2424690E+04  0.7818608E-02  0.8430317E-01
         -2   -1    0    0    0  501 -0.00000000000E+00  0.00000000000E+00  0.58534829654E+03  0.58534829654E+03  0.00000000000E+00 0.  1.
          2   -1    0    0  501    0  0.00000000000E+00 -0.00000000000E+00 -0.25109501967E+04  0.25109501967E+04  0.00000000000E+00 0. -1.
         23    2    1    2    0    0  0.21912799962E+03  0.58048045521E+03  0.36338733274E+03  0.72470697120E+03  0.90416820421E+02 0.  0.
         11    1    3    3    0    0  0.18421038363E+02  0.15991165525E+03  0.89658227701E+02  0.18425436205E+03  0.00000000000E+00 0. -1.
        -11    1    3    3    0    0  0.20070696125E+03  0.42056879996E+03  0.27372910504E+03  0.54045260915E+03  0.00000000000E+00 0.  1.
         22    1    1    2    0    0 -0.21912799962E+03 -0.58048045521E+03 -0.22889892329E+04  0.23715915220E+04  0.00000000000E+00 0. -1.
<mgrwt>
<rscale>  0 0.24246900E+04</rscale>
<asrwt>0</asrwt>
<pdfrwt beam="1">  1        2 0.38630003E+00 0.24246900E+04</pdfrwt>
<pdfrwt beam="2">  1       -2 0.90053584E-01 0.24246900E+04</pdfrwt>
<totfact> 0.32486278E+00</totfact>
</mgrwt>
</event>
<event>
 6    1  0.2467738E-007  0.2216144E+04  0.7818608E-02  0.8511738E-01
          2   -1    0    0  501    0  0.00000000000E+00  0.00000000000E+00  0.90422032927E+03  0.90422032927E+03  0.00000000000E+00 0. -1.
         -2   -1    0    0    0  501 -0.00000000000E+00 -0.00000000000E+00 -0.13578814626E+04  0.13578814626E+04  0.00000000000E+00 0.  1.
         23    2    1    2    0    0  0.52289753478E+03  0.33453488904E+03  0.70728409618E+03  0.94561812324E+03  0.92776173835E+02 0.  0.
         13    1    3    3    0    0  0.21904192980E+03  0.18974656897E+03  0.29745159088E+03  0.41528372995E+03  0.00000000000E+00 0.  1.
        -13    1    3    3    0    0  0.30385560498E+03  0.14478832008E+03  0.40983250529E+03  0.53033439329E+03  0.00000000000E+00 0. -1.
         22    1    1    2    0    0 -0.52289753478E+03 -0.33453488904E+03 -0.11609452295E+04  0.13164836686E+04  0.00000000000E+00 0.  1.
<mgrwt>
<rscale>  0 0.22161444E+04</rscale>
<asrwt>0</asrwt>
<pdfrwt beam="1">  1        2 0.13911082E+00 0.22161444E+04</pdfrwt>
<pdfrwt beam="2">  1       -2 0.20890484E+00 0.22161444E+04</pdfrwt>
<totfact> 0.30936546E+00</totfact>
</mgrwt>
</event>
<event>
 6    1  0.2238133E-007  0.3269419E+04  0.7818608E-02  0.8170720E-01
         -2   -1    0    0    0  501 -0.00000000000E+00  0.00000000000E+00  0.10267720957E+04  0.10267720957E+04  0.00000000000E+00 0.  1.
          2   -1    0    0  501    0  0.00000000000E+00 -0.00000000000E+00 -0.26025988403E+04  0.26025988403E+04  0.00000000000E+00 0. -1.
         23    2    1    2    0    0  0.15525507010E+04 -0.41079335849E+03 -0.45773429661E+03  0.16725123348E+04  0.92800653441E+02 0.  0.
         13    1    3    3    0    0  0.73788236747E+03 -0.24317576106E+03 -0.22281673782E+03  0.80824014850E+03  0.00000000000E+00 0. -1.
        -13    1    3    3    0    0  0.81466833352E+03 -0.16761759743E+03 -0.23491755879E+03  0.86427218632E+03  0.00000000000E+00 0.  1.
         22    1    1    2    0    0 -0.15525507010E+04  0.41079335849E+03 -0.11180924481E+04  0.19568586012E+04  0.00000000000E+00 0. -1.
<mgrwt>
<rscale>  0 0.32694194E+04</rscale>
<asrwt>0</asrwt>
<pdfrwt beam="1">  1        2 0.40039982E+00 0.32694194E+04</pdfrwt>
<pdfrwt beam="2">  1       -2 0.15796494E+00 0.32694194E+04</pdfrwt>
<totfact> 0.66206182E-01</totfact>
</mgrwt>
</event>
<event>
 6    1  0.2238133E-007  0.3295632E+04  0.7818608E-02  0.8164008E-01
         -2   -1    0    0    0  501 -0.00000000000E+00  0.00000000000E+00  0.10718403355E+04  0.10718403355E+04  0.00000000000E+00 0.  1.
          2   -1    0    0  501    0  0.00000000000E+00 -0.00000000000E+00 -0.25333047585E+04  0.25333047585E+04  0.00000000000E+00 0. -1.
         23    2    1    2    0    0 -0.41934280669E+03  0.92614647432E+03  0.68560785034E+03  0.12295367450E+04  0.90037777645E+02 0.  0.
         13    1    3    3    0    0 -0.27299286161E+03  0.63567579676E+03  0.51341444941E+03  0.86151216935E+03  0.00000000000E+00 0. -1.
        -13    1    3    3    0    0 -0.14634994507E+03  0.29047067756E+03  0.17219340092E+03  0.36802457563E+03  0.00000000000E+00 0.  1.
         22    1    1    2    0    0  0.41934280669E+03 -0.92614647432E+03 -0.21470722733E+04  0.23756083491E+04  0.00000000000E+00 0. -1.
<mgrwt>
<rscale>  0 0.32956324E+04</rscale>
<asrwt>0</asrwt>
<pdfrwt beam="1">  1        2 0.38973919E+00 0.32956324E+04</pdfrwt>
<pdfrwt beam="2">  1       -2 0.16489852E+00 0.32956324E+04</pdfrwt>
<totfact> 0.64497245E-01</totfact>
</mgrwt>
</event>
<event>
 6    1  0.2238133E-007  0.1703149E+04  0.7818608E-02  0.8759570E-01
         -2   -1    0    0    0  501 -0.00000000000E+00  0.00000000000E+00  0.50849072357E+03  0.50849072357E+03  0.00000000000E+00 0.  1.
          2   -1    0    0  501    0  0.00000000000E+00 -0.00000000000E+00 -0.14261405261E+04  0.14261405261E+04  0.00000000000E+00 0. -1.
         23    2    1    2    0    0  0.29771789006E+03 -0.70816531219E+03 -0.87088151051E+03  0.11650071046E+04  0.93128390066E+02 0.  0.
         11    1    3    3    0    0  0.28464648014E+03 -0.59223925170E+03 -0.73380490832E+03  0.98500791539E+03  0.00000000000E+00 0. -1.
        -11    1    3    3    0    0  0.13071409921E+02 -0.11592606049E+03 -0.13707660220E+03  0.17999918924E+03  0.00000000000E+00 0.  1.
         22    1    1    2    0    0 -0.29771789006E+03  0.70816531219E+03 -0.46768291988E+02  0.76962414501E+03  0.00000000000E+00 0.  1.
<mgrwt>
<rscale>  0 0.17031491E+04</rscale>
<asrwt>0</asrwt>
<pdfrwt beam="1">  1        2 0.21940623E+00 0.17031491E+04</pdfrwt>
<pdfrwt beam="2">  1       -2 0.78229343E-01 0.17031491E+04</pdfrwt>
<totfact> 0.19332852E+01</totfact>
</mgrwt>
</event>
<event>
 6    1  0.2238133E-007  0.2079718E+04  0.7818608E-02  0.8570231E-01
         -2   -1    0    0    0  501 -0.00000000000E+00  0.00000000000E+00  0.45138594765E+03  0.45138594765E+03  0.00000000000E+00 0.  1.
          2   -1    0    0  501    0  0.00000000000E+00 -0.00000000000E+00 -0.23955247938E+04  0.23955247938E+04  0.00000000000E+00 0. -1.
         23    2    1    2    0    0  0.81694919345E+03  0.27484308296E+03 -0.17653449386E+04  0.19666198996E+04  0.90589030102E+02 0.  0.
         11    1    3    3    0    0  0.73935672755E+03  0.24556487574E+03 -0.15269792140E+04  0.17142391895E+04  0.00000000000E+00 0.  1.
        -11    1    3    3    0    0  0.77592465902E+02  0.29278207214E+02 -0.23836572453E+03  0.25238071006E+03  0.00000000000E+00 0. -1.
         22    1    1    2    0    0 -0.81694919345E+03 -0.27484308296E+03 -0.17879390760E+03  0.88029084190E+03  0.00000000000E+00 0.  1.
<mgrwt>
<rscale>  0 0.20797175E+04</rscale>
<asrwt>0</asrwt>
<pdfrwt beam="1">  1        2 0.36854227E+00 0.20797175E+04</pdfrwt>
<pdfrwt beam="2">  1       -2 0.69443993E-01 0.20797175E+04</pdfrwt>
<totfact> 0.69838362E+00</totfact>
</mgrwt>
</event>
<event>
 6    1  0.2238133E-007  0.3354923E+04  0.7818608E-02  0.8149059E-01
         -2   -1    0    0    0  501 -0.00000000000E+00  0.00000000000E+00  0.33070749833E+04  0.33070749833E+04  0.00000000000E+00 0.  1.
          2   -1    0    0  501    0  0.00000000000E+00 -0.00000000000E+00 -0.85086595436E+03  0.85086595436E+03  0.00000000000E+00 0. -1.
         23    2    1    2    0    0 -0.88495350231E+03  0.13176815162E+04  0.18970886336E+04  0.24750734753E+04  0.87270528307E+02 0.  0.
         11    1    3    3    0    0 -0.58784802004E+03  0.94564911020E+03  0.13407463128E+04  0.17428190410E+04  0.00000000000E+00 0.  1.
        -11    1    3    3    0    0 -0.29710548227E+03  0.37203240598E+03  0.55634232084E+03  0.73225443437E+03  0.00000000000E+00 0. -1.
         22    1    1    2    0    0  0.88495350231E+03 -0.13176815162E+04  0.55912039529E+03  0.16828674623E+04  0.00000000000E+00 0. -1.
<mgrwt>
<rscale>  0 0.33549233E+04</rscale>
<asrwt>0</asrwt>
<pdfrwt beam="1">  1        2 0.13090246E+00 0.33549233E+04</pdfrwt>
<pdfrwt beam="2">  1       -2 0.50878076E+00 0.33549233E+04</pdfrwt>
<totfact> 0.38313789E-02</totfact>
</mgrwt>
</event>
<event>
 6    1  0.2238133E-007  0.1727149E+04  0.7818608E-02  0.8746030E-01
         -2   -1    0    0    0  501 -0.00000000000E+00  0.00000000000E+00  0.39296645530E+03  0.39296645530E+03  0.00000000000E+00 0.  1.
          2   -1    0    0  501    0  0.00000000000E+00 -0.00000000000E+00 -0.18977716662E+04  0.18977716662E+04  0.00000000000E+00 0. -1.
         23    2    1    2    0    0 -0.22551991870E+03  0.21004046427E+03  0.31199259330E+03  0.44798732671E+03  0.91526150684E+02 0.  0.
         13    1    3    3    0    0 -0.23167834869E+03  0.21072004193E+03  0.29635056148E+03  0.43116290264E+03  0.00000000000E+00 0.  1.
        -13    1    3    3    0    0  0.61584299920E+01 -0.67957766483E+00  0.15642031824E+02  0.16824424072E+02  0.00000000000E+00 0. -1.
         22    1    1    2    0    0  0.22551991870E+03 -0.21004046427E+03 -0.18167978042E+04  0.18427507948E+04  0.00000000000E+00 0. -1.
<mgrwt>
<rscale>  0 0.17271486E+04</rscale>
<asrwt>0</asrwt>
<pdfrwt beam="1">  1        2 0.29196488E+00 0.17271486E+04</pdfrwt>
<pdfrwt beam="2">  1       -2 0.60456377E-01 0.17271486E+04</pdfrwt>
<totfact> 0.18428310E+01</totfact>
</mgrwt>
</event>
<event>
 6    1  0.2238133E-007  0.1199667E+04  0.7818608E-02  0.9113148E-01
         -1   -1    0    0    0  501 -0.00000000000E+00  0.00000000000E+00  0.83198206921E+03  0.83198206921E+03  0.00000000000E+00 0.  1.
          1   -1    0    0  501    0  0.00000000000E+00 -0.00000000000E+00 -0.43246137875E+03  0.43246137875E+03  0.00000000000E+00 0. -1.
         23    2    1    2    0    0 -0.22954243351E+03 -0.22959008581E+03 -0.32644558876E+03  0.46918979355E+03  0.90393604135E+02 0.  0.
         13    1    3    3    0    0 -0.21577877417E+03 -0.20204647320E+03 -0.25132819828E+03  0.38800659784E+03  0.00000000000E+00 0.  1.
        -13    1    3    3    0    0 -0.13763659341E+02 -0.27543612604E+02 -0.75117390473E+02  0.81183195707E+02  0.00000000000E+00 0. -1.
         22    1    1    2    0    0  0.22954243351E+03  0.22959008581E+03  0.72596627922E+03  0.79525365440E+03  0.00000000000E+00 0.  1.
<mgrwt>
<rscale>  0 0.11996668E+04</rscale>
<asrwt>0</asrwt>
<pdfrwt beam="1">  1        1 0.66532520E-01 0.11996668E+04</pdfrwt>
<pdfrwt beam="2">  1       -1 0.12799724E+00 0.11996668E+04</pdfrwt>
<totfact> 0.28213320E+01</totfact>
</mgrwt>
</event>
<event>
 6    1  0.2238133E-007  0.1281840E+04  0.7818608E-02  0.9044091E-01
          2   -1    0    0  501    0  0.00000000000E+00  0.00000000000E+00  0.10255280089E+04  0.10255280089E+04  0.00000000000E+00 0. -1.
         -2   -1    0    0    0  501 -0.00000000000E+00 -0.00000000000E+00 -0.40055332420E+03  0.40055332420E+03  0.00000000000E+00 0.  1.
         23    2    1    2    0    0  0.35892741587E+02 -0.63673244757E+03  0.32143805606E+03  0.71978749651E+03  0.89750306696E+02 0.  0.
         11    1    3    3    0    0 -0.15216205341E+01 -0.32612739610E+03  0.11905187879E+03  0.34718113955E+03  0.00000000000E+00 0.  1.
        -11    1    3    3    0    0  0.37414362121E+02 -0.31060505147E+03  0.20238617727E+03  0.37260635695E+03  0.00000000000E+00 0. -1.
         22    1    1    2    0    0 -0.35892741587E+02  0.63673244757E+03  0.30353662865E+03  0.70629383660E+03  0.00000000000E+00 0. -1.
<mgrwt>
<rscale>  0 0.12818403E+04</rscale>
<asrwt>0</asrwt>
<pdfrwt beam="1">  1        2 0.15777354E+00 0.12818403E+04</pdfrwt>
<pdfrwt beam="2">  1       -2 0.61623589E-01 0.12818403E+04</pdfrwt>
<totfact> 0.58268698E+01</totfact>
</mgrwt>
</event>
<event>
 6    1  0.2238133E-007  0.2413856E+04  0.7818608E-02  0.8434334E-01
         -2   -1    0    0    0  501 -0.00000000000E+00  0.00000000000E+00  0.11854750625E+04  0.11854750625E+04  0.00000000000E+00 0.  1.
          2   -1    0    0  501    0  0.00000000000E+00 -0.00000000000E+00 -0.12287693090E+04  0.12287693090E+04  0.00000000000E+00 0. -1.
         23    2    1    2    0    0 -0.17842606745E+03  0.11918373075E+04 -0.34245684781E+02  0.12090913083E+04  0.91744186617E+02 0.  0.
         13    1    3    3    0    0 -0.75443990528E+02  0.47917189519E+03  0.31061747027E+02  0.48606823901E+03  0.00000000000E+00 0. -1.
        -13    1    3    3    0    0 -0.10298207692E+03  0.71266541232E+03 -0.65307431808E+02  0.72302306930E+03  0.00000000000E+00 0.  1.
         22    1    1    2    0    0  0.17842606745E+03 -0.11918373075E+04 -0.90485617347E+01  0.12051530631E+04  0.00000000000E+00 0.  1.
<mgrwt>
<rscale>  0 0.24138561E+04</rscale>
<asrwt>0</asrwt>
<pdfrwt beam="1">  1        2 0.18904143E+00 0.24138561E+04</pdfrwt>
<pdfrwt beam="2">  1       -2 0.18238078E+00 0.24138561E+04</pdfrwt>
<totfact> 0.28555664E+00</totfact>
</mgrwt>
</event>
<event>
 6    1  0.2238133E-007  0.1047776E+04  0.7818608E-02  0.9257643E-01
          2   -1    0    0  501    0  0.00000000000E+00  0.00000000000E+00  0.67276240925E+03  0.67276240925E+03  0.00000000000E+00 0. -1.
         -2   -1    0    0    0  501 -0.00000000000E+00 -0.00000000000E+00 -0.40795782137E+03  0.40795782137E+03  0.00000000000E+00 0.  1.
         23    2    1    2    0    0 -0.44387144809E+03  0.26962751284E+03  0.10547541869E+03  0.53748304278E+03  0.89677752087E+02 0.  0.
         13    1    3    3    0    0 -0.10876534808E+03  0.11325176667E+03  0.24451899733E+02  0.15891431338E+03  0.00000000000E+00 0. -1.
        -13    1    3    3    0    0 -0.33510610001E+03  0.15637574617E+03  0.81023518954E+02  0.37856872940E+03  0.00000000000E+00 0.  1.
         22    1    1    2    0    0  0.44387144809E+03 -0.26962751284E+03  0.15932916919E+03  0.54323718785E+03  0.00000000000E+00 0.  1.
<mgrwt>
<rscale>  0 0.10477761E+04</rscale>
<asrwt>0</asrwt>
<pdfrwt beam="1">  1        2 0.10350191E+00 0.10477761E+04</pdfrwt>
<pdfrwt beam="2">  1       -2 0.62762742E-01 0.10477761E+04</pdfrwt>
<totfact> 0.10101081E+02</totfact>
</mgrwt>
</event>
<event>
 6    1  0.2238133E-007  0.1777645E+04  0.7818608E-02  0.8718279E-01
         -2   -1    0    0    0  501 -0.00000000000E+00  0.00000000000E+00  0.51786319580E+03  0.51786319580E+03  0.00000000000E+00 0.  1.
          2   -1    0    0  501    0  0.00000000000E+00 -0.00000000000E+00 -0.15255103261E+04  0.15255103261E+04  0.00000000000E+00 0. -1.
         23    2    1    2    0    0 -0.24025097115E+03  0.69794622090E+03 -0.10694499907E+04  0.13026515430E+04  0.91259539929E+02 0.  0.
         13    1    3    3    0    0 -0.12525450260E+03  0.48065422804E+03 -0.67986455348E+03  0.84198158438E+03  0.00000000000E+00 0.  1.
        -13    1    3    3    0    0 -0.11499646855E+03  0.21729199286E+03 -0.38958543720E+03  0.46066995866E+03  0.00000000000E+00 0. -1.
         22    1    1    2    0    0  0.24025097115E+03 -0.69794622090E+03  0.61802860376E+02  0.74072197886E+03  0.00000000000E+00 0.  1.
<mgrwt>
<rscale>  0 0.17776452E+04</rscale>
<asrwt>0</asrwt>
<pdfrwt beam="1">  1        2 0.23469389E+00 0.17776452E+04</pdfrwt>
<pdfrwt beam="2">  1       -2 0.79671262E-01 0.17776452E+04</pdfrwt>
<totfact> 0.16202578E+01</totfact>
</mgrwt>
</event>
<event>
 6    1  0.2238133E-007  0.1504324E+04  0.7818608E-02  0.8881583E-01
          2   -1    0    0  501    0  0.00000000000E+00  0.00000000000E+00  0.13040049113E+04  0.13040049113E+04  0.00000000000E+00 0. -1.
         -2   -1    0    0    0  501 -0.00000000000E+00 -0.00000000000E+00 -0.43385384949E+03  0.43385384949E+03  0.00000000000E+00 0.  1.
         23    2    1    2    0    0 -0.54585406720E+03 -0.50371803124E+03  0.55138831219E+03  0.92959011225E+03  0.91761584017E+02 0.  0.
         13    1    3    3    0    0 -0.13834311108E+03 -0.11726871021E+03  0.18478817107E+03  0.25891588391E+03  0.00000000000E+00 0. -1.
        -13    1    3    3    0    0 -0.40751095612E+03 -0.38644932103E+03  0.36660014112E+03  0.67067422834E+03  0.00000000000E+00 0.  1.
         22    1    1    2    0    0  0.54585406720E+03  0.50371803124E+03  0.31876274962E+03  0.80826864854E+03  0.00000000000E+00 0.  1.
<mgrwt>
<rscale>  0 0.15043238E+04</rscale>
<asrwt>0</asrwt>
<pdfrwt beam="1">  1        2 0.20061614E+00 0.15043238E+04</pdfrwt>
<pdfrwt beam="2">  1       -2 0.66746746E-01 0.15043238E+04</pdfrwt>
<totfact> 0.32743068E+01</totfact>
</mgrwt>
</event>
<event>
 6    1  0.2238133E-007  0.2187531E+04  0.7818608E-02  0.8523636E-01
         -2   -1    0    0    0  501 -0.00000000000E+00  0.00000000000E+00  0.71233047516E+03  0.71233047516E+03  0.00000000000E+00 0.  1.
          2   -1    0    0  501    0  0.00000000000E+00 -0.00000000000E+00 -0.16794487324E+04  0.16794487324E+04  0.00000000000E+00 0. -1.
         23    2    1    2    0    0  0.96269552236E+03  0.39168179903E+03 -0.11808863080E+03  0.10497476852E+04  0.88475857661E+02 0.  0.
         11    1    3    3    0    0  0.57943944598E+03  0.26061447891E+03 -0.10876275733E+03  0.64459236387E+03  0.00000000000E+00 0.  1.
        -11    1    3    3    0    0  0.38325607638E+03  0.13106732012E+03 -0.93258734743E+01  0.40515532133E+03  0.00000000000E+00 0. -1.
         22    1    1    2    0    0 -0.96269552236E+03 -0.39168179903E+03 -0.84902962643E+03  0.13420315224E+04  0.00000000000E+00 0. -1.
<mgrwt>
<rscale>  0 0.21875306E+04</rscale>
<asrwt>0</asrwt>
<pdfrwt beam="1">  1        2 0.25837673E+00 0.21875306E+04</pdfrwt>
<pdfrwt beam="2">  1       -2 0.10958930E+00 0.21875306E+04</pdfrwt>
<totfact> 0.61085731E+00</totfact>
</mgrwt>
</event>
<event>
 6    1  0.2238133E-007  0.8309879E+03  0.7818608E-02  0.9516216E-01
         -2   -1    0    0    0  501 -0.00000000000E+00  0.00000000000E+00  0.57118927200E+03  0.57118927200E+03  0.00000000000E+00 0.  1.
          2   -1    0    0  501    0  0.00000000000E+00 -0.00000000000E+00 -0.30223817765E+03  0.30223817765E+03  0.00000000000E+00 0. -1.
         23    2    1    2    0    0 -0.32673047611E+03  0.60775572060E+02 -0.11706769943E+03  0.36405824826E+03  0.91581044417E+02 0.  0.
         11    1    3    3    0    0 -0.22323367512E+03  0.71328635907E+02 -0.11241825313E+03  0.25992097192E+03  0.00000000000E+00 0. -1.
        -11    1    3    3    0    0 -0.10349680099E+03 -0.10553063847E+02 -0.46494462989E+01  0.10413727633E+03  0.00000000000E+00 0.  1.
         22    1    1    2    0    0  0.32673047611E+03 -0.60775572060E+02  0.38601879378E+03  0.50936920140E+03  0.00000000000E+00 0.  1.
<mgrwt>
<rscale>  0 0.83098786E+03</rscale>
<asrwt>0</asrwt>
<pdfrwt beam="1">  1        2 0.46498181E-01 0.83098786E+03</pdfrwt>
<pdfrwt beam="2">  1       -2 0.87875272E-01 0.83098786E+03</pdfrwt>
<totfact> 0.12235906E+02</totfact>
</mgrwt>
</event>
<event>
 6    1  0.2238133E-007  0.2088107E+04  0.7818608E-02  0.8566501E-01
          1   -1    0    0  501    0  0.00000000000E+00  0.00000000000E+00  0.79588337778E+03  0.79588337778E+03  0.00000000000E+00 0. -1.
         -1   -1    0    0    0  501 -0.00000000000E+00 -0.00000000000E+00 -0.13696067175E+04  0.13696067175E+04  0.00000000000E+00 0.  1.
         23    2    1    2    0    0  0.71908831879E+03 -0.75073180488E+03 -0.36282960204E+03  0.11047533599E+04  0.90268560804E+02 0.  0.
         13    1    3    3    0    0  0.56826345446E+03 -0.59570119865E+03 -0.32537578524E+03  0.88524159040E+03  0.00000000000E+00 0. -1.
        -13    1    3    3    0    0  0.15082486433E+03 -0.15503060623E+03 -0.37453816799E+02  0.21951176953E+03  0.00000000000E+00 0.  1.
         22    1    1    2    0    0 -0.71908831879E+03  0.75073180488E+03 -0.21089373764E+03  0.10607367353E+04  0.00000000000E+00 0.  1.
<mgrwt>
<rscale>  0 0.20881065E+04</rscale>
<asrwt>0</asrwt>
<pdfrwt beam="1">  1        1 0.12244360E+00 0.20881065E+04</pdfrwt>
<pdfrwt beam="2">  1       -1 0.21070872E+00 0.20881065E+04</pdfrwt>
<totfact> 0.26091842E+00</totfact>
</mgrwt>
</event>
<event>
 6    1  0.2238133E-007  0.4669646E+04  0.7818608E-02  0.7881592E-01
          2   -1    0    0  501    0  0.00000000000E+00  0.00000000000E+00  0.17861345993E+04  0.17861345993E+04  0.00000000000E+00 0. -1.
         -2   -1    0    0    0  501 -0.00000000000E+00 -0.00000000000E+00 -0.30520649735E+04  0.30520649735E+04  0.00000000000E+00 0.  1.
         23    2    1    2    0    0  0.16884742182E+04  0.98871381724E+03  0.68498989053E+03  0.20751233746E+04  0.91791458043E+02 0.  0.
         13    1    3    3    0    0  0.66485613099E+03  0.33798410219E+03  0.26602219408E+03  0.79185524939E+03  0.00000000000E+00 0. -1.
        -13    1    3    3    0    0  0.10236180872E+04  0.65072971505E+03  0.41896769645E+03  0.12832681252E+04  0.00000000000E+00 0.  1.
         22    1    1    2    0    0 -0.16884742182E+04 -0.98871381724E+03 -0.19509202647E+04  0.27630761982E+04  0.00000000000E+00 0.  1.
<mgrwt>
<rscale>  0 0.46696462E+04</rscale>
<asrwt>0</asrwt>
<pdfrwt beam="1">  1        2 0.27478994E+00 0.46696462E+04</pdfrwt>
<pdfrwt beam="2">  1       -2 0.46954845E+00 0.46696462E+04</pdfrwt>
<totfact> 0.16995134E-02</totfact>
</mgrwt>
</event>
<event>
 6    1  0.2238133E-007  0.3555174E+03  0.7818608E-02  0.1060373E+00
          2   -1    0    0  501    0  0.00000000000E+00  0.00000000000E+00  0.14627481032E+04  0.14627481032E+04  0.00000000000E+00 0. -1.
         -2   -1    0    0    0  501 -0.00000000000E+00 -0.00000000000E+00 -0.21601909034E+02  0.21601909034E+02  0.00000000000E+00 0.  1.
         23    2    1    2    0    0  0.23681489629E+02  0.15824670103E+03  0.57422128224E+03  0.60278229829E+03  0.89518639542E+02 0.  0.
         13    1    3    3    0    0 -0.29302011194E+02  0.84671591596E+02  0.34049401217E+03  0.35208530018E+03  0.00000000000E+00 0. -1.
        -13    1    3    3    0    0  0.52983500824E+02  0.73575109430E+02  0.23372727007E+03  0.25069699811E+03  0.00000000000E+00 0.  1.
         22    1    1    2    0    0 -0.23681489629E+02 -0.15824670103E+03  0.86692491188E+03  0.88156771389E+03  0.00000000000E+00 0. -1.
<mgrwt>
<rscale>  0 0.35551738E+03</rscale>
<asrwt>0</asrwt>
<pdfrwt beam="1">  1        2 0.22503809E+00 0.35551738E+03</pdfrwt>
<pdfrwt beam="2">  1       -2 0.33233718E-02 0.35551738E+03</pdfrwt>
<totfact> 0.52064482E+03</totfact>
</mgrwt>
</event>
<event>
 6    1  0.2238133E-007  0.2848703E+04  0.7818608E-02  0.8288306E-01
         -2   -1    0    0    0  501 -0.00000000000E+00  0.00000000000E+00  0.21617150920E+04  0.21617150920E+04  0.00000000000E+00 0.  1.
          2   -1    0    0  501    0  0.00000000000E+00 -0.00000000000E+00 -0.93850347910E+03  0.93850347910E+03  0.00000000000E+00 0. -1.
         23    2    1    2    0    0  0.37610989125E+03  0.10575348454E+04 -0.33946339166E+03  0.11762144731E+04  0.91686928674E+02 0.  0.
         11    1    3    3    0    0  0.31179434208E+03  0.89910734978E+03 -0.25341731801E+03  0.98479951018E+03  0.00000000000E+00 0. -1.
        -11    1    3    3    0    0  0.64315549174E+02  0.15842749559E+03 -0.86046073648E+02  0.19141496288E+03  0.00000000000E+00 0.  1.
         22    1    1    2    0    0 -0.37610989125E+03 -0.10575348454E+04  0.15626750046E+04  0.19240040981E+04  0.00000000000E+00 0.  1.
<mgrwt>
<rscale>  0 0.28487030E+04</rscale>
<asrwt>0</asrwt>
<pdfrwt beam="1">  1        2 0.14438515E+00 0.28487030E+04</pdfrwt>
<pdfrwt beam="2">  1       -2 0.33257155E+00 0.28487030E+04</pdfrwt>
<totfact> 0.47908181E-01</totfact>
</mgrwt>
</event>
<event>
 6    1  0.2238133E-007  0.2245412E+04  0.7818608E-02  0.8499761E-01
          2   -1    0    0  501    0  0.00000000000E+00  0.00000000000E+00  0.16202042106E+04  0.16202042106E+04  0.00000000000E+00 0. -1.
         -2   -1    0    0    0  501 -0.00000000000E+00 -0.00000000000E+00 -0.77796878019E+03  0.77796878019E+03  0.00000000000E+00 0.  1.
         23    2    1    2    0    0 -0.10206579152E+04 -0.41357602442E+03  0.64444578547E+03  0.12792858421E+04  0.92055349823E+02 0.  0.
         11    1    3    3    0    0 -0.47933990100E+03 -0.23229266235E+03  0.34527536181E+03  0.63477688769E+03  0.00000000000E+00 0. -1.
        -11    1    3    3    0    0 -0.54131801422E+03 -0.18128336208E+03  0.29917042366E+03  0.64450895438E+03  0.00000000000E+00 0.  1.
         22    1    1    2    0    0  0.10206579152E+04  0.41357602442E+03  0.19778964493E+03  0.11188871487E+04  0.00000000000E+00 0. -1.
<mgrwt>
<rscale>  0 0.22454116E+04</rscale>
<asrwt>0</asrwt>
<pdfrwt beam="1">  1        2 0.24926219E+00 0.22454116E+04</pdfrwt>
<pdfrwt beam="2">  1       -2 0.11968751E+00 0.22454116E+04</pdfrwt>
<totfact> 0.52889615E+00</totfact>
</mgrwt>
</event>
<event>
 6    1  0.2238133E-007  0.1885821E+04  0.7818608E-02  0.8661947E-01
         -2   -1    0    0    0  501 -0.00000000000E+00  0.00000000000E+00  0.66951426290E+03  0.66951426290E+03  0.00000000000E+00 0.  1.
          2   -1    0    0  501    0  0.00000000000E+00 -0.00000000000E+00 -0.13279477978E+04  0.13279477978E+04  0.00000000000E+00 0. -1.
         23    2    1    2    0    0  0.27088273801E+03  0.32245161251E+02  0.62355922352E+03  0.68676658087E+03  0.91678913515E+02 0.  0.
         11    1    3    3    0    0  0.93465044039E+02 -0.22746882366E+02  0.15126857989E+03  0.17926326555E+03  0.00000000000E+00 0.  1.
        -11    1    3    3    0    0  0.17741769397E+03  0.54992043617E+02  0.47229064364E+03  0.50750331532E+03  0.00000000000E+00 0. -1.
         22    1    1    2    0    0 -0.27088273801E+03 -0.32245161251E+02 -0.12819927585E+04  0.13106954799E+04  0.00000000000E+00 0. -1.
<mgrwt>
<rscale>  0 0.18858208E+04</rscale>
<asrwt>0</asrwt>
<pdfrwt beam="1">  1        2 0.20429966E+00 0.18858208E+04</pdfrwt>
<pdfrwt beam="2">  1       -2 0.10300220E+00 0.18858208E+04</pdfrwt>
<totfact> 0.11494257E+01</totfact>
</mgrwt>
</event>
<event>
 6    1  0.2238133E-007  0.3674293E+04  0.7818608E-02  0.8073683E-01
          2   -1    0    0  501    0  0.00000000000E+00  0.00000000000E+00  0.25269472109E+04  0.25269472109E+04  0.00000000000E+00 0. -1.
         -2   -1    0    0    0  501 -0.00000000000E+00 -0.00000000000E+00 -0.13356464521E+04  0.13356464521E+04  0.00000000000E+00 0.  1.
         23    2    1    2    0    0  0.17226522121E+04 -0.16210379566E+03 -0.49235868943E+02  0.17335705515E+04  0.95049471490E+02 0.  0.
         13    1    3    3    0    0  0.10071609089E+04 -0.13003246388E+03 -0.59846447812E+02  0.10172822299E+04  0.00000000000E+00 0. -1.
        -13    1    3    3    0    0  0.71549130317E+03 -0.32071331777E+02  0.10610578869E+02  0.71628832157E+03  0.00000000000E+00 0.  1.
         22    1    1    2    0    0 -0.17226522121E+04  0.16210379566E+03  0.12405366277E+04  0.21290231114E+04  0.00000000000E+00 0. -1.
<mgrwt>
<rscale>  0 0.36742934E+04</rscale>
<asrwt>0</asrwt>
<pdfrwt beam="1">  1        2 0.38876111E+00 0.36742934E+04</pdfrwt>
<pdfrwt beam="2">  1       -2 0.20548407E+00 0.36742934E+04</pdfrwt>
<totfact> 0.33311144E-01</totfact>
</mgrwt>
</event>
<event>
 6    1  0.2238133E-007  0.2787116E+04  0.7818608E-02  0.8307279E-01
          1   -1    0    0  501    0  0.00000000000E+00  0.00000000000E+00  0.16567859674E+04  0.16567859674E+04  0.00000000000E+00 0. -1.
         -1   -1    0    0    0  501 -0.00000000000E+00 -0.00000000000E+00 -0.11721515012E+04  0.11721515012E+04  0.00000000000E+00 0.  1.
         23    2    1    2    0    0 -0.30421137654E+02  0.93063317388E+03 -0.80777949320E+03  0.12360352770E+04  0.90950240779E+02 0.  0.
         13    1    3    3    0    0  0.16084556386E+02  0.46714708610E+03 -0.36104687391E+03  0.59062675030E+03  0.00000000000E+00 0.  1.
        -13    1    3    3    0    0 -0.46505694040E+02  0.46348608778E+03 -0.44673261929E+03  0.64540852665E+03  0.00000000000E+00 0. -1.
         22    1    1    2    0    0  0.30421137654E+02 -0.93063317388E+03  0.12924139593E+04  0.15929021916E+04  0.00000000000E+00 0. -1.
<mgrwt>
<rscale>  0 0.27871162E+04</rscale>
<asrwt>0</asrwt>
<pdfrwt beam="1">  1        1 0.25489015E+00 0.27871162E+04</pdfrwt>
<pdfrwt beam="2">  1       -1 0.18033100E+00 0.27871162E+04</pdfrwt>
<totfact> 0.91514243E-01</totfact>
</mgrwt>
</event>
<event>
 6    1  0.2238133E-007  0.2897543E+04  0.7818608E-02  0.8273609E-01
         -1   -1    0    0    0  501 -0.00000000000E+00  0.00000000000E+00  0.50122141061E+03  0.50122141061E+03  0.00000000000E+00 0.  1.
          1   -1    0    0  501    0  0.00000000000E+00 -0.00000000000E+00 -0.41876479469E+04  0.41876479469E+04  0.00000000000E+00 0. -1.
         23    2    1    2    0    0 -0.29682863842E+03 -0.10778919221E+04 -0.35947220311E+03  0.11790854081E+04  0.10518506853E+03 0.  0.
         13    1    3    3    0    0 -0.58247323427E+02 -0.40074114481E+03 -0.13492427803E+03  0.42683811525E+03  0.00000000000E+00 0.  1.
        -13    1    3    3    0    0 -0.23858131499E+03 -0.67715077725E+03 -0.22454792508E+03  0.75224729288E+03  0.00000000000E+00 0. -1.
         22    1    1    2    0    0  0.29682863842E+03  0.10778919221E+04 -0.33269543331E+04  0.35097839493E+04  0.00000000000E+00 0. -1.
<mgrwt>
<rscale>  0 0.28975430E+04</rscale>
<asrwt>0</asrwt>
<pdfrwt beam="1">  1        1 0.64425352E+00 0.28975430E+04</pdfrwt>
<pdfrwt beam="2">  1       -1 0.77110988E-01 0.28975430E+04</pdfrwt>
<totfact> 0.94035007E-02</totfact>
</mgrwt>
</event>
<event>
 6    1  0.2238133E-007  0.3808874E+04  0.7818608E-02  0.8044253E-01
         -2   -1    0    0    0  501 -0.00000000000E+00  0.00000000000E+00  0.48757582392E+04  0.48757582392E+04  0.00000000000E+00 0.  1.
          2   -1    0    0  501    0  0.00000000000E+00 -0.00000000000E+00 -0.74385960683E+03  0.74385960683E+03  0.00000000000E+00 0. -1.
         23    2    1    2    0    0  0.16263054829E+03  0.13976600327E+03  0.48574451801E+04  0.48630459566E+04  0.91973187259E+02 0.  0.
         13    1    3    3    0    0  0.58098598865E+02  0.10345379905E+03  0.29595147326E+04  0.29618922310E+04  0.00000000000E+00 0.  1.
        -13    1    3    3    0    0  0.10453194942E+03  0.36312204220E+02  0.18979304476E+04  0.19011537256E+04  0.00000000000E+00 0. -1.
         22    1    1    2    0    0 -0.16263054829E+03 -0.13976600327E+03 -0.72554654776E+03  0.75657188943E+03  0.00000000000E+00 0. -1.
<mgrwt>
<rscale>  0 0.38088736E+04</rscale>
<asrwt>0</asrwt>
<pdfrwt beam="1">  1        2 0.11443994E+00 0.38088736E+04</pdfrwt>
<pdfrwt beam="2">  1       -2 0.75011663E+00 0.38088736E+04</pdfrwt>
<totfact> 0.43459654E-03</totfact>
</mgrwt>
</event>
<event>
 6    1  0.2238133E-007  0.2319692E+04  0.7818608E-02  0.8470197E-01
          1   -1    0    0  501    0  0.00000000000E+00  0.00000000000E+00  0.12622598809E+04  0.12622598809E+04  0.00000000000E+00 0. -1.
         -1   -1    0    0    0  501 -0.00000000000E+00 -0.00000000000E+00 -0.10657414512E+04  0.10657414512E+04  0.00000000000E+00 0.  1.
         23    2    1    2    0    0  0.34664792624E+03  0.23248016370E+03  0.11825193264E+04  0.12572961535E+04  0.90718514543E+02 0.  0.
         13    1    3    3    0    0  0.27774097668E+03  0.18423022158E+03  0.81999013898E+03  0.88513538665E+03  0.00000000000E+00 0. -1.
        -13    1    3    3    0    0  0.68906949560E+02  0.48249942120E+02  0.36252918746E+03  0.37216076683E+03  0.00000000000E+00 0.  1.
         22    1    1    2    0    0 -0.34664792624E+03 -0.23248016370E+03 -0.98600089675E+03  0.10707051787E+04  0.00000000000E+00 0.  1.
<mgrwt>
<rscale>  0 0.23196919E+04</rscale>
<asrwt>0</asrwt>
<pdfrwt beam="1">  1        1 0.19419383E+00 0.23196919E+04</pdfrwt>
<pdfrwt beam="2">  1       -1 0.16396022E+00 0.23196919E+04</pdfrwt>
<totfact> 0.23705720E+00</totfact>
</mgrwt>
</event>
<event>
 6    1  0.2238133E-007  0.1095469E+04  0.7818608E-02  0.9209619E-01
          2   -1    0    0  501    0  0.00000000000E+00  0.00000000000E+00  0.13217602781E+04  0.13217602781E+04  0.00000000000E+00 0. -1.
         -2   -1    0    0    0  501 -0.00000000000E+00 -0.00000000000E+00 -0.22697994781E+03  0.22697994781E+03  0.00000000000E+00 0.  1.
         23    2    1    2    0    0 -0.92338794922E+02 -0.33770719693E+03 -0.37840391836E+02  0.36324357720E+03  0.89114517406E+02 0.  0.
         13    1    3    3    0    0 -0.39587912116E+02 -0.17342118169E+03 -0.63338889075E+02  0.18882246666E+03  0.00000000000E+00 0.  1.
        -13    1    3    3    0    0 -0.52750882806E+02 -0.16428601524E+03  0.25498497239E+02  0.17442111054E+03  0.00000000000E+00 0. -1.
         22    1    1    2    0    0  0.92338794922E+02  0.33770719693E+03  0.11326207221E+04  0.11854966487E+04  0.00000000000E+00 0. -1.
<mgrwt>
<rscale>  0 0.10954690E+04</rscale>
<asrwt>0</asrwt>
<pdfrwt beam="1">  1        2 0.20334773E+00 0.10954690E+04</pdfrwt>
<pdfrwt beam="2">  1       -2 0.34919993E-01 0.10954690E+04</pdfrwt>
<totfact> 0.12257296E+02</totfact>
</mgrwt>
</event>
<event>
 6    1  0.2238133E-007  0.4380601E+04  0.7818608E-02  0.7931880E-01
          2   -1    0    0  501    0  0.00000000000E+00  0.00000000000E+00  0.19525359178E+04  0.19525359178E+04  0.00000000000E+00 0. -1.
         -2   -1    0    0    0  501 -0.00000000000E+00 -0.00000000000E+00 -0.24570181805E+04  0.24570181805E+04  0.00000000000E+00 0.  1.
         23    2    1    2    0    0 -0.10489838813E+04  0.19213191954E+04 -0.28066024184E+03  0.22091152942E+04  0.97905965540E+02 0.  0.
         13    1    3    3    0    0 -0.29492990333E+03  0.57076822691E+03 -0.40009563018E+02  0.64370861565E+03  0.00000000000E+00 0.  1.
        -13    1    3    3    0    0 -0.75405397796E+03  0.13505509685E+04 -0.24065067882E+03  0.15654066786E+04  0.00000000000E+00 0. -1.
         22    1    1    2    0    0  0.10489838813E+04 -0.19213191954E+04 -0.22382202079E+03  0.22004388041E+04  0.00000000000E+00 0.  1.
<mgrwt>
<rscale>  0 0.43806010E+04</rscale>
<asrwt>0</asrwt>
<pdfrwt beam="1">  1        2 0.30039014E+00 0.43806010E+04</pdfrwt>
<pdfrwt beam="2">  1       -2 0.37800280E+00 0.43806010E+04</pdfrwt>
<totfact> 0.56015419E-02</totfact>
</mgrwt>
</event>
<event>
 6    1  0.2238133E-007  0.1692562E+04  0.7818608E-02  0.8765618E-01
         -4   -1    0    0    0  501 -0.00000000000E+00  0.00000000000E+00  0.84979188111E+03  0.84979188111E+03  0.00000000000E+00 0.  1.
          4   -1    0    0  501    0  0.00000000000E+00 -0.00000000000E+00 -0.84278497889E+03  0.84278497889E+03  0.00000000000E+00 0. -1.
         23    2    1    2    0    0  0.44824980832E+03 -0.12387072030E+03 -0.70048110885E+03  0.84592986638E+03  0.93014563182E+02 0.  0.
         13    1    3    3    0    0  0.37075459204E+03 -0.98967421043E+02 -0.63284231700E+03  0.74009655865E+03  0.00000000000E+00 0.  1.
        -13    1    3    3    0    0  0.77495216285E+02 -0.24903299257E+02 -0.67638791854E+02  0.10583330773E+03  0.00000000000E+00 0. -1.
         22    1    1    2    0    0 -0.44824980832E+03  0.12387072030E+03  0.70748801107E+03  0.84664699363E+03  0.00000000000E+00 0.  1.
<mgrwt>
<rscale>  0 0.16925624E+04</rscale>
<asrwt>0</asrwt>
<pdfrwt beam="1">  1        4 0.12965923E+00 0.16925624E+04</pdfrwt>
<pdfrwt beam="2">  1       -4 0.13073721E+00 0.16925624E+04</pdfrwt>
<totfact> 0.35368577E-01</totfact>
</mgrwt>
</event>
<event>
 6    1  0.2238133E-007  0.1011765E+04  0.7818608E-02  0.9295735E-01
          2   -1    0    0  501    0  0.00000000000E+00  0.00000000000E+00  0.41217076408E+03  0.41217076408E+03  0.00000000000E+00 0. -1.
         -2   -1    0    0    0  501 -0.00000000000E+00 -0.00000000000E+00 -0.62090037018E+03  0.62090037018E+03  0.00000000000E+00 0.  1.
         23    2    1    2    0    0 -0.27825469169E+03 -0.13054423707E+02 -0.53155781847E+03  0.60667443385E+03  0.88904796775E+02 0.  0.
         11    1    3    3    0    0 -0.18984304399E+03 -0.42873055496E+02 -0.30686949427E+03  0.36338322299E+03  0.00000000000E+00 0. -1.
        -11    1    3    3    0    0 -0.88411647698E+02  0.29818631789E+02 -0.22468832419E+03  0.24329121085E+03  0.00000000000E+00 0.  1.
         22    1    1    2    0    0  0.27825469169E+03  0.13054423707E+02  0.32282821236E+03  0.42639670041E+03  0.00000000000E+00 0. -1.
<mgrwt>
<rscale>  0 0.10117648E+04</rscale>
<asrwt>0</asrwt>
<pdfrwt beam="1">  1        2 0.63410887E-01 0.10117648E+04</pdfrwt>
<pdfrwt beam="2">  1       -2 0.95523134E-01 0.10117648E+04</pdfrwt>
<totfact> 0.70595560E+01</totfact>
</mgrwt>
</event>
<event>
 6    1  0.3666669E-007  0.2764335E+04  0.7818608E-02  0.8314427E-01
         -2   -1    0    0    0  501 -0.00000000000E+00  0.00000000000E+00  0.92787325104E+03  0.92787325104E+03  0.00000000000E+00 0.  1.
          2   -1    0    0  501    0  0.00000000000E+00 -0.00000000000E+00 -0.20588876160E+04  0.20588876160E+04  0.00000000000E+00 0. -1.
         23    2    1    2    0    0  0.51652347243E+03  0.27496597547E+03  0.78516980130E+03  0.98322286034E+03  0.88503056316E+02 0.  0.
         13    1    3    3    0    0  0.26683529264E+03  0.10672658525E+03  0.33140942555E+03  0.43866142382E+03  0.00000000000E+00 0. -1.
        -13    1    3    3    0    0  0.24968817979E+03  0.16823939022E+03  0.45376037575E+03  0.54456143652E+03  0.00000000000E+00 0.  1.
         22    1    1    2    0    0 -0.51652347243E+03 -0.27496597547E+03 -0.19161841662E+04  0.20035380067E+04  0.00000000000E+00 0. -1.
<mgrwt>
<rscale>  0 0.27643348E+04</rscale>
<asrwt>0</asrwt>
<pdfrwt beam="1">  1        2 0.31675194E+00 0.27643348E+04</pdfrwt>
<pdfrwt beam="2">  1       -2 0.14274973E+00 0.27643348E+04</pdfrwt>
<totfact> 0.18457400E+00</totfact>
</mgrwt>
</event>
<event>
 6    1  0.2238133E-007  0.1449406E+04  0.7818608E-02  0.8918813E-01
         -1   -1    0    0    0  501 -0.00000000000E+00  0.00000000000E+00  0.25506725379E+03  0.25506725379E+03  0.00000000000E+00 0.  1.
          1   -1    0    0  501    0  0.00000000000E+00 -0.00000000000E+00 -0.20590418488E+04  0.20590418488E+04  0.00000000000E+00 0. -1.
         23    2    1    2    0    0 -0.88362817527E+02  0.71585446569E+03 -0.93861393326E+03  0.11875636404E+04  0.95161340082E+02 0.  0.
         11    1    3    3    0    0 -0.38399336271E+02  0.56851041844E+03 -0.77319342840E+03  0.96047211444E+03  0.00000000000E+00 0.  1.
        -11    1    3    3    0    0 -0.49963481257E+02  0.14734404725E+03 -0.16542050486E+03  0.22709152592E+03  0.00000000000E+00 0. -1.
         22    1    1    2    0    0  0.88362817527E+02 -0.71585446569E+03 -0.86536066177E+03  0.11265454622E+04  0.00000000000E+00 0. -1.
<mgrwt>
<rscale>  0 0.14494056E+04</rscale>
<asrwt>0</asrwt>
<pdfrwt beam="1">  1        1 0.31677567E+00 0.14494056E+04</pdfrwt>
<pdfrwt beam="2">  1       -1 0.39241115E-01 0.14494056E+04</pdfrwt>
<totfact> 0.16664375E+01</totfact>
</mgrwt>
</event>
<event>
 6    1  0.2238133E-007  0.3105536E+04  0.7818608E-02  0.8214220E-01
         -1   -1    0    0    0  501 -0.00000000000E+00  0.00000000000E+00  0.15226863724E+04  0.15226863724E+04  0.00000000000E+00 0.  1.
          1   -1    0    0  501    0  0.00000000000E+00 -0.00000000000E+00 -0.15834434181E+04  0.15834434181E+04  0.00000000000E+00 0. -1.
         23    2    1    2    0    0 -0.47063188225E+03 -0.13466606902E+04  0.57971959983E+03  0.15424163524E+04  0.89353268740E+02 0.  0.
         13    1    3    3    0    0 -0.13126610472E+03 -0.46594230008E+03  0.22910254293E+03  0.53555671262E+03  0.00000000000E+00 0.  1.
        -13    1    3    3    0    0 -0.33936577753E+03 -0.88071839013E+03  0.35061705689E+03  0.10068596398E+04  0.00000000000E+00 0. -1.
         22    1    1    2    0    0  0.47063188225E+03  0.13466606902E+04 -0.64047664551E+03  0.15637134381E+04  0.00000000000E+00 0. -1.
<mgrwt>
<rscale>  0 0.31055355E+04</rscale>
<asrwt>0</asrwt>
<pdfrwt beam="1">  1        1 0.24360668E+00 0.31055355E+04</pdfrwt>
<pdfrwt beam="2">  1       -1 0.23425944E+00 0.31055355E+04</pdfrwt>
<totfact> 0.42738186E-01</totfact>
</mgrwt>
</event>
<event>
 6    1  0.2238133E-007  0.1587657E+04  0.7818608E-02  0.8828167E-01
          2   -1    0    0  501    0  0.00000000000E+00  0.00000000000E+00  0.23696170176E+04  0.23696170176E+04  0.00000000000E+00 0. -1.
         -2   -1    0    0    0  501 -0.00000000000E+00 -0.00000000000E+00 -0.26593469582E+03  0.26593469582E+03  0.00000000000E+00 0.  1.
         23    2    1    2    0    0 -0.65980282063E+03  0.59324567561E+02  0.33524228030E+03  0.74710278725E+03  0.83162622548E+02 0.  0.
         13    1    3    3    0    0 -0.23397477609E+03  0.26292269405E+01  0.15828278361E+03  0.28249698807E+03  0.00000000000E+00 0.  1.
        -13    1    3    3    0    0 -0.42582804453E+03  0.56695340621E+02  0.17695949669E+03  0.46460579918E+03  0.00000000000E+00 0. -1.
         22    1    1    2    0    0  0.65980282063E+03 -0.59324567561E+02  0.17684400415E+04  0.18884489262E+04  0.00000000000E+00 0. -1.
<mgrwt>
<rscale>  0 0.15876566E+04</rscale>
<asrwt>0</asrwt>
<pdfrwt beam="1">  1        2 0.36455645E+00 0.15876566E+04</pdfrwt>
<pdfrwt beam="2">  1       -2 0.40913032E-01 0.15876566E+04</pdfrwt>
<totfact> 0.22505505E+01</totfact>
</mgrwt>
</event>
<event>
 6    1  0.2238133E-007  0.7828158E+03  0.7818608E-02  0.9585229E-01
         -2   -1    0    0    0  501 -0.00000000000E+00  0.00000000000E+00  0.54410049842E+02  0.54410049842E+02  0.00000000000E+00 0.  1.
          2   -1    0    0  501    0  0.00000000000E+00 -0.00000000000E+00 -0.28156589738E+04  0.28156589738E+04  0.00000000000E+00 0. -1.
         23    2    1    2    0    0 -0.37389172513E+03 -0.14724522791E+02 -0.17450515288E+04  0.17871706075E+04  0.93606135277E+02 0.  0.
         11    1    3    3    0    0 -0.22078283991E+03 -0.54019047190E+02 -0.10662152104E+04  0.10901733782E+04  0.00000000000E+00 0. -1.
        -11    1    3    3    0    0 -0.15310888522E+03  0.39294524400E+02 -0.67883631843E+03  0.69699722927E+03  0.00000000000E+00 0.  1.
         22    1    1    2    0    0  0.37389172513E+03  0.14724522791E+02 -0.10161973952E+04  0.10828984161E+04  0.00000000000E+00 0.  1.
<mgrwt>
<rscale>  0 0.78281580E+03</rscale>
<asrwt>0</asrwt>
<pdfrwt beam="1">  1        2 0.43317843E+00 0.78281580E+03</pdfrwt>
<pdfrwt beam="2">  1       -2 0.83707744E-02 0.78281580E+03</pdfrwt>
<totfact> 0.21631907E+02</totfact>
</mgrwt>
</event>
<event>
 6    1  0.2238133E-007  0.5488204E+04  0.7818608E-02  0.7757314E-01
         -2   -1    0    0    0  501 -0.00000000000E+00  0.00000000000E+00  0.18711339261E+04  0.18711339261E+04  0.00000000000E+00 0.  1.
          2   -1    0    0  501    0  0.00000000000E+00 -0.00000000000E+00 -0.40243492786E+04  0.40243492786E+04  0.00000000000E+00 0. -1.
         23    2    1    2    0    0 -0.15308528319E+04  0.49165612009E+03 -0.34646356526E+04  0.38206195136E+04  0.90537997527E+02 0.  0.
         13    1    3    3    0    0 -0.43372621805E+03  0.16425085309E+03 -0.10796945999E+04  0.11750902961E+04  0.00000000000E+00 0.  1.
        -13    1    3    3    0    0 -0.10971266138E+04  0.32740526700E+03 -0.23849410528E+04  0.26455292175E+04  0.00000000000E+00 0. -1.
         22    1    1    2    0    0  0.15308528319E+04 -0.49165612009E+03  0.13114203001E+04  0.20748636911E+04  0.00000000000E+00 0.  1.
<mgrwt>
<rscale>  0 0.54882042E+04</rscale>
<asrwt>0</asrwt>
<pdfrwt beam="1">  1        2 0.61913065E+00 0.54882042E+04</pdfrwt>
<pdfrwt beam="2">  1       -2 0.28786676E+00 0.54882042E+04</pdfrwt>
<totfact> 0.85871624E-03</totfact>
</mgrwt>
</event>
<event>
 6    1  0.2238133E-007  0.7553180E+03  0.7818608E-02  0.9627044E-01
         -1   -1    0    0    0  501 -0.00000000000E+00  0.00000000000E+00  0.12088163002E+04  0.12088163002E+04  0.00000000000E+00 0.  1.
          1   -1    0    0  501    0  0.00000000000E+00 -0.00000000000E+00 -0.11798840627E+03  0.11798840627E+03  0.00000000000E+00 0. -1.
         23    2    1    2    0    0  0.64936397000E+02  0.30990395131E+03  0.89595920755E+03  0.95501040901E+03  0.95104074721E+02 0.  0.
         13    1    3    3    0    0  0.62992824600E+02  0.14301230233E+03  0.53454012326E+03  0.55691449788E+03  0.00000000000E+00 0.  1.
        -13    1    3    3    0    0  0.19435724002E+01  0.16689164897E+03  0.36141908429E+03  0.39809591113E+03  0.00000000000E+00 0. -1.
         22    1    1    2    0    0 -0.64936397000E+02 -0.30990395131E+03  0.19486868636E+03  0.37179429745E+03  0.00000000000E+00 0.  1.
<mgrwt>
<rscale>  0 0.75531797E+03</rscale>
<asrwt>0</asrwt>
<pdfrwt beam="1">  1        1 0.18152063E-01 0.75531797E+03</pdfrwt>
<pdfrwt beam="2">  1       -1 0.18597173E+00 0.75531797E+03</pdfrwt>
<totfact> 0.57471807E+01</totfact>
</mgrwt>
</event>
<event>
 6    1  0.2238133E-007  0.3009562E+04  0.7818608E-02  0.8241006E-01
          2   -1    0    0  501    0  0.00000000000E+00  0.00000000000E+00  0.38027718875E+04  0.38027718875E+04  0.00000000000E+00 0. -1.
         -2   -1    0    0    0  501 -0.00000000000E+00 -0.00000000000E+00 -0.59545120645E+03  0.59545120645E+03  0.00000000000E+00 0.  1.
         23    2    1    2    0    0  0.13110557060E+04 -0.69468321662E+03  0.19645316252E+04  0.24627705699E+04  0.66351623937E+02 0.  0.
         13    1    3    3    0    0  0.42851160139E+03 -0.25065971323E+03  0.61867330340E+03  0.79322704235E+03  0.00000000000E+00 0. -1.
        -13    1    3    3    0    0  0.88254410457E+03 -0.44402350339E+03  0.13458583217E+04  0.16695435275E+04  0.00000000000E+00 0.  1.
         22    1    1    2    0    0 -0.13110557060E+04  0.69468321662E+03  0.12427890559E+04  0.19354525241E+04  0.00000000000E+00 0.  1.
<mgrwt>
<rscale>  0 0.30095615E+04</rscale>
<asrwt>0</asrwt>
<pdfrwt beam="1">  1        2 0.58504181E+00 0.30095615E+04</pdfrwt>
<pdfrwt beam="2">  1       -2 0.91607880E-01 0.30095615E+04</pdfrwt>
<totfact> 0.42372956E-01</totfact>
</mgrwt>
</event>
<event>
 6    1  0.2238133E-007  0.3212923E+04  0.7818608E-02  0.8185412E-01
          2   -1    0    0  501    0  0.00000000000E+00  0.00000000000E+00  0.31613497240E+04  0.31613497240E+04  0.00000000000E+00 0. -1.
         -2   -1    0    0    0  501 -0.00000000000E+00 -0.00000000000E+00 -0.81633465579E+03  0.81633465579E+03  0.00000000000E+00 0.  1.
         23    2    1    2    0    0 -0.97282886646E+01  0.10248192873E+04  0.27029735235E+04  0.28921045959E+04  0.88622307887E+02 0.  0.
         11    1    3    3    0    0 -0.43842037207E+02  0.33630884631E+03  0.91694440682E+03  0.97765679537E+03  0.00000000000E+00 0.  1.
        -11    1    3    3    0    0  0.34113748542E+02  0.68851044103E+03  0.17860291167E+04  0.19144478005E+04  0.00000000000E+00 0. -1.
         22    1    1    2    0    0  0.97282886646E+01 -0.10248192873E+04 -0.35795845537E+03  0.10855797838E+04  0.00000000000E+00 0.  1.
<mgrwt>
<rscale>  0 0.32129235E+04</rscale>
<asrwt>0</asrwt>
<pdfrwt beam="1">  1        2 0.48636149E+00 0.32129235E+04</pdfrwt>
<pdfrwt beam="2">  1       -2 0.12558995E+00 0.32129235E+04</pdfrwt>
<totfact> 0.54716508E-01</totfact>
</mgrwt>
</event>
<event>
 6    1  0.2238133E-007  0.2134609E+04  0.7818608E-02  0.8546149E-01
         -2   -1    0    0    0  501 -0.00000000000E+00  0.00000000000E+00  0.51560889693E+03  0.51560889693E+03  0.00000000000E+00 0.  1.
          2   -1    0    0  501    0  0.00000000000E+00 -0.00000000000E+00 -0.22093086027E+04  0.22093086027E+04  0.00000000000E+00 0. -1.
         23    2    1    2    0    0 -0.41805882548E+03  0.66555312344E+03  0.70523036340E+02  0.79354078199E+03  0.83662012534E+02 0.  0.
         11    1    3    3    0    0 -0.29418474557E+03  0.40054535748E+03  0.26101358719E+02  0.49765703938E+03  0.00000000000E+00 0. -1.
        -11    1    3    3    0    0 -0.12387407991E+03  0.26500776597E+03  0.44421677621E+02  0.29588374261E+03  0.00000000000E+00 0.  1.
         22    1    1    2    0    0  0.41805882548E+03 -0.66555312344E+03 -0.17642227421E+04  0.19313767176E+04  0.00000000000E+00 0. -1.
<mgrwt>
<rscale>  0 0.21346093E+04</rscale>
<asrwt>0</asrwt>
<pdfrwt beam="1">  1        2 0.33989363E+00 0.21346093E+04</pdfrwt>
<pdfrwt beam="2">  1       -2 0.79324445E-01 0.21346093E+04</pdfrwt>
<totfact> 0.66049862E+00</totfact>
</mgrwt>
</event>
<event>
 6    1  0.2238133E-007  0.2993266E+04  0.7818608E-02  0.8245657E-01
          2   -1    0    0  501    0  0.00000000000E+00  0.00000000000E+00  0.39145107731E+04  0.39145107731E+04  0.00000000000E+00 0. -1.
         -2   -1    0    0    0  501 -0.00000000000E+00 -0.00000000000E+00 -0.57220686015E+03  0.57220686015E+03  0.00000000000E+00 0.  1.
         23    2    1    2    0    0  0.11838305048E+04  0.47843658592E+03  0.28396319134E+04  0.31144802741E+04  0.78241570480E+02 0.  0.
         11    1    3    3    0    0  0.94908936187E+03  0.36979688917E+03  0.23319403693E+04  0.25446937423E+04  0.00000000000E+00 0.  1.
        -11    1    3    3    0    0  0.23474114289E+03  0.10863969676E+03  0.50769154408E+03  0.56978653179E+03  0.00000000000E+00 0. -1.
         22    1    1    2    0    0 -0.11838305048E+04 -0.47843658592E+03  0.50267199955E+03  0.13722373592E+04  0.00000000000E+00 0.  1.
<mgrwt>
<rscale>  0 0.29932657E+04</rscale>
<asrwt>0</asrwt>
<pdfrwt beam="1">  1        2 0.60223241E+00 0.29932657E+04</pdfrwt>
<pdfrwt beam="2">  1       -2 0.88031827E-01 0.29932657E+04</pdfrwt>
<totfact> 0.38113526E-01</totfact>
</mgrwt>
</event>
<event>
 6    1  0.2238133E-007  0.6420155E+04  0.7818608E-02  0.7640383E-01
          2   -1    0    0  501    0  0.00000000000E+00  0.00000000000E+00  0.34025301339E+04  0.34025301339E+04  0.00000000000E+00 0. -1.
         -2   -1    0    0    0  501 -0.00000000000E+00 -0.00000000000E+00 -0.30285107447E+04  0.30285107447E+04  0.00000000000E+00 0.  1.
         23    2    1    2    0    0  0.14496126646E+04 -0.28255557692E+04  0.65176874626E+03  0.32432066628E+04  0.91894922542E+02 0.  0.
         11    1    3    3    0    0  0.10219808209E+04 -0.19054749465E+04  0.46051442033E+03  0.22107358733E+04  0.00000000000E+00 0.  1.
        -11    1    3    3    0    0  0.42763184372E+03 -0.92008082267E+03  0.19125432593E+03  0.10324707895E+04  0.00000000000E+00 0. -1.
         22    1    1    2    0    0 -0.14496126646E+04  0.28255557692E+04 -0.27774935714E+03  0.31878342158E+04  0.00000000000E+00 0. -1.
<mgrwt>
<rscale>  0 0.64201555E+04</rscale>
<asrwt>0</asrwt>
<pdfrwt beam="1">  1        2 0.52346618E+00 0.64201555E+04</pdfrwt>
<pdfrwt beam="2">  1       -2 0.46592473E+00 0.64201555E+04</pdfrwt>
<totfact> 0.16970393E-03</totfact>
</mgrwt>
</event>
<event>
 6    1  0.2238133E-007  0.1647300E+04  0.7818608E-02  0.8792005E-01
          2   -1    0    0  501    0  0.00000000000E+00  0.00000000000E+00  0.13220401034E+04  0.13220401034E+04  0.00000000000E+00 0. -1.
         -2   -1    0    0    0  501 -0.00000000000E+00 -0.00000000000E+00 -0.51314581977E+03  0.51314581977E+03  0.00000000000E+00 0.  1.
         23    2    1    2    0    0  0.51722279507E+03  0.44374953044E+03 -0.10446820820E+03  0.69559647649E+03  0.92237660832E+02 0.  0.
         13    1    3    3    0    0  0.10496098163E+03  0.13527542457E+03 -0.56993266206E+01  0.17131471180E+03  0.00000000000E+00 0.  1.
        -13    1    3    3    0    0  0.41226181344E+03  0.30847410588E+03 -0.98768881584E+02  0.52428176469E+03  0.00000000000E+00 0. -1.
         22    1    1    2    0    0 -0.51722279507E+03 -0.44374953044E+03  0.91336249184E+03  0.11395894467E+04  0.00000000000E+00 0.  1.
<mgrwt>
<rscale>  0 0.16473000E+04</rscale>
<asrwt>0</asrwt>
<pdfrwt beam="1">  1        2 0.20339078E+00 0.16473000E+04</pdfrwt>
<pdfrwt beam="2">  1       -2 0.78945511E-01 0.16473000E+04</pdfrwt>
<totfact> 0.21840481E+01</totfact>
</mgrwt>
</event>
<event>
 6    1  0.2238133E-007  0.3652797E+04  0.7818608E-02  0.8078504E-01
          2   -1    0    0  501    0  0.00000000000E+00  0.00000000000E+00  0.31460410940E+04  0.31460410940E+04  0.00000000000E+00 0. -1.
         -2   -1    0    0    0  501 -0.00000000000E+00 -0.00000000000E+00 -0.10602947327E+04  0.10602947327E+04  0.00000000000E+00 0.  1.
         23    2    1    2    0    0  0.94707910367E+03  0.99346126617E+03  0.24290372228E+04  0.27914956479E+04  0.91115345557E+02 0.  0.
         11    1    3    3    0    0  0.52884714655E+03  0.52910650473E+03  0.14078399346E+04  0.15942541452E+04  0.00000000000E+00 0. -1.
        -11    1    3    3    0    0  0.41823195712E+03  0.46435476144E+03  0.10211972882E+04  0.11972415027E+04  0.00000000000E+00 0.  1.
         22    1    1    2    0    0 -0.94707910367E+03 -0.99346126617E+03 -0.34329086158E+03  0.14148401788E+04  0.00000000000E+00 0.  1.
<mgrwt>
<rscale>  0 0.36527966E+04</rscale>
<asrwt>0</asrwt>
<pdfrwt beam="1">  1        2 0.48400632E+00 0.36527966E+04</pdfrwt>
<pdfrwt beam="2">  1       -2 0.16312227E+00 0.36527966E+04</pdfrwt>
<totfact> 0.27230181E-01</totfact>
</mgrwt>
</event>
<event>
 6    1  0.2238133E-007  0.3893209E+04  0.7818608E-02  0.8026443E-01
          2   -1    0    0  501    0  0.00000000000E+00  0.00000000000E+00  0.19970842510E+04  0.19970842510E+04  0.00000000000E+00 0. -1.
         -2   -1    0    0    0  501 -0.00000000000E+00 -0.00000000000E+00 -0.18974007581E+04  0.18974007581E+04  0.00000000000E+00 0.  1.
         23    2    1    2    0    0 -0.18396236575E+04  0.40309627037E+03 -0.43894472320E+03  0.19357042252E+04  0.87043513931E+02 0.  0.
         13    1    3    3    0    0 -0.14072726865E+04  0.32203502818E+03 -0.30096694529E+03  0.14746877893E+04  0.00000000000E+00 0.  1.
        -13    1    3    3    0    0 -0.43235097093E+03  0.81061242191E+02 -0.13797777791E+03  0.46101643598E+03  0.00000000000E+00 0. -1.
         22    1    1    2    0    0  0.18396236575E+04 -0.40309627037E+03  0.53862821608E+03  0.19587807839E+04  0.00000000000E+00 0. -1.
<mgrwt>
<rscale>  0 0.38932090E+04</rscale>
<asrwt>0</asrwt>
<pdfrwt beam="1">  1        2 0.30724373E+00 0.38932090E+04</pdfrwt>
<pdfrwt beam="2">  1       -2 0.29190781E+00 0.38932090E+04</pdfrwt>
<totfact> 0.19008784E-01</totfact>
</mgrwt>
</event>
<event>
 6    1  0.2238133E-007  0.2810820E+04  0.7818608E-02  0.8299917E-01
          2   -1    0    0  501    0  0.00000000000E+00  0.00000000000E+00  0.21581489900E+04  0.21581489900E+04  0.00000000000E+00 0. -1.
         -2   -1    0    0    0  501 -0.00000000000E+00 -0.00000000000E+00 -0.91521821268E+03  0.91521821268E+03  0.00000000000E+00 0.  1.
         23    2    1    2    0    0 -0.11997362857E+03  0.12722866852E+04  0.12577222550E+04  0.17953508222E+04  0.91171394302E+02 0.  0.
         13    1    3    3    0    0 -0.10185939319E+03  0.65989330940E+03  0.68773502454E+03  0.95854784948E+03  0.00000000000E+00 0.  1.
        -13    1    3    3    0    0 -0.18114235379E+02  0.61239337582E+03  0.56998723047E+03  0.83680297273E+03  0.00000000000E+00 0. -1.
         22    1    1    2    0    0  0.11997362857E+03 -0.12722866852E+04 -0.14791477701E+02  0.12780163805E+04  0.00000000000E+00 0.  1.
<mgrwt>
<rscale>  0 0.28108200E+04</rscale>
<asrwt>0</asrwt>
<pdfrwt beam="1">  1        2 0.33202292E+00 0.28108200E+04</pdfrwt>
<pdfrwt beam="2">  1       -2 0.14080280E+00 0.28108200E+04</pdfrwt>
<totfact> 0.16769674E+00</totfact>
</mgrwt>
</event>
<event>
 6    1  0.2238133E-007  0.3418683E+04  0.7818608E-02  0.8133336E-01
         -2   -1    0    0    0  501 -0.00000000000E+00  0.00000000000E+00  0.84940494809E+03  0.84940494809E+03  0.00000000000E+00 0.  1.
          2   -1    0    0  501    0  0.00000000000E+00 -0.00000000000E+00 -0.34398761975E+04  0.34398761975E+04  0.00000000000E+00 0. -1.
         23    2    1    2    0    0 -0.55981369309E+03 -0.15205878129E+04 -0.19737446017E+04  0.25555192168E+04  0.97118724151E+02 0.  0.
         13    1    3    3    0    0 -0.27536734093E+03 -0.66713716083E+03 -0.81688595196E+03  0.10900467065E+04  0.00000000000E+00 0. -1.
        -13    1    3    3    0    0 -0.28444635216E+03 -0.85345065210E+03 -0.11568586498E+04  0.14654725103E+04  0.00000000000E+00 0.  1.
         22    1    1    2    0    0  0.55981369309E+03  0.15205878129E+04 -0.61672664761E+03  0.17337619288E+04  0.00000000000E+00 0.  1.
<mgrwt>
<rscale>  0 0.34186827E+04</rscale>
<asrwt>0</asrwt>
<pdfrwt beam="1">  1        2 0.52921173E+00 0.34186827E+04</pdfrwt>
<pdfrwt beam="2">  1       -2 0.13067768E+00 0.34186827E+04</pdfrwt>
<totfact> 0.31690261E-01</totfact>
</mgrwt>
</event>
<event>
 6    1  0.2238133E-007  0.2906007E+04  0.7818608E-02  0.8271092E-01
         -2   -1    0    0    0  501 -0.00000000000E+00  0.00000000000E+00  0.10456672704E+04  0.10456672704E+04  0.00000000000E+00 0.  1.
          2   -1    0    0  501    0  0.00000000000E+00 -0.00000000000E+00 -0.20190160531E+04  0.20190160531E+04  0.00000000000E+00 0. -1.
         23    2    1    2    0    0 -0.11059765962E+04  0.77323983212E+03  0.76859542252E+02  0.13547062491E+04  0.90761020482E+02 0.  0.
         11    1    3    3    0    0 -0.10098455361E+04  0.71187955475E+03  0.45281189695E+02  0.12363700471E+04  0.00000000000E+00 0. -1.
        -11    1    3    3    0    0 -0.96131060088E+02  0.61360277378E+02  0.31578352557E+02  0.11833620200E+03  0.00000000000E+00 0.  1.
         22    1    1    2    0    0  0.11059765962E+04 -0.77323983212E+03 -0.10502083249E+04  0.17099770744E+04  0.00000000000E+00 0. -1.
<mgrwt>
<rscale>  0 0.29060069E+04</rscale>
<asrwt>0</asrwt>
<pdfrwt beam="1">  1        2 0.31061785E+00 0.29060069E+04</pdfrwt>
<pdfrwt beam="2">  1       -2 0.16087189E+00 0.29060069E+04</pdfrwt>
<totfact> 0.13960524E+00</totfact>
</mgrwt>
</event>
<event>
 6    1  0.2238133E-007  0.3080414E+04  0.7818608E-02  0.8221134E-01
          2   -1    0    0  501    0  0.00000000000E+00  0.00000000000E+00  0.39785825674E+04  0.39785825674E+04  0.00000000000E+00 0. -1.
         -2   -1    0    0    0  501 -0.00000000000E+00 -0.00000000000E+00 -0.59625192002E+03  0.59625192002E+03  0.00000000000E+00 0.  1.
         23    2    1    2    0    0 -0.78553642474E+03  0.70001739002E+03  0.33603745218E+04  0.35224211217E+04  0.90784418679E+02 0.  0.
         13    1    3    3    0    0 -0.58910738509E+03  0.56592792314E+03  0.25254479914E+04  0.26542813495E+04  0.00000000000E+00 0. -1.
        -13    1    3    3    0    0 -0.19642903965E+03  0.13408946688E+03  0.83492653046E+03  0.86813977216E+03  0.00000000000E+00 0.  1.
         22    1    1    2    0    0  0.78553642474E+03 -0.70001739002E+03  0.21956125564E+02  0.10524133657E+04  0.00000000000E+00 0.  1.
<mgrwt>
<rscale>  0 0.30804139E+04</rscale>
<asrwt>0</asrwt>
<pdfrwt beam="1">  1        2 0.61208961E+00 0.30804139E+04</pdfrwt>
<pdfrwt beam="2">  1       -2 0.91731067E-01 0.30804139E+04</pdfrwt>
<totfact> 0.30582779E-01</totfact>
</mgrwt>
</event>
<event>
 6    1  0.2238133E-007  0.4937040E+04  0.7818608E-02  0.7838293E-01
          2   -1    0    0  501    0  0.00000000000E+00  0.00000000000E+00  0.15354183616E+04  0.15354183616E+04  0.00000000000E+00 0. -1.
         -2   -1    0    0    0  501 -0.00000000000E+00 -0.00000000000E+00 -0.39686849543E+04  0.39686849543E+04  0.00000000000E+00 0.  1.
         23    2    1    2    0    0  0.16211704971E+04 -0.16385958531E+04 -0.23512296763E+03  0.23189776439E+04  0.95835027505E+02 0.  0.
         11    1    3    3    0    0  0.12489653324E+04 -0.12213878615E+04 -0.14866609932E+03  0.17532268304E+04  0.00000000000E+00 0. -1.
        -11    1    3    3    0    0  0.37220516467E+03 -0.41720799158E+03 -0.86456868306E+02  0.56575081345E+03  0.00000000000E+00 0.  1.
         22    1    1    2    0    0 -0.16211704971E+04  0.16385958531E+04 -0.21981436250E+04  0.31851256720E+04  0.00000000000E+00 0.  1.
<mgrwt>
<rscale>  0 0.49370403E+04</rscale>
<asrwt>0</asrwt>
<pdfrwt beam="1">  1        2 0.23621821E+00 0.49370403E+04</pdfrwt>
<pdfrwt beam="2">  1       -2 0.61056691E+00 0.49370403E+04</pdfrwt>
<totfact> 0.41408246E-03</totfact>
</mgrwt>
</event>
<event>
 6    1  0.2238133E-007  0.1446108E+04  0.7818608E-02  0.8921103E-01
          2   -1    0    0  501    0  0.00000000000E+00  0.00000000000E+00  0.71355355531E+03  0.71355355531E+03  0.00000000000E+00 0. -1.
         -2   -1    0    0    0  501 -0.00000000000E+00 -0.00000000000E+00 -0.73268123954E+03  0.73268123954E+03  0.00000000000E+00 0.  1.
         23    2    1    2    0    0 -0.47845809807E+03 -0.99160980188E+02  0.51933920452E+03  0.71911606872E+03  0.93057290616E+02 0.  0.
         11    1    3    3    0    0 -0.84346766611E+02 -0.11249912749E+02  0.14700812638E+03  0.16985972683E+03  0.00000000000E+00 0.  1.
        -11    1    3    3    0    0 -0.39411133146E+03 -0.87911067439E+02  0.37233107814E+03  0.54925634189E+03  0.00000000000E+00 0. -1.
         22    1    1    2    0    0  0.47845809807E+03  0.99160980188E+02 -0.53846688876E+03  0.72711872613E+03  0.00000000000E+00 0.  1.
<mgrwt>
<rscale>  0 0.14461083E+04</rscale>
<asrwt>0</asrwt>
<pdfrwt beam="1">  1        2 0.10977747E+00 0.14461083E+04</pdfrwt>
<pdfrwt beam="2">  1       -2 0.11272019E+00 0.14461083E+04</pdfrwt>
<totfact> 0.24016321E+01</totfact>
</mgrwt>
</event>
<event>
 6    1  0.2238133E-007  0.5011665E+04  0.7818608E-02  0.7826710E-01
         -1   -1    0    0    0  501 -0.00000000000E+00  0.00000000000E+00  0.18749944075E+04  0.18749944075E+04  0.00000000000E+00 0.  1.
          1   -1    0    0  501    0  0.00000000000E+00 -0.00000000000E+00 -0.33489141800E+04  0.33489141800E+04  0.00000000000E+00 0. -1.
         23    2    1    2    0    0 -0.19762619304E+04  0.22845205128E+02 -0.23415278300E+04  0.30654654303E+04  0.90513008892E+02 0.  0.
         13    1    3    3    0    0 -0.11663443615E+04  0.12129504680E+02 -0.14503975018E+04  0.18612251900E+04  0.00000000000E+00 0. -1.
        -13    1    3    3    0    0 -0.80991756890E+03  0.10715700448E+02 -0.89113032825E+03  0.12042402404E+04  0.00000000000E+00 0.  1.
         22    1    1    2    0    0  0.19762619304E+04 -0.22845205128E+02  0.86760805759E+03  0.21584431572E+04  0.00000000000E+00 0.  1.
<mgrwt>
<rscale>  0 0.50116645E+04</rscale>
<asrwt>0</asrwt>
<pdfrwt beam="1">  1        1 0.51521756E+00 0.50116645E+04</pdfrwt>
<pdfrwt beam="2">  1       -1 0.28846068E+00 0.50116645E+04</pdfrwt>
<totfact> 0.92643555E-03</totfact>
</mgrwt>
</event>
<event>
 6    1  0.2238133E-007  0.2557816E+04  0.7818608E-02  0.8382673E-01
          2   -1    0    0  501    0  0.00000000000E+00  0.00000000000E+00  0.31693323190E+04  0.31693323190E+04  0.00000000000E+00 0. -1.
         -2   -1    0    0    0  501 -0.00000000000E+00 -0.00000000000E+00 -0.51607265393E+03  0.51607265393E+03  0.00000000000E+00 0.  1.
         23    2    1    2    0    0  0.14662659793E+03 -0.77299497974E+03 -0.12104518619E+03  0.80169416814E+03  0.95084195359E+02 0.  0.
         13    1    3    3    0    0  0.15343925981E+03 -0.60877559457E+03 -0.86547119460E+02  0.63375210838E+03  0.00000000000E+00 0. -1.
        -13    1    3    3    0    0 -0.68126618740E+01 -0.16421938517E+03 -0.34498066727E+02  0.16794205976E+03  0.00000000000E+00 0.  1.
         22    1    1    2    0    0 -0.14662659793E+03  0.77299497974E+03  0.27743048512E+04  0.28837108048E+04  0.00000000000E+00 0. -1.
<mgrwt>
<rscale>  0 0.25578161E+04</rscale>
<asrwt>0</asrwt>
<pdfrwt beam="1">  1        2 0.48758957E+00 0.25578161E+04</pdfrwt>
<pdfrwt beam="2">  1       -2 0.79395795E-01 0.25578161E+04</pdfrwt>
<totfact> 0.16950292E+00</totfact>
</mgrwt>
</event>
<event>
 6    1  0.2238133E-007  0.4387604E+04  0.7818608E-02  0.7930615E-01
         -2   -1    0    0    0  501 -0.00000000000E+00  0.00000000000E+00  0.13284356629E+04  0.13284356629E+04  0.00000000000E+00 0.  1.
          2   -1    0    0  501    0  0.00000000000E+00 -0.00000000000E+00 -0.36228824903E+04  0.36228824903E+04  0.00000000000E+00 0. -1.
         23    2    1    2    0    0  0.15220790656E+04 -0.13158291798E+04 -0.21321709412E+04  0.29327878523E+04  0.83429919904E+02 0.  0.
         13    1    3    3    0    0  0.59788588026E+03 -0.56540087505E+03 -0.84488328575E+03  0.11793953713E+04  0.00000000000E+00 0. -1.
        -13    1    3    3    0    0  0.92419318535E+03 -0.75042830474E+03 -0.12872876554E+04  0.17533924809E+04  0.00000000000E+00 0.  1.
         22    1    1    2    0    0 -0.15220790656E+04  0.13158291798E+04 -0.16227588618E+03  0.20185303009E+04  0.00000000000E+00 0.  1.
<mgrwt>
<rscale>  0 0.43876036E+04</rscale>
<asrwt>0</asrwt>
<pdfrwt beam="1">  1        2 0.55736653E+00 0.43876036E+04</pdfrwt>
<pdfrwt beam="2">  1       -2 0.20437472E+00 0.43876036E+04</pdfrwt>
<totfact> 0.63132794E-02</totfact>
</mgrwt>
</event>
<event>
 6    1  0.2238133E-007  0.3486342E+04  0.7818608E-02  0.8117034E-01
         -2   -1    0    0    0  501 -0.00000000000E+00  0.00000000000E+00  0.25936762433E+04  0.25936762433E+04  0.00000000000E+00 0.  1.
          2   -1    0    0  501    0  0.00000000000E+00 -0.00000000000E+00 -0.11715591693E+04  0.11715591693E+04  0.00000000000E+00 0. -1.
         23    2    1    2    0    0 -0.95441086351E+03  0.11768045901E+04 -0.21668212926E+03  0.15333232351E+04  0.91432262951E+02 0.  0.
         13    1    3    3    0    0 -0.66751709358E+03  0.76840083990E+03 -0.17129126864E+03  0.10321625936E+04  0.00000000000E+00 0.  1.
        -13    1    3    3    0    0 -0.28689376994E+03  0.40840375016E+03 -0.45390860613E+02  0.50116064151E+03  0.00000000000E+00 0. -1.
         22    1    1    2    0    0  0.95441086351E+03 -0.11768045901E+04  0.16387992032E+04  0.22319121775E+04  0.00000000000E+00 0.  1.
<mgrwt>
<rscale>  0 0.34863420E+04</rscale>
<asrwt>0</asrwt>
<pdfrwt beam="1">  1        2 0.18023987E+00 0.34863420E+04</pdfrwt>
<pdfrwt beam="2">  1       -2 0.39902711E+00 0.34863420E+04</pdfrwt>
<totfact> 0.12196330E-01</totfact>
</mgrwt>
</event>
<event>
 6    1  0.2238133E-007  0.2113822E+04  0.7818608E-02  0.8555179E-01
         -2   -1    0    0    0  501 -0.00000000000E+00  0.00000000000E+00  0.47698716494E+03  0.47698716494E+03  0.00000000000E+00 0.  1.
          2   -1    0    0  501    0  0.00000000000E+00 -0.00000000000E+00 -0.23419103226E+04  0.23419103226E+04  0.00000000000E+00 0. -1.
         23    2    1    2    0    0 -0.12187388137E+03  0.10385752750E+04 -0.11203018635E+04  0.15351713810E+04  0.90460260600E+02 0.  0.
         11    1    3    3    0    0 -0.30412322645E+02  0.52896246504E+03 -0.51903940622E+03  0.74170621138E+03  0.00000000000E+00 0.  1.
        -11    1    3    3    0    0 -0.91461558722E+02  0.50961281001E+03 -0.60126245733E+03  0.79346516965E+03  0.00000000000E+00 0. -1.
         22    1    1    2    0    0  0.12187388137E+03 -0.10385752750E+04 -0.74462129410E+03  0.12837261065E+04  0.00000000000E+00 0. -1.
<mgrwt>
<rscale>  0 0.21138223E+04</rscale>
<asrwt>0</asrwt>
<pdfrwt beam="1">  1        2 0.36029390E+00 0.21138223E+04</pdfrwt>
<pdfrwt beam="2">  1       -2 0.73382641E-01 0.21138223E+04</pdfrwt>
<totfact> 0.66201630E+00</totfact>
</mgrwt>
</event>
<event>
 6    1  0.2238133E-007  0.5618148E+04  0.7818608E-02  0.7739638E-01
         -2   -1    0    0    0  501 -0.00000000000E+00  0.00000000000E+00  0.35586251428E+04  0.35586251428E+04  0.00000000000E+00 0.  1.
          2   -1    0    0  501    0  0.00000000000E+00 -0.00000000000E+00 -0.22174006036E+04  0.22174006036E+04  0.00000000000E+00 0. -1.
         23    2    1    2    0    0  0.12434383496E+04 -0.15218995478E+04  0.27331395787E+04  0.33677598475E+04  0.97145614924E+02 0.  0.
         11    1    3    3    0    0  0.70118218639E+03 -0.84807579339E+03  0.16117264690E+04  0.19515509783E+04  0.00000000000E+00 0. -1.
        -11    1    3    3    0    0  0.54225616320E+03 -0.67382375443E+03  0.11214131097E+04  0.14162088692E+04  0.00000000000E+00 0.  1.
         22    1    1    2    0    0 -0.12434383496E+04  0.15218995478E+04 -0.13919150395E+04  0.24082658990E+04  0.00000000000E+00 0. -1.
<mgrwt>
<rscale>  0 0.56181483E+04</rscale>
<asrwt>0</asrwt>
<pdfrwt beam="1">  1        2 0.34113855E+00 0.56181483E+04</pdfrwt>
<pdfrwt beam="2">  1       -2 0.54748079E+00 0.56181483E+04</pdfrwt>
<totfact> 0.31262400E-03</totfact>
</mgrwt>
</event>
<event>
 6    1  0.2238133E-007  0.2341704E+04  0.7818608E-02  0.8461657E-01
         -2   -1    0    0    0  501 -0.00000000000E+00  0.00000000000E+00  0.48214180636E+03  0.48214180636E+03  0.00000000000E+00 0.  1.
          2   -1    0    0  501    0  0.00000000000E+00 -0.00000000000E+00 -0.28433425110E+04  0.28433425110E+04  0.00000000000E+00 0. -1.
         23    2    1    2    0    0 -0.88653089533E+03  0.37532343079E+03 -0.24062564888E+03  0.99661264352E+03  0.92365319544E+02 0.  0.
         13    1    3    3    0    0 -0.33638192763E+03  0.16207648454E+03 -0.13592502009E+03  0.39736280546E+03  0.00000000000E+00 0.  1.
        -13    1    3    3    0    0 -0.55014896770E+03  0.21324694625E+03 -0.10470062878E+03  0.59924983806E+03  0.00000000000E+00 0. -1.
         22    1    1    2    0    0  0.88653089533E+03 -0.37532343079E+03 -0.21205750558E+04  0.23288716739E+04  0.00000000000E+00 0. -1.
<mgrwt>
<rscale>  0 0.23417039E+04</rscale>
<asrwt>0</asrwt>
<pdfrwt beam="1">  1        2 0.43743732E+00 0.23417039E+04</pdfrwt>
<pdfrwt beam="2">  1       -2 0.74175661E-01 0.23417039E+04</pdfrwt>
<totfact> 0.32188873E+00</totfact>
</mgrwt>
</event>
<event>
 6    1  0.2238133E-007  0.2279111E+04  0.7818608E-02  0.8486203E-01
         -2   -1    0    0    0  501 -0.00000000000E+00  0.00000000000E+00  0.67187000309E+03  0.67187000309E+03  0.00000000000E+00 0.  1.
          2   -1    0    0  501    0  0.00000000000E+00 -0.00000000000E+00 -0.19327943135E+04  0.19327943135E+04  0.00000000000E+00 0. -1.
         23    2    1    2    0    0 -0.10929722315E+04 -0.67483962673E+02 -0.27905169731E+03  0.11338767002E+04  0.93081348994E+02 0.  0.
         11    1    3    3    0    0 -0.88710553640E+03 -0.85905459055E+02 -0.20689622153E+03  0.91495465849E+03  0.00000000000E+00 0.  1.
        -11    1    3    3    0    0 -0.20586669511E+03  0.18421496382E+02 -0.72155475775E+02  0.21892204176E+03  0.00000000000E+00 0. -1.
         22    1    1    2    0    0  0.10929722315E+04  0.67483962673E+02 -0.98187261313E+03  0.14707876164E+04  0.00000000000E+00 0. -1.
<mgrwt>
<rscale>  0 0.22791108E+04</rscale>
<asrwt>0</asrwt>
<pdfrwt beam="1">  1        2 0.29735296E+00 0.22791108E+04</pdfrwt>
<pdfrwt beam="2">  1       -2 0.10336462E+00 0.22791108E+04</pdfrwt>
<totfact> 0.50473578E+00</totfact>
</mgrwt>
</event>
<event>
 6    1  0.2238133E-007  0.1557583E+04  0.7818608E-02  0.8847039E-01
          1   -1    0    0  501    0  0.00000000000E+00  0.00000000000E+00  0.19278168166E+04  0.19278168166E+04  0.00000000000E+00 0. -1.
         -1   -1    0    0    0  501 -0.00000000000E+00 -0.00000000000E+00 -0.31461292045E+03  0.31461292045E+03  0.00000000000E+00 0.  1.
         23    2    1    2    0    0  0.61660542383E+03 -0.26344487939E+03  0.24654970142E+03  0.72014555165E+03  0.90649915154E+02 0.  0.
         11    1    3    3    0    0  0.15289429488E+03 -0.96876102540E+02  0.37148422436E+02  0.18477459225E+03  0.00000000000E+00 0.  1.
        -11    1    3    3    0    0  0.46371112895E+03 -0.16656877685E+03  0.20940127898E+03  0.53537095940E+03  0.00000000000E+00 0. -1.
         22    1    1    2    0    0 -0.61660542383E+03  0.26344487939E+03  0.13666541948E+04  0.15222841854E+04  0.00000000000E+00 0. -1.
<mgrwt>
<rscale>  0 0.15575828E+04</rscale>
<asrwt>0</asrwt>
<pdfrwt beam="1">  1        1 0.29658720E+00 0.15575828E+04</pdfrwt>
<pdfrwt beam="2">  1       -1 0.48401989E-01 0.15575828E+04</pdfrwt>
<totfact> 0.13718473E+01</totfact>
</mgrwt>
</event>
<event>
 6    1  0.2238133E-007  0.2782441E+04  0.7818608E-02  0.8308740E-01
          2   -1    0    0  501    0  0.00000000000E+00  0.00000000000E+00  0.13913823050E+04  0.13913823050E+04  0.00000000000E+00 0. -1.
         -2   -1    0    0    0  501 -0.00000000000E+00 -0.00000000000E+00 -0.13910590591E+04  0.13910590591E+04  0.00000000000E+00 0.  1.
         23    2    1    2    0    0  0.13374423094E+04  0.34779252405E+03  0.14702572171E+03  0.13927532023E+04  0.91833267256E+02 0.  0.
         11    1    3    3    0    0  0.10478777063E+04  0.27995128750E+03  0.15249809707E+03  0.10952972566E+04  0.00000000000E+00 0.  1.
        -11    1    3    3    0    0  0.28956460310E+03  0.67841236543E+02 -0.54723753632E+01  0.29745594571E+03  0.00000000000E+00 0. -1.
         22    1    1    2    0    0 -0.13374423094E+04 -0.34779252405E+03 -0.14670247589E+03  0.13896881618E+04  0.00000000000E+00 0.  1.
<mgrwt>
<rscale>  0 0.27824413E+04</rscale>
<asrwt>0</asrwt>
<pdfrwt beam="1">  1        2 0.21405882E+00 0.27824413E+04</pdfrwt>
<pdfrwt beam="2">  1       -2 0.21400909E+00 0.27824413E+04</pdfrwt>
<totfact> 0.13764396E+00</totfact>
</mgrwt>
</event>
<event>
 6    1  0.2238133E-007  0.1987285E+04  0.7818608E-02  0.8612588E-01
         -2   -1    0    0    0  501 -0.00000000000E+00  0.00000000000E+00  0.10151580095E+04  0.10151580095E+04  0.00000000000E+00 0.  1.
          2   -1    0    0  501    0  0.00000000000E+00 -0.00000000000E+00 -0.97258304365E+03  0.97258304365E+03  0.00000000000E+00 0. -1.
         23    2    1    2    0    0  0.55243293714E+03 -0.81910083433E+03  0.10549964280E+03  0.99775729476E+03  0.91000647166E+02 0.  0.
         11    1    3    3    0    0  0.81945492766E+02 -0.12502674807E+03  0.49134066704E+02  0.15735599140E+03  0.00000000000E+00 0.  1.
        -11    1    3    3    0    0  0.47048744437E+03 -0.69407408626E+03  0.56365576100E+02  0.84040130337E+03  0.00000000000E+00 0. -1.
         22    1    1    2    0    0 -0.55243293714E+03  0.81910083433E+03 -0.62924676990E+02  0.98998375836E+03  0.00000000000E+00 0.  1.
<mgrwt>
<rscale>  0 0.19872850E+04</rscale>
<asrwt>0</asrwt>
<pdfrwt beam="1">  1        2 0.14962816E+00 0.19872850E+04</pdfrwt>
<pdfrwt beam="2">  1       -2 0.15617815E+00 0.19872850E+04</pdfrwt>
<totfact> 0.65627669E+00</totfact>
</mgrwt>
</event>
<event>
 6    1  0.2238133E-007  0.2417941E+04  0.7818608E-02  0.8432817E-01
          1   -1    0    0  501    0  0.00000000000E+00  0.00000000000E+00  0.26514724268E+04  0.26514724268E+04  0.00000000000E+00 0. -1.
         -1   -1    0    0    0  501 -0.00000000000E+00 -0.00000000000E+00 -0.55124448348E+03  0.55124448348E+03  0.00000000000E+00 0.  1.
         23    2    1    2    0    0 -0.96780088077E+03 -0.71222437367E+03  0.91948891313E+03  0.15180665725E+04  0.12314281867E+03 0.  0.
         13    1    3    3    0    0 -0.39980302043E+03 -0.36456791997E+03  0.38303864920E+03  0.66292596132E+03  0.00000000000E+00 0.  1.
        -13    1    3    3    0    0 -0.56799786034E+03 -0.34765645371E+03  0.53645026393E+03  0.85514061114E+03  0.00000000000E+00 0. -1.
         22    1    1    2    0    0  0.96780088077E+03  0.71222437367E+03  0.11807390302E+04  0.16846503378E+04  0.00000000000E+00 0.  1.
<mgrwt>
<rscale>  0 0.24179409E+04</rscale>
<asrwt>0</asrwt>
<pdfrwt beam="1">  1        1 0.40791883E+00 0.24179409E+04</pdfrwt>
<pdfrwt beam="2">  1       -1 0.84806845E-01 0.24179409E+04</pdfrwt>
<totfact> 0.13068742E+00</totfact>
</mgrwt>
</event>
<event>
 6    1  0.2238133E-007  0.4783976E+04  0.7818608E-02  0.7862723E-01
         -2   -1    0    0    0  501 -0.00000000000E+00  0.00000000000E+00  0.29436810270E+04  0.29436810270E+04  0.00000000000E+00 0.  1.
          2   -1    0    0  501    0  0.00000000000E+00 -0.00000000000E+00 -0.19436913674E+04  0.19436913674E+04  0.00000000000E+00 0. -1.
         23    2    1    2    0    0  0.18712295764E+04  0.78328824984E+03 -0.79307932870E+03  0.21799498180E+04  0.90364692412E+02 0.  0.
         13    1    3    3    0    0  0.85935473861E+03  0.39873071585E+03 -0.34100307197E+03  0.10068564176E+04  0.00000000000E+00 0. -1.
        -13    1    3    3    0    0  0.10118748378E+04  0.38455753399E+03 -0.45207625673E+03  0.11730934005E+04  0.00000000000E+00 0.  1.
         22    1    1    2    0    0 -0.18712295764E+04 -0.78328824984E+03  0.17930689884E+04  0.27074225764E+04  0.00000000000E+00 0.  1.
<mgrwt>
<rscale>  0 0.47839763E+04</rscale>
<asrwt>0</asrwt>
<pdfrwt beam="1">  1        2 0.29902944E+00 0.47839763E+04</pdfrwt>
<pdfrwt beam="2">  1       -2 0.45287401E+00 0.47839763E+04</pdfrwt>
<totfact> 0.17709093E-02</totfact>
</mgrwt>
</event>
<event>
 6    1  0.2238133E-007  0.2106588E+04  0.7818608E-02  0.8558347E-01
         -2   -1    0    0    0  501 -0.00000000000E+00  0.00000000000E+00  0.21256896861E+03  0.21256896861E+03  0.00000000000E+00 0.  1.
          2   -1    0    0  501    0  0.00000000000E+00 -0.00000000000E+00 -0.52191436318E+04  0.52191436318E+04  0.00000000000E+00 0. -1.
         23    2    1    2    0    0  0.82712238622E+03 -0.31423129835E+03 -0.39718705590E+04  0.40702849182E+04  0.92686715731E+02 0.  0.
         11    1    3    3    0    0  0.19062532228E+03 -0.93120186871E+02 -0.80159839096E+03  0.82919802405E+03  0.00000000000E+00 0. -1.
        -11    1    3    3    0    0  0.63649706393E+03 -0.22111111148E+03 -0.31702721680E+04  0.32410868941E+04  0.00000000000E+00 0.  1.
         22    1    1    2    0    0 -0.82712238622E+03  0.31423129835E+03 -0.10347041042E+04  0.13614276822E+04  0.00000000000E+00 0.  1.
<mgrwt>
<rscale>  0 0.21065877E+04</rscale>
<asrwt>0</asrwt>
<pdfrwt beam="1">  1        2 0.80294520E+00 0.21065877E+04</pdfrwt>
<pdfrwt beam="2">  1       -2 0.32702917E-01 0.21065877E+04</pdfrwt>
<totfact> 0.14246039E-01</totfact>
</mgrwt>
</event>
<event>
 6    1  0.2238133E-007  0.4349600E+03  0.7818608E-02  0.1032304E+00
         -2   -1    0    0    0  501 -0.00000000000E+00  0.00000000000E+00  0.22004882945E+03  0.22004882945E+03  0.00000000000E+00 0.  1.
          2   -1    0    0  501    0  0.00000000000E+00 -0.00000000000E+00 -0.21494116645E+03  0.21494116645E+03  0.00000000000E+00 0. -1.
         23    2    1    2    0    0  0.61498358228E+02  0.11757349936E+03 -0.15867728133E+03  0.22420317514E+03  0.86504383204E+02 0.  0.
         13    1    3    3    0    0  0.65807490253E+02  0.12361447030E+03 -0.11880362726E+03  0.18364494246E+03  0.00000000000E+00 0.  1.
        -13    1    3    3    0    0 -0.43091320244E+01 -0.60409709400E+01 -0.39873654074E+02  0.40558232677E+02  0.00000000000E+00 0. -1.
         22    1    1    2    0    0 -0.61498358228E+02 -0.11757349936E+03  0.16378494434E+03  0.21078682077E+03  0.00000000000E+00 0.  1.
<mgrwt>
<rscale>  0 0.43496001E+03</rscale>
<asrwt>0</asrwt>
<pdfrwt beam="1">  1        2 0.33067872E-01 0.43496001E+03</pdfrwt>
<pdfrwt beam="2">  1       -2 0.33853666E-01 0.43496001E+03</pdfrwt>
<totfact> 0.12969468E+03</totfact>
</mgrwt>
</event>
<event>
 6    1  0.2238133E-007  0.6212069E+04  0.7818608E-02  0.7664650E-01
         -2   -1    0    0    0  501 -0.00000000000E+00  0.00000000000E+00  0.22511606148E+04  0.22511606148E+04  0.00000000000E+00 0.  1.
          2   -1    0    0  501    0  0.00000000000E+00 -0.00000000000E+00 -0.42855444012E+04  0.42855444012E+04  0.00000000000E+00 0. -1.
         23    2    1    2    0    0 -0.70981707631E+03 -0.97938835269E+03  0.19921853241E+04  0.23323857337E+04  0.90437923689E+02 0.  0.
         13    1    3    3    0    0 -0.20784411922E+03 -0.35586047769E+03  0.70379625495E+03  0.81557649915E+03  0.00000000000E+00 0.  1.
        -13    1    3    3    0    0 -0.50197295709E+03 -0.62352787501E+03  0.12883890691E+04  0.15168092345E+04  0.00000000000E+00 0. -1.
         22    1    1    2    0    0  0.70981707631E+03  0.97938835269E+03 -0.40265691104E+04  0.42043192824E+04  0.00000000000E+00 0. -1.
<mgrwt>
<rscale>  0 0.62120685E+04</rscale>
<asrwt>0</asrwt>
<pdfrwt beam="1">  1        2 0.65931452E+00 0.62120685E+04</pdfrwt>
<pdfrwt beam="2">  1       -2 0.34633240E+00 0.62120685E+04</pdfrwt>
<totfact> 0.21051352E-03</totfact>
</mgrwt>
</event>
<event>
 6    1  0.2238133E-007  0.9968410E+03  0.7818608E-02  0.9312016E-01
         -2   -1    0    0    0  501 -0.00000000000E+00  0.00000000000E+00  0.11255423883E+03  0.11255423883E+03  0.00000000000E+00 0.  1.
          2   -1    0    0  501    0  0.00000000000E+00 -0.00000000000E+00 -0.22071403759E+04  0.22071403759E+04  0.00000000000E+00 0. -1.
         23    2    1    2    0    0 -0.40867173722E+03  0.12971609513E+01 -0.40976787672E+03  0.58602023878E+03  0.92172317068E+02 0.  0.
         11    1    3    3    0    0 -0.22748922094E+03  0.41859490680E+02 -0.25526552504E+03  0.34447648814E+03  0.00000000000E+00 0.  1.
        -11    1    3    3    0    0 -0.18118251628E+03 -0.40562329729E+02 -0.15450235168E+03  0.24154375064E+03  0.00000000000E+00 0. -1.
         22    1    1    2    0    0  0.40867173722E+03 -0.12971609513E+01 -0.16848182604E+04  0.17336743760E+04  0.00000000000E+00 0. -1.
<mgrwt>
<rscale>  0 0.99684102E+03</rscale>
<asrwt>0</asrwt>
<pdfrwt beam="1">  1        2 0.33956001E+00 0.99684102E+03</pdfrwt>
<pdfrwt beam="2">  1       -2 0.17316039E-01 0.99684102E+03</pdfrwt>
<totfact> 0.14132592E+02</totfact>
</mgrwt>
</event>
<event>
 6    1  0.2238133E-007  0.3126398E+04  0.7818608E-02  0.8208530E-01
         -2   -1    0    0    0  501 -0.00000000000E+00  0.00000000000E+00  0.10620681466E+04  0.10620681466E+04  0.00000000000E+00 0.  1.
          2   -1    0    0  501    0  0.00000000000E+00 -0.00000000000E+00 -0.23007849297E+04  0.23007849297E+04  0.00000000000E+00 0. -1.
         23    2    1    2    0    0  0.40338871820E+03 -0.68753050867E+03  0.82470966374E+03  0.11508066573E+04  0.93751131458E+02 0.  0.
         13    1    3    3    0    0  0.23600891009E+03 -0.31204785980E+03  0.38696407152E+03  0.55028653000E+03  0.00000000000E+00 0. -1.
        -13    1    3    3    0    0  0.16737980811E+03 -0.37548264887E+03  0.43774559221E+03  0.60052012728E+03  0.00000000000E+00 0.  1.
         22    1    1    2    0    0 -0.40338871820E+03  0.68753050867E+03 -0.20634264469E+04  0.22120464190E+04  0.00000000000E+00 0. -1.
<mgrwt>
<rscale>  0 0.31263975E+04</rscale>
<asrwt>0</asrwt>
<pdfrwt beam="1">  1        2 0.35396691E+00 0.31263975E+04</pdfrwt>
<pdfrwt beam="2">  1       -2 0.16339510E+00 0.31263975E+04</pdfrwt>
<totfact> 0.91244874E-01</totfact>
</mgrwt>
</event>
<event>
 6    1  0.2238133E-007  0.1538048E+04  0.7818608E-02  0.8859538E-01
         -2   -1    0    0    0  501 -0.00000000000E+00  0.00000000000E+00  0.26568907793E+03  0.26568907793E+03  0.00000000000E+00 0.  1.
          2   -1    0    0  501    0  0.00000000000E+00 -0.00000000000E+00 -0.22259034249E+04  0.22259034249E+04  0.00000000000E+00 0. -1.
         23    2    1    2    0    0  0.55676699977E+03 -0.77316354035E+01 -0.18370356994E+04  0.19213098980E+04  0.81745293345E+02 0.  0.
         11    1    3    3    0    0  0.54269850445E+03 -0.93062757232E+01 -0.18197185472E+04  0.18989428282E+04  0.00000000000E+00 0. -1.
        -11    1    3    3    0    0  0.14068495321E+02  0.15746403197E+01 -0.17317152152E+02  0.22367069799E+02  0.00000000000E+00 0.  1.
         22    1    1    2    0    0 -0.55676699977E+03  0.77316354035E+01 -0.12317864762E+03  0.57028260490E+03  0.00000000000E+00 0. -1.
<mgrwt>
<rscale>  0 0.15380484E+04</rscale>
<asrwt>0</asrwt>
<pdfrwt beam="1">  1        2 0.34244670E+00 0.15380484E+04</pdfrwt>
<pdfrwt beam="2">  1       -2 0.40875240E-01 0.15380484E+04</pdfrwt>
<totfact> 0.27295427E+01</totfact>
</mgrwt>
</event>
<event>
 6    1  0.2238133E-007  0.1543213E+04  0.7818608E-02  0.8856215E-01
         -2   -1    0    0    0  501 -0.00000000000E+00  0.00000000000E+00  0.12144203314E+04  0.12144203314E+04  0.00000000000E+00 0.  1.
          2   -1    0    0  501    0  0.00000000000E+00 -0.00000000000E+00 -0.49025552104E+03  0.49025552104E+03  0.00000000000E+00 0. -1.
         23    2    1    2    0    0 -0.12741760096E+03  0.67698521881E+03  0.74090545486E+03  0.10156007617E+04  0.89217613949E+02 0.  0.
         13    1    3    3    0    0 -0.29515230441E+02  0.39401650429E+03  0.42903161694E+03  0.58325661832E+03  0.00000000000E+00 0. -1.
        -13    1    3    3    0    0 -0.97902370522E+02  0.28296871452E+03  0.31187383792E+03  0.43234414340E+03  0.00000000000E+00 0.  1.
         22    1    1    2    0    0  0.12741760096E+03 -0.67698521881E+03 -0.16740644466E+02  0.68907509075E+03  0.00000000000E+00 0. -1.
<mgrwt>
<rscale>  0 0.15432126E+04</rscale>
<asrwt>0</asrwt>
<pdfrwt beam="1">  1        2 0.75423927E-01 0.15432126E+04</pdfrwt>
<pdfrwt beam="2">  1       -2 0.18683390E+00 0.15432126E+04</pdfrwt>
<totfact> 0.98686135E+00</totfact>
</mgrwt>
</event>
<event>
 6    1  0.2238133E-007  0.1604075E+04  0.7818608E-02  0.8818048E-01
          2   -1    0    0  501    0  0.00000000000E+00  0.00000000000E+00  0.13912206930E+04  0.13912206930E+04  0.00000000000E+00 0. -1.
         -2   -1    0    0    0  501 -0.00000000000E+00 -0.00000000000E+00 -0.46237392462E+03  0.46237392462E+03  0.00000000000E+00 0.  1.
         23    2    1    2    0    0  0.63165918318E+03  0.47059365320E+03  0.62352501519E+03  0.10088028781E+04  0.91913503832E+02 0.  0.
         11    1    3    3    0    0  0.17545064677E+03  0.13996752558E+03  0.12737233668E+03  0.25806501084E+03  0.00000000000E+00 0.  1.
        -11    1    3    3    0    0  0.45620853641E+03  0.33062612762E+03  0.49615267851E+03  0.75073786727E+03  0.00000000000E+00 0. -1.
         22    1    1    2    0    0 -0.63165918318E+03 -0.47059365320E+03  0.30532175315E+03  0.84479173946E+03  0.00000000000E+00 0.  1.
<mgrwt>
<rscale>  0 0.16040750E+04</rscale>
<asrwt>0</asrwt>
<pdfrwt beam="1">  1        2 0.21403395E+00 0.16040750E+04</pdfrwt>
<pdfrwt beam="2">  1       -2 0.71134450E-01 0.16040750E+04</pdfrwt>
<totfact> 0.25184600E+01</totfact>
</mgrwt>
</event>
<event>
 6    1  0.2238133E-007  0.1196300E+04  0.7818608E-02  0.9116102E-01
         -2   -1    0    0    0  501 -0.00000000000E+00  0.00000000000E+00  0.38265601071E+03  0.38265601071E+03  0.00000000000E+00 0.  1.
          2   -1    0    0  501    0  0.00000000000E+00 -0.00000000000E+00 -0.93499944706E+03  0.93499944706E+03  0.00000000000E+00 0. -1.
         23    2    1    2    0    0 -0.47714300624E+03 -0.28528914088E+03 -0.45942406028E+02  0.56565988210E+03  0.93835255872E+02 0.  0.
         13    1    3    3    0    0 -0.32199303722E+03 -0.24151046736E+03 -0.37165313386E+02  0.40421291714E+03  0.00000000000E+00 0. -1.
        -13    1    3    3    0    0 -0.15514996902E+03 -0.43778673521E+02 -0.87770926417E+01  0.16144696497E+03  0.00000000000E+00 0.  1.
         22    1    1    2    0    0  0.47714300624E+03  0.28528914088E+03 -0.50640103032E+03  0.75199557566E+03  0.00000000000E+00 0.  1.
<mgrwt>
<rscale>  0 0.11962996E+04</rscale>
<asrwt>0</asrwt>
<pdfrwt beam="1">  1        2 0.14384607E+00 0.11962996E+04</pdfrwt>
<pdfrwt beam="2">  1       -2 0.58870157E-01 0.11962996E+04</pdfrwt>
<totfact> 0.73928242E+01</totfact>
</mgrwt>
</event>
<event>
 6    1  0.2238133E-007  0.4150059E+04  0.7818608E-02  0.7974941E-01
         -2   -1    0    0    0  501 -0.00000000000E+00  0.00000000000E+00  0.24195635557E+04  0.24195635557E+04  0.00000000000E+00 0.  1.
          2   -1    0    0  501    0  0.00000000000E+00 -0.00000000000E+00 -0.17795556189E+04  0.17795556189E+04  0.00000000000E+00 0. -1.
         23    2    1    2    0    0 -0.58655093923E+03 -0.11556709278E+04 -0.13181917570E+04  0.18508936023E+04  0.92522002248E+02 0.  0.
         11    1    3    3    0    0 -0.39288434466E+03 -0.71960819806E+03 -0.88562513304E+03  0.12068661663E+04  0.00000000000E+00 0. -1.
        -11    1    3    3    0    0 -0.19366659457E+03 -0.43606272979E+03 -0.43256662397E+03  0.64402743601E+03  0.00000000000E+00 0.  1.
         22    1    1    2    0    0  0.58655093923E+03  0.11556709278E+04  0.19581996937E+04  0.23482255723E+04  0.00000000000E+00 0.  1.
<mgrwt>
<rscale>  0 0.41500592E+04</rscale>
<asrwt>0</asrwt>
<pdfrwt beam="1">  1        2 0.27377779E+00 0.41500592E+04</pdfrwt>
<pdfrwt beam="2">  1       -2 0.37224055E+00 0.41500592E+04</pdfrwt>
<totfact> 0.77518599E-02</totfact>
</mgrwt>
</event>
<event>
 6    1  0.2238133E-007  0.2586205E+04  0.7818608E-02  0.8372902E-01
         -2   -1    0    0    0  501 -0.00000000000E+00  0.00000000000E+00  0.11505248953E+04  0.11505248953E+04  0.00000000000E+00 0.  1.
          2   -1    0    0  501    0  0.00000000000E+00 -0.00000000000E+00 -0.14533492207E+04  0.14533492207E+04  0.00000000000E+00 0. -1.
         23    2    1    2    0    0 -0.96777465728E+03  0.55943553168E+03 -0.80307994481E+03  0.13792061666E+04  0.87842761929E+02 0.  0.
         13    1    3    3    0    0 -0.35529732564E+03  0.23352259051E+03 -0.34858868011E+03  0.54980274443E+03  0.00000000000E+00 0.  1.
        -13    1    3    3    0    0 -0.61247733164E+03  0.32591294117E+03 -0.45449126470E+03  0.82940342216E+03  0.00000000000E+00 0. -1.
         22    1    1    2    0    0  0.96777465728E+03 -0.55943553168E+03  0.50025561940E+03  0.12246679493E+04  0.00000000000E+00 0.  1.
<mgrwt>
<rscale>  0 0.25862053E+04</rscale>
<asrwt>0</asrwt>
<pdfrwt beam="1">  1        2 0.22359219E+00 0.25862053E+04</pdfrwt>
<pdfrwt beam="2">  1       -2 0.17700383E+00 0.25862053E+04</pdfrwt>
<totfact> 0.22730015E+00</totfact>
</mgrwt>
</event>
<event>
 6    1  0.2238133E-007  0.1847801E+04  0.7818608E-02  0.8681285E-01
         -2   -1    0    0    0  501 -0.00000000000E+00  0.00000000000E+00  0.78415262401E+03  0.78415262401E+03  0.00000000000E+00 0.  1.
          2   -1    0    0  501    0  0.00000000000E+00 -0.00000000000E+00 -0.10885531010E+04  0.10885531010E+04  0.00000000000E+00 0. -1.
         23    2    1    2    0    0  0.90234831519E+03  0.96518313502E+02  0.98766036584E+01  0.91233165720E+03  0.93291150018E+02 0.  0.
         11    1    3    3    0    0  0.60849183097E+03  0.20935005366E+02  0.80239156516E+01  0.60890472656E+03  0.00000000000E+00 0.  1.
        -11    1    3    3    0    0  0.29385648422E+03  0.75583308136E+02  0.18526880068E+01  0.30342693064E+03  0.00000000000E+00 0. -1.
         22    1    1    2    0    0 -0.90234831519E+03 -0.96518313502E+02 -0.31427708070E+03  0.96037406786E+03  0.00000000000E+00 0. -1.
<mgrwt>
<rscale>  0 0.18478006E+04</rscale>
<asrwt>0</asrwt>
<pdfrwt beam="1">  1        2 0.16746971E+00 0.18478006E+04</pdfrwt>
<pdfrwt beam="2">  1       -2 0.12063887E+00 0.18478006E+04</pdfrwt>
<totfact> 0.10914903E+01</totfact>
</mgrwt>
</event>
<event>
 6    1  0.2238133E-007  0.1137822E+04  0.7818608E-02  0.9169093E-01
         -2   -1    0    0    0  501 -0.00000000000E+00  0.00000000000E+00  0.56753589588E+03  0.56753589588E+03  0.00000000000E+00 0.  1.
          2   -1    0    0  501    0  0.00000000000E+00 -0.00000000000E+00 -0.57028913143E+03  0.57028913143E+03  0.00000000000E+00 0. -1.
         23    2    1    2    0    0  0.24516139045E+03 -0.32645068636E+03  0.38984938283E+03  0.57142324946E+03  0.88700793354E+02 0.  0.
         13    1    3    3    0    0  0.72250123613E+02 -0.59565381895E+02  0.13295238643E+03  0.16261750257E+03  0.00000000000E+00 0. -1.
        -13    1    3    3    0    0  0.17291126683E+03 -0.26688530447E+03  0.25689699640E+03  0.40880574690E+03  0.00000000000E+00 0.  1.
         22    1    1    2    0    0 -0.24516139045E+03  0.32645068636E+03 -0.39260261838E+03  0.56640177785E+03  0.00000000000E+00 0. -1.
<mgrwt>
<rscale>  0 0.11378217E+04</rscale>
<asrwt>0</asrwt>
<pdfrwt beam="1">  1        2 0.87736789E-01 0.11378217E+04</pdfrwt>
<pdfrwt beam="2">  1       -2 0.87313215E-01 0.11378217E+04</pdfrwt>
<totfact> 0.59214960E+01</totfact>
</mgrwt>
</event>
<event>
 6    1  0.2238133E-007  0.3947240E+04  0.7818608E-02  0.8015275E-01
         -1   -1    0    0    0  501 -0.00000000000E+00  0.00000000000E+00  0.19099036612E+04  0.19099036612E+04  0.00000000000E+00 0.  1.
          1   -1    0    0  501    0  0.00000000000E+00 -0.00000000000E+00 -0.20394620899E+04  0.20394620899E+04  0.00000000000E+00 0. -1.
         23    2    1    2    0    0 -0.10274775834E+03  0.19699282505E+04 -0.73968046186E+02  0.19759766095E+04  0.88531776308E+02 0.  0.
         13    1    3    3    0    0 -0.41146696291E+02  0.28768547694E+03 -0.28288538235E+02  0.29198668746E+03  0.00000000000E+00 0. -1.
        -13    1    3    3    0    0 -0.61601062045E+02  0.16822427736E+04 -0.45679507951E+02  0.16839899220E+04  0.00000000000E+00 0.  1.
         22    1    1    2    0    0  0.10274775834E+03 -0.19699282505E+04 -0.55590382499E+02  0.19733891417E+04  0.00000000000E+00 0. -1.
<mgrwt>
<rscale>  0 0.39472401E+04</rscale>
<asrwt>0</asrwt>
<pdfrwt beam="1">  1        1 0.31376340E+00 0.39472401E+04</pdfrwt>
<pdfrwt beam="2">  1       -1 0.29383133E+00 0.39472401E+04</pdfrwt>
<totfact> 0.79742159E-02</totfact>
</mgrwt>
</event>
<event>
 6    1  0.2238133E-007  0.2898501E+04  0.7818608E-02  0.8273324E-01
         -2   -1    0    0    0  501 -0.00000000000E+00  0.00000000000E+00  0.99280033396E+03  0.99280033396E+03  0.00000000000E+00 0.  1.
          2   -1    0    0  501    0  0.00000000000E+00 -0.00000000000E+00 -0.21155581617E+04  0.21155581617E+04  0.00000000000E+00 0. -1.
         23    2    1    2    0    0 -0.11940563739E+04 -0.68972219777E+03 -0.10351336009E+04  0.17266330022E+04  0.90953936456E+02 0.  0.
         11    1    3    3    0    0 -0.82805822802E+03 -0.46156898996E+03 -0.76020711832E+03  0.12151712736E+04  0.00000000000E+00 0. -1.
        -11    1    3    3    0    0 -0.36599814583E+03 -0.22815320781E+03 -0.27492648262E+03  0.51146172861E+03  0.00000000000E+00 0.  1.
         22    1    1    2    0    0  0.11940563739E+04  0.68972219777E+03 -0.87624226777E+02  0.13817254934E+04  0.00000000000E+00 0.  1.
<mgrwt>
<rscale>  0 0.28985009E+04</rscale>
<asrwt>0</asrwt>
<pdfrwt beam="1">  1        2 0.32547048E+00 0.28985009E+04</pdfrwt>
<pdfrwt beam="2">  1       -2 0.15273851E+00 0.28985009E+04</pdfrwt>
<totfact> 0.14194815E+00</totfact>
</mgrwt>
</event>
<event>
 6    1  0.2238133E-007  0.9939451E+03  0.7818608E-02  0.9315211E-01
          2   -1    0    0  501    0  0.00000000000E+00  0.00000000000E+00  0.11236050441E+04  0.11236050441E+04  0.00000000000E+00 0. -1.
         -2   -1    0    0    0  501 -0.00000000000E+00 -0.00000000000E+00 -0.21981186329E+03  0.21981186329E+03  0.00000000000E+00 0.  1.
         23    2    1    2    0    0  0.15524674033E+03  0.46524600883E+03  0.51339087926E+03  0.71654422801E+03  0.96488531320E+02 0.  0.
         11    1    3    3    0    0  0.34166697209E+02  0.18000417085E+03  0.24938587998E+03  0.30945465234E+03  0.00000000000E+00 0. -1.
        -11    1    3    3    0    0  0.12108004312E+03  0.28524183798E+03  0.26400499927E+03  0.40708957567E+03  0.00000000000E+00 0.  1.
         22    1    1    2    0    0 -0.15524674033E+03 -0.46524600883E+03  0.39040230160E+03  0.62687267942E+03  0.00000000000E+00 0.  1.
<mgrwt>
<rscale>  0 0.99394511E+03</rscale>
<asrwt>0</asrwt>
<pdfrwt beam="1">  1        2 0.17286231E+00 0.99394511E+03</pdfrwt>
<pdfrwt beam="2">  1       -2 0.33817211E-01 0.99394511E+03</pdfrwt>
<totfact> 0.17190488E+02</totfact>
</mgrwt>
</event>
<event>
 6    1  0.2238133E-007  0.3581481E+04  0.7818608E-02  0.8094747E-01
          2   -1    0    0  501    0  0.00000000000E+00  0.00000000000E+00  0.27337073265E+04  0.27337073265E+04  0.00000000000E+00 0. -1.
         -2   -1    0    0    0  501 -0.00000000000E+00 -0.00000000000E+00 -0.11730412971E+04  0.11730412971E+04  0.00000000000E+00 0.  1.
         23    2    1    2    0    0 -0.13535258111E+04 -0.78604881346E+03  0.17266087418E+04  0.23327594742E+04  0.10336420400E+03 0.  0.
         13    1    3    3    0    0 -0.10632634827E+04 -0.63349622286E+03  0.13039126166E+04  0.17977860856E+04  0.00000000000E+00 0. -1.
        -13    1    3    3    0    0 -0.29026232848E+03 -0.15255259060E+03  0.42269612514E+03  0.53497338853E+03  0.00000000000E+00 0.  1.
         22    1    1    2    0    0  0.13535258111E+04  0.78604881346E+03 -0.16594271235E+03  0.15739891494E+04  0.00000000000E+00 0.  1.
<mgrwt>
<rscale>  0 0.35814810E+04</rscale>
<asrwt>0</asrwt>
<pdfrwt beam="1">  1        2 0.42057036E+00 0.35814810E+04</pdfrwt>
<pdfrwt beam="2">  1       -2 0.18046789E+00 0.35814810E+04</pdfrwt>
<totfact> 0.37232716E-01</totfact>
</mgrwt>
</event>
<event>
 6    1  0.2238133E-007  0.2395163E+04  0.7818608E-02  0.8441317E-01
          2   -1    0    0  501    0  0.00000000000E+00  0.00000000000E+00  0.25006232357E+04  0.25006232357E+04  0.00000000000E+00 0. -1.
         -2   -1    0    0    0  501 -0.00000000000E+00 -0.00000000000E+00 -0.57353749743E+03  0.57353749743E+03  0.00000000000E+00 0.  1.
         23    2    1    2    0    0 -0.10122490834E+04 -0.63775521021E+03  0.95759331189E+03  0.15342596065E+04  0.74750746712E+02 0.  0.
         11    1    3    3    0    0 -0.53005057359E+03 -0.30856046341E+03  0.45142447560E+03  0.76154266284E+03  0.00000000000E+00 0. -1.
        -11    1    3    3    0    0 -0.48219850981E+03 -0.32919474680E+03  0.50616883628E+03  0.77271694365E+03  0.00000000000E+00 0.  1.
         22    1    1    2    0    0  0.10122490834E+04  0.63775521021E+03  0.96949242635E+03  0.15399011266E+04  0.00000000000E+00 0. -1.
<mgrwt>
<rscale>  0 0.23951628E+04</rscale>
<asrwt>0</asrwt>
<pdfrwt beam="1">  1        2 0.38471126E+00 0.23951628E+04</pdfrwt>
<pdfrwt beam="2">  1       -2 0.88236539E-01 0.23951628E+04</pdfrwt>
<totfact> 0.34606250E+00</totfact>
</mgrwt>
</event>
<event>
 6    1  0.2238133E-007  0.8788110E+03  0.7818608E-02  0.9452463E-01
          2   -1    0    0  501    0  0.00000000000E+00  0.00000000000E+00  0.55425143451E+03  0.55425143451E+03  0.00000000000E+00 0. -1.
         -2   -1    0    0    0  501 -0.00000000000E+00 -0.00000000000E+00 -0.34835668147E+03  0.34835668147E+03  0.00000000000E+00 0.  1.
         23    2    1    2    0    0 -0.39242798721E+03 -0.87960125801E+00 -0.85656032810E+02  0.41372944026E+03  0.99169526231E+02 0.  0.
         13    1    3    3    0    0 -0.28561461898E+03  0.43539737228E+02 -0.55733062351E+02  0.29424070679E+03  0.00000000000E+00 0. -1.
        -13    1    3    3    0    0 -0.10681336823E+03 -0.44419338486E+02 -0.29922970459E+02  0.11948873347E+03  0.00000000000E+00 0.  1.
         22    1    1    2    0    0  0.39242798721E+03  0.87960125801E+00  0.29155078585E+03  0.48887867572E+03  0.00000000000E+00 0. -1.
<mgrwt>
<rscale>  0 0.87881099E+03</rscale>
<asrwt>0</asrwt>
<pdfrwt beam="1">  1        2 0.85269451E-01 0.87881099E+03</pdfrwt>
<pdfrwt beam="2">  1       -2 0.53593336E-01 0.87881099E+03</pdfrwt>
<totfact> 0.17977114E+02</totfact>
</mgrwt>
</event>
<event>
 6    1  0.2238133E-007  0.5486646E+04  0.7818608E-02  0.7757529E-01
         -2   -1    0    0    0  501 -0.00000000000E+00  0.00000000000E+00  0.26514551217E+04  0.26514551217E+04  0.00000000000E+00 0.  1.
          2   -1    0    0  501    0  0.00000000000E+00 -0.00000000000E+00 -0.28383741519E+04  0.28383741519E+04  0.00000000000E+00 0. -1.
         23    2    1    2    0    0  0.64648944066E+03 -0.24049016616E+04 -0.12431644054E+04  0.27848052641E+04  0.90454525680E+02 0.  0.
         13    1    3    3    0    0  0.22531373955E+03 -0.97955259417E+03 -0.52945640994E+03  0.11360517840E+04  0.00000000000E+00 0. -1.
        -13    1    3    3    0    0  0.42117570111E+03 -0.14253490675E+04 -0.71370799543E+03  0.16487534801E+04  0.00000000000E+00 0.  1.
         22    1    1    2    0    0 -0.64648944066E+03  0.24049016616E+04  0.10562453752E+04  0.27050240094E+04  0.00000000000E+00 0. -1.
<mgrwt>
<rscale>  0 0.54866462E+04</rscale>
<asrwt>0</asrwt>
<pdfrwt beam="1">  1        2 0.43667295E+00 0.54866462E+04</pdfrwt>
<pdfrwt beam="2">  1       -2 0.40791617E+00 0.54866462E+04</pdfrwt>
<totfact> 0.10123152E-02</totfact>
</mgrwt>
</event>
<event>
 6    1  0.2238133E-007  0.3102202E+04  0.7818608E-02  0.8215134E-01
          2   -1    0    0  501    0  0.00000000000E+00  0.00000000000E+00  0.72815312874E+03  0.72815312874E+03  0.00000000000E+00 0. -1.
         -2   -1    0    0    0  501 -0.00000000000E+00 -0.00000000000E+00 -0.33041333961E+04  0.33041333961E+04  0.00000000000E+00 0.  1.
         23    2    1    2    0    0  0.88608790719E+03 -0.43681084779E+03  0.26266204795E+03  0.10266508699E+04  0.95211140202E+02 0.  0.
         11    1    3    3    0    0  0.10350707316E+03 -0.82994997704E+02  0.50741712356E+02  0.14204437761E+03  0.00000000000E+00 0.  1.
        -11    1    3    3    0    0  0.78258083403E+03 -0.35381585009E+03  0.21192033560E+03  0.88460649229E+03  0.00000000000E+00 0. -1.
         22    1    1    2    0    0 -0.88608790719E+03  0.43681084779E+03 -0.28386423154E+04  0.30056356550E+04  0.00000000000E+00 0.  1.
<mgrwt>
<rscale>  0 0.31022025E+04</rscale>
<asrwt>0</asrwt>
<pdfrwt beam="1">  1        2 0.11202356E+00 0.31022025E+04</pdfrwt>
<pdfrwt beam="2">  1       -2 0.50832820E+00 0.31022025E+04</pdfrwt>
<totfact> 0.48333858E-02</totfact>
</mgrwt>
</event>
<event>
 6    1  0.3748425E-007  0.4534434E+04  0.7818608E-02  0.7904636E-01
          2   -1    0    0  501    0  0.00000000000E+00  0.00000000000E+00  0.26336187526E+04  0.26336187526E+04  0.00000000000E+00 0. -1.
         -2   -1    0    0    0  501 -0.00000000000E+00 -0.00000000000E+00 -0.19517910724E+04  0.19517910724E+04  0.00000000000E+00 0.  1.
         23    2    1    2    0    0  0.18406791858E+03  0.58500444673E+03 -0.18652218542E+04  0.19655677435E+04  0.91064742992E+02 0.  0.
         13    1    3    3    0    0  0.31612938238E+02  0.24841741049E+03 -0.73819030841E+03  0.77950979413E+03  0.00000000000E+00 0.  1.
        -13    1    3    3    0    0  0.15245498034E+03  0.33658703624E+03 -0.11270315458E+04  0.11860579494E+04  0.00000000000E+00 0. -1.
         22    1    1    2    0    0 -0.18406791858E+03 -0.58500444673E+03  0.25470495345E+04  0.26198420816E+04  0.00000000000E+00 0. -1.
<mgrwt>
<rscale>  0 0.45344343E+04</rscale>
<asrwt>0</asrwt>
<pdfrwt beam="1">  1        2 0.40517212E+00 0.45344343E+04</pdfrwt>
<pdfrwt beam="2">  1       -2 0.30027555E+00 0.45344343E+04</pdfrwt>
<totfact> 0.69553431E-02</totfact>
</mgrwt>
</event>
<event>
 6    1  0.2238133E-007  0.2766451E+04  0.7818608E-02  0.8313760E-01
         -1   -1    0    0    0  501 -0.00000000000E+00  0.00000000000E+00  0.74827174570E+03  0.74827174570E+03  0.00000000000E+00 0.  1.
          1   -1    0    0  501    0  0.00000000000E+00 -0.00000000000E+00 -0.25569763428E+04  0.25569763428E+04  0.00000000000E+00 0. -1.
         23    2    1    2    0    0  0.45846851429E+03  0.11261796651E+04 -0.12119999787E+03  0.12253091978E+04  0.90659659874E+02 0.  0.
         11    1    3    3    0    0  0.29701148583E+02  0.13793493735E+03 -0.29626772902E+02  0.14417333610E+03  0.00000000000E+00 0. -1.
        -11    1    3    3    0    0  0.42876736571E+03  0.98824472777E+03 -0.91573224965E+02  0.10811358617E+04  0.00000000000E+00 0.  1.
         22    1    1    2    0    0 -0.45846851429E+03 -0.11261796651E+04 -0.16875045993E+04  0.20799388907E+04  0.00000000000E+00 0. -1.
<mgrwt>
<rscale>  0 0.27664513E+04</rscale>
<asrwt>0</asrwt>
<pdfrwt beam="1">  1        1 0.39338097E+00 0.27664513E+04</pdfrwt>
<pdfrwt beam="2">  1       -1 0.11511873E+00 0.27664513E+04</pdfrwt>
<totfact> 0.73473965E-01</totfact>
</mgrwt>
</event>
<event>
 6    1  0.2238133E-007  0.2082878E+04  0.7818608E-02  0.8568823E-01
          2   -1    0    0  501    0  0.00000000000E+00  0.00000000000E+00  0.28056912180E+04  0.28056912180E+04  0.00000000000E+00 0. -1.
         -2   -1    0    0    0  501 -0.00000000000E+00 -0.00000000000E+00 -0.38656980581E+03  0.38656980581E+03  0.00000000000E+00 0.  1.
         23    2    1    2    0    0  0.68791716249E+03 -0.61394198223E+03  0.47652155572E+03  0.10419473299E+04  0.91796868999E+02 0.  0.
         11    1    3    3    0    0  0.64092232258E+03 -0.53743057741E+03  0.43896354132E+03  0.94461740389E+03  0.00000000000E+00 0. -1.
        -11    1    3    3    0    0  0.46994839903E+02 -0.76511404815E+02  0.37558014402E+02  0.97329925974E+02  0.00000000000E+00 0.  1.
         22    1    1    2    0    0 -0.68791716249E+03  0.61394198223E+03  0.19425998564E+04  0.21503136939E+04  0.00000000000E+00 0. -1.
<mgrwt>
<rscale>  0 0.20828783E+04</rscale>
<asrwt>0</asrwt>
<pdfrwt beam="1">  1        2 0.43164479E+00 0.20828783E+04</pdfrwt>
<pdfrwt beam="2">  1       -2 0.59472279E-01 0.20828783E+04</pdfrwt>
<totfact> 0.55930094E+00</totfact>
</mgrwt>
</event>
<event>
 6    1  0.2238133E-007  0.2432491E+04  0.7818608E-02  0.8427439E-01
         -1   -1    0    0    0  501 -0.00000000000E+00  0.00000000000E+00  0.20390574884E+04  0.20390574884E+04  0.00000000000E+00 0.  1.
          1   -1    0    0  501    0  0.00000000000E+00 -0.00000000000E+00 -0.72545924832E+03  0.72545924832E+03  0.00000000000E+00 0. -1.
         23    2    1    2    0    0 -0.11479569128E+04 -0.26229335313E+03  0.31962584465E+03  0.12235482102E+04  0.91140909056E+02 0.  0.
         13    1    3    3    0    0 -0.63551021173E+03 -0.17931971140E+03  0.14711640055E+03  0.67651461434E+03  0.00000000000E+00 0. -1.
        -13    1    3    3    0    0 -0.51244670111E+03 -0.82973641725E+02  0.17250944411E+03  0.54703359587E+03  0.00000000000E+00 0.  1.
         22    1    1    2    0    0  0.11479569128E+04  0.26229335313E+03  0.99397239542E+03  0.15409685265E+04  0.00000000000E+00 0.  1.
<mgrwt>
<rscale>  0 0.24324910E+04</rscale>
<asrwt>0</asrwt>
<pdfrwt beam="1">  1        1 0.11160912E+00 0.24324910E+04</pdfrwt>
<pdfrwt beam="2">  1       -1 0.31370115E+00 0.24324910E+04</pdfrwt>
<totfact> 0.62017761E-01</totfact>
</mgrwt>
</event>
<event>
 6    1  0.2238133E-007  0.1747636E+04  0.7818608E-02  0.8734653E-01
         -2   -1    0    0    0  501 -0.00000000000E+00  0.00000000000E+00  0.84548602695E+03  0.84548602695E+03  0.00000000000E+00 0.  1.
          2   -1    0    0  501    0  0.00000000000E+00 -0.00000000000E+00 -0.90309886348E+03  0.90309886348E+03  0.00000000000E+00 0. -1.
         23    2    1    2    0    0  0.52550945411E+03  0.20821966304E+03 -0.69217315575E+03  0.89877172674E+03  0.95767034022E+02 0.  0.
         13    1    3    3    0    0  0.44361267618E+03  0.19023838739E+03 -0.53449336887E+03  0.72018470678E+03  0.00000000000E+00 0.  1.
        -13    1    3    3    0    0  0.81896777929E+02  0.17981275658E+02 -0.15767978688E+03  0.17858701997E+03  0.00000000000E+00 0. -1.
         22    1    1    2    0    0 -0.52550945411E+03 -0.20821966304E+03  0.63456031923E+03  0.84981316369E+03  0.00000000000E+00 0.  1.
<mgrwt>
<rscale>  0 0.17476355E+04</rscale>
<asrwt>0</asrwt>
<pdfrwt beam="1">  1        2 0.13893829E+00 0.17476355E+04</pdfrwt>
<pdfrwt beam="2">  1       -2 0.13007477E+00 0.17476355E+04</pdfrwt>
<totfact> 0.11995468E+01</totfact>
</mgrwt>
</event>
<event>
 6    1  0.2238133E-007  0.1911261E+04  0.7818608E-02  0.8649271E-01
          2   -1    0    0  501    0  0.00000000000E+00  0.00000000000E+00  0.13501494601E+04  0.13501494601E+04  0.00000000000E+00 0. -1.
         -2   -1    0    0    0  501 -0.00000000000E+00 -0.00000000000E+00 -0.67639160364E+03  0.67639160364E+03  0.00000000000E+00 0.  1.
         23    2    1    2    0    0 -0.37886609758E+03 -0.13092589337E+03 -0.57988017737E+03  0.71037639726E+03  0.87706876701E+02 0.  0.
         11    1    3    3    0    0 -0.31707224580E+03 -0.89965597397E+02 -0.41784913642E+03  0.53219030298E+03  0.00000000000E+00 0. -1.
        -11    1    3    3    0    0 -0.61793851776E+02 -0.40960295969E+02 -0.16203104095E+03  0.17818609428E+03  0.00000000000E+00 0.  1.
         22    1    1    2    0    0  0.37886609758E+03  0.13092589337E+03  0.12536380338E+04  0.13161646665E+04  0.00000000000E+00 0. -1.
<mgrwt>
<rscale>  0 0.19112611E+04</rscale>
<asrwt>0</asrwt>
<pdfrwt beam="1">  1        2 0.20771530E+00 0.19112611E+04</pdfrwt>
<pdfrwt beam="2">  1       -2 0.10406025E+00 0.19112611E+04</pdfrwt>
<totfact> 0.10866790E+01</totfact>
</mgrwt>
</event>
<event>
 6    1  0.2238133E-007  0.1882164E+04  0.7818608E-02  0.8663786E-01
         -2   -1    0    0    0  501 -0.00000000000E+00  0.00000000000E+00  0.44324397681E+03  0.44324397681E+03  0.00000000000E+00 0.  1.
          2   -1    0    0  501    0  0.00000000000E+00 -0.00000000000E+00 -0.19980769473E+04  0.19980769473E+04  0.00000000000E+00 0. -1.
         23    2    1    2    0    0  0.29787107338E+03 -0.71605571678E+03 -0.92175630638E+02  0.78577585988E+03  0.86512364422E+02 0.  0.
         11    1    3    3    0    0  0.22305346939E+03 -0.61745752379E+03 -0.81359819976E+02  0.66153311648E+03  0.00000000000E+00 0.  1.
        -11    1    3    3    0    0  0.74817603988E+02 -0.98598192985E+02 -0.10815810662E+02  0.12424274340E+03  0.00000000000E+00 0. -1.
         22    1    1    2    0    0 -0.29787107338E+03  0.71605571678E+03 -0.14626573399E+04  0.16555450643E+04  0.00000000000E+00 0. -1.
<mgrwt>
<rscale>  0 0.18821643E+04</rscale>
<asrwt>0</asrwt>
<pdfrwt beam="1">  1        2 0.30739645E+00 0.18821643E+04</pdfrwt>
<pdfrwt beam="2">  1       -2 0.68191382E-01 0.18821643E+04</pdfrwt>
<totfact> 0.12362537E+01</totfact>
</mgrwt>
</event>
<event>
 6    1  0.2238133E-007  0.3541464E+04  0.7818608E-02  0.8104033E-01
         -1   -1    0    0    0  501 -0.00000000000E+00  0.00000000000E+00  0.15750837304E+04  0.15750837304E+04  0.00000000000E+00 0.  1.
          1   -1    0    0  501    0  0.00000000000E+00 -0.00000000000E+00 -0.19906828169E+04  0.19906828169E+04  0.00000000000E+00 0. -1.
         23    2    1    2    0    0 -0.14115000436E+04  0.43930182363E+03 -0.11873642183E+04  0.18981515186E+04  0.88469967754E+02 0.  0.
         13    1    3    3    0    0 -0.87158420506E+03  0.25543247458E+03 -0.78060958369E+03  0.11976043160E+04  0.00000000000E+00 0.  1.
        -13    1    3    3    0    0 -0.53991583858E+03  0.18386934905E+03 -0.40675463464E+03  0.70054720260E+03  0.00000000000E+00 0. -1.
         22    1    1    2    0    0  0.14115000436E+04 -0.43930182363E+03  0.77176513182E+03  0.16676150288E+04  0.00000000000E+00 0.  1.
<mgrwt>
<rscale>  0 0.35414642E+04</rscale>
<asrwt>0</asrwt>
<pdfrwt beam="1">  1        1 0.30625890E+00 0.35414642E+04</pdfrwt>
<pdfrwt beam="2">  1       -1 0.24232057E+00 0.35414642E+04</pdfrwt>
<totfact> 0.19244723E-01</totfact>
</mgrwt>
</event>
<event>
 6    1  0.2238133E-007  0.4751321E+04  0.7818608E-02  0.7868057E-01
          2   -1    0    0  501    0  0.00000000000E+00  0.00000000000E+00  0.26602977216E+04  0.26602977216E+04  0.00000000000E+00 0. -1.
         -2   -1    0    0    0  501 -0.00000000000E+00 -0.00000000000E+00 -0.21214774952E+04  0.21214774952E+04  0.00000000000E+00 0.  1.
         23    2    1    2    0    0 -0.35600891525E+03  0.13513578797E+04  0.22018715690E+04  0.26095297807E+04  0.92178105826E+02 0.  0.
         11    1    3    3    0    0 -0.14501569927E+03  0.70736693371E+03  0.10931618746E+04  0.13101146576E+04  0.00000000000E+00 0. -1.
        -11    1    3    3    0    0 -0.21099321599E+03  0.64399094598E+03  0.11087096944E+04  0.12994151231E+04  0.00000000000E+00 0.  1.
         22    1    1    2    0    0  0.35600891525E+03 -0.13513578797E+04 -0.16630513426E+04  0.21722454361E+04  0.00000000000E+00 0.  1.
<mgrwt>
<rscale>  0 0.47513206E+04</rscale>
<asrwt>0</asrwt>
<pdfrwt beam="1">  1        2 0.40927657E+00 0.47513206E+04</pdfrwt>
<pdfrwt beam="2">  1       -2 0.32638115E+00 0.47513206E+04</pdfrwt>
<totfact> 0.45510661E-02</totfact>
</mgrwt>
</event>
<event>
 6    1  0.2238133E-007  0.3785944E+04  0.7818608E-02  0.8049178E-01
         -2   -1    0    0    0  501 -0.00000000000E+00  0.00000000000E+00  0.16428486182E+04  0.16428486182E+04  0.00000000000E+00 0.  1.
          2   -1    0    0  501    0  0.00000000000E+00 -0.00000000000E+00 -0.21811768204E+04  0.21811768204E+04  0.00000000000E+00 0. -1.
         23    2    1    2    0    0  0.16465674682E+03  0.14207073644E+04  0.98147089006E+03  0.17370873608E+04  0.93092059720E+02 0.  0.
         11    1    3    3    0    0  0.95573050450E+02  0.62080913049E+03  0.38276294864E+03  0.73555805979E+03  0.00000000000E+00 0. -1.
        -11    1    3    3    0    0  0.69083696373E+02  0.79989823387E+03  0.59870794143E+03  0.10015293010E+04  0.00000000000E+00 0.  1.
         22    1    1    2    0    0 -0.16465674682E+03 -0.14207073644E+04 -0.15197990923E+04  0.20869380778E+04  0.00000000000E+00 0. -1.
<mgrwt>
<rscale>  0 0.37859442E+04</rscale>
<asrwt>0</asrwt>
<pdfrwt beam="1">  1        2 0.33556566E+00 0.37859442E+04</pdfrwt>
<pdfrwt beam="2">  1       -2 0.25274594E+00 0.37859442E+04</pdfrwt>
<totfact> 0.26255909E-01</totfact>
</mgrwt>
</event>
<event>
 6    1  0.2238133E-007  0.4174487E+04  0.7818608E-02  0.7970243E-01
         -2   -1    0    0    0  501 -0.00000000000E+00  0.00000000000E+00  0.16147848142E+04  0.16147848142E+04  0.00000000000E+00 0.  1.
          2   -1    0    0  501    0  0.00000000000E+00 -0.00000000000E+00 -0.26979357197E+04  0.26979357197E+04  0.00000000000E+00 0. -1.
         23    2    1    2    0    0  0.19697707630E+04  0.45557288565E+03 -0.10737051940E+04  0.22909310457E+04  0.89323564759E+02 0.  0.
         13    1    3    3    0    0  0.15093496301E+04  0.34142228225E+03 -0.77923858282E+03  0.17326044700E+04  0.00000000000E+00 0. -1.
        -13    1    3    3    0    0  0.46042113299E+03  0.11415060340E+03 -0.29446661119E+03  0.55832657564E+03  0.00000000000E+00 0.  1.
         22    1    1    2    0    0 -0.19697707630E+04 -0.45557288565E+03 -0.94457114956E+01  0.20217894882E+04  0.00000000000E+00 0.  1.
<mgrwt>
<rscale>  0 0.41744871E+04</rscale>
<asrwt>0</asrwt>
<pdfrwt beam="1">  1        2 0.41506703E+00 0.41744871E+04</pdfrwt>
<pdfrwt beam="2">  1       -2 0.24842843E+00 0.41744871E+04</pdfrwt>
<totfact> 0.13609900E-01</totfact>
</mgrwt>
</event>
<event>
 6    1  0.2238133E-007  0.4560547E+03  0.7818608E-02  0.1025932E+00
         -2   -1    0    0    0  501 -0.00000000000E+00  0.00000000000E+00  0.66836451503E+02  0.66836451503E+02  0.00000000000E+00 0.  1.
          2   -1    0    0  501    0  0.00000000000E+00 -0.00000000000E+00 -0.77796565333E+03  0.77796565333E+03  0.00000000000E+00 0. -1.
         23    2    1    2    0    0 -0.17431822245E+03 -0.48148821897E+02 -0.59963151453E+03  0.63234767207E+03  0.87180694066E+02 0.  0.
         13    1    3    3    0    0 -0.11668277724E+03  0.11378667472E+02 -0.37639112701E+03  0.39422661639E+03  0.00000000000E+00 0. -1.
        -13    1    3    3    0    0 -0.57635445211E+02 -0.59527489369E+02 -0.22324038752E+03  0.23812105567E+03  0.00000000000E+00 0.  1.
         22    1    1    2    0    0  0.17431822245E+03  0.48148821897E+02 -0.11149768729E+03  0.21245443276E+03  0.00000000000E+00 0.  1.
<mgrwt>
<rscale>  0 0.45605466E+03</rscale>
<asrwt>0</asrwt>
<pdfrwt beam="1">  1        2 0.11968703E+00 0.45605466E+03</pdfrwt>
<pdfrwt beam="2">  1       -2 0.10282531E-01 0.45605466E+03</pdfrwt>
<totfact> 0.23425712E+03</totfact>
</mgrwt>
</event>
<event>
 6    1  0.2238133E-007  0.2011876E+04  0.7818608E-02  0.8601088E-01
         -1   -1    0    0    0  501 -0.00000000000E+00  0.00000000000E+00  0.72183524998E+03  0.72183524998E+03  0.00000000000E+00 0.  1.
          1   -1    0    0  501    0  0.00000000000E+00 -0.00000000000E+00 -0.14018586031E+04  0.14018586031E+04  0.00000000000E+00 0. -1.
         23    2    1    2    0    0  0.11183765797E+03  0.91992394753E+02 -0.13892712100E+04  0.13998134867E+04  0.91831586829E+02 0.  0.
         11    1    3    3    0    0  0.51857789282E+02  0.72018549625E+02 -0.46566112532E+03  0.47404238780E+03  0.00000000000E+00 0. -1.
        -11    1    3    3    0    0  0.59979868686E+02  0.19973845128E+02 -0.92361008464E+03  0.92577109892E+03  0.00000000000E+00 0.  1.
         22    1    1    2    0    0 -0.11183765797E+03 -0.91992394753E+02  0.70924785682E+03  0.72388036638E+03  0.00000000000E+00 0.  1.
<mgrwt>
<rscale>  0 0.20118757E+04</rscale>
<asrwt>0</asrwt>
<pdfrwt beam="1">  1        1 0.21567055E+00 0.20118757E+04</pdfrwt>
<pdfrwt beam="2">  1       -1 0.11105158E+00 0.20118757E+04</pdfrwt>
<totfact> 0.52965097E+00</totfact>
</mgrwt>
</event>
<event>
 6    1  0.2238133E-007  0.3135400E+04  0.7818608E-02  0.8206089E-01
          2   -1    0    0  501    0  0.00000000000E+00  0.00000000000E+00  0.80588042372E+03  0.80588042372E+03  0.00000000000E+00 0. -1.
         -2   -1    0    0    0  501 -0.00000000000E+00 -0.00000000000E+00 -0.30496866002E+04  0.30496866002E+04  0.00000000000E+00 0.  1.
         23    2    1    2    0    0 -0.86286485393E+03 -0.12701477607E+03  0.47711394616E+03  0.99828250478E+03  0.90894071580E+02 0.  0.
         13    1    3    3    0    0 -0.44615736882E+02  0.30758015315E+01  0.58399421901E+01  0.45101324341E+02  0.00000000000E+00 0. -1.
        -13    1    3    3    0    0 -0.81824911705E+03 -0.13009057760E+03  0.47127400397E+03  0.95318118044E+03  0.00000000000E+00 0.  1.
         22    1    1    2    0    0  0.86286485393E+03  0.12701477607E+03 -0.27209201226E+04  0.28572845191E+04  0.00000000000E+00 0.  1.
<mgrwt>
<rscale>  0 0.31353996E+04</rscale>
<asrwt>0</asrwt>
<pdfrwt beam="1">  1        2 0.12398160E+00 0.31353996E+04</pdfrwt>
<pdfrwt beam="2">  1       -2 0.46918255E+00 0.31353996E+04</pdfrwt>
<totfact> 0.74817836E-02</totfact>
</mgrwt>
</event>
<event>
 6    1  0.2238133E-007  0.1565543E+04  0.7818608E-02  0.8842000E-01
         -2   -1    0    0    0  501 -0.00000000000E+00  0.00000000000E+00  0.53310172589E+03  0.53310172589E+03  0.00000000000E+00 0.  1.
          2   -1    0    0  501    0  0.00000000000E+00 -0.00000000000E+00 -0.11493705030E+04  0.11493705030E+04  0.00000000000E+00 0. -1.
         23    2    1    2    0    0 -0.46390366919E+03  0.37428575215E+03 -0.85012482531E+03  0.10421714481E+04  0.90070362031E+02 0.  0.
         11    1    3    3    0    0 -0.30924310997E+03  0.29666664500E+03 -0.63526133393E+03  0.76628934594E+03  0.00000000000E+00 0. -1.
        -11    1    3    3    0    0 -0.15466055922E+03  0.77619107156E+02 -0.21486349137E+03  0.27588210217E+03  0.00000000000E+00 0.  1.
         22    1    1    2    0    0  0.46390366919E+03 -0.37428575215E+03  0.23385604820E+03  0.64030078076E+03  0.00000000000E+00 0.  1.
<mgrwt>
<rscale>  0 0.15655432E+04</rscale>
<asrwt>0</asrwt>
<pdfrwt beam="1">  1        2 0.17682623E+00 0.15655432E+04</pdfrwt>
<pdfrwt beam="2">  1       -2 0.82015650E-01 0.15655432E+04</pdfrwt>
<totfact> 0.25534886E+01</totfact>
</mgrwt>
</event>
<event>
 6    1  0.2238133E-007  0.2362118E+04  0.7818608E-02  0.8453824E-01
          2   -1    0    0  501    0  0.00000000000E+00  0.00000000000E+00  0.13906475616E+04  0.13906475616E+04  0.00000000000E+00 0. -1.
         -2   -1    0    0    0  501 -0.00000000000E+00 -0.00000000000E+00 -0.10030577844E+04  0.10030577844E+04  0.00000000000E+00 0.  1.
         23    2    1    2    0    0 -0.77853553960E+03 -0.72499374850E+03 -0.32151267215E+03  0.11152063020E+04  0.92634636987E+02 0.  0.
         11    1    3    3    0    0 -0.30775761799E+03 -0.32067542205E+03 -0.94347220722E+02  0.45436645540E+03  0.00000000000E+00 0.  1.
        -11    1    3    3    0    0 -0.47077792162E+03 -0.40431832645E+03 -0.22716545143E+03  0.66083984664E+03  0.00000000000E+00 0. -1.
         22    1    1    2    0    0  0.77853553960E+03  0.72499374850E+03  0.70910244938E+03  0.12784990440E+04  0.00000000000E+00 0.  1.
<mgrwt>
<rscale>  0 0.23621176E+04</rscale>
<asrwt>0</asrwt>
<pdfrwt beam="1">  1        2 0.21394578E+00 0.23621176E+04</pdfrwt>
<pdfrwt beam="2">  1       -2 0.15431658E+00 0.23621176E+04</pdfrwt>
<totfact> 0.36716242E+00</totfact>
</mgrwt>
</event>
<event>
 6    1  0.2238133E-007  0.1803333E+04  0.7818608E-02  0.8704529E-01
          1   -1    0    0  501    0  0.00000000000E+00  0.00000000000E+00  0.63894279575E+03  0.63894279575E+03  0.00000000000E+00 0. -1.
         -1   -1    0    0    0  501 -0.00000000000E+00 -0.00000000000E+00 -0.12724185707E+04  0.12724185707E+04  0.00000000000E+00 0.  1.
         23    2    1    2    0    0 -0.79209709559E+03 -0.15406669951E+03  0.10262832089E+03  0.81911432633E+03  0.96235911156E+02 0.  0.
         11    1    3    3    0    0 -0.78147749804E+03 -0.15239854025E+03  0.11299917783E+03  0.80417734935E+03  0.00000000000E+00 0. -1.
        -11    1    3    3    0    0 -0.10619597551E+02 -0.16681592643E+01 -0.10370856941E+02  0.14936976975E+02  0.00000000000E+00 0.  1.
         22    1    1    2    0    0  0.79209709559E+03  0.15406669951E+03 -0.73610409585E+03  0.10922470401E+04  0.00000000000E+00 0.  1.
<mgrwt>
<rscale>  0 0.18033332E+04</rscale>
<asrwt>0</asrwt>
<pdfrwt beam="1">  1        1 0.98298892E-01 0.18033332E+04</pdfrwt>
<pdfrwt beam="2">  1       -1 0.19575670E+00 0.18033332E+04</pdfrwt>
<totfact> 0.47453971E+00</totfact>
</mgrwt>
</event>
<event>
 6    1  0.2238133E-007  0.1160051E+04  0.7818608E-02  0.9148561E-01
         -2   -1    0    0    0  501 -0.00000000000E+00  0.00000000000E+00  0.33811981138E+03  0.33811981138E+03  0.00000000000E+00 0.  1.
          2   -1    0    0  501    0  0.00000000000E+00 -0.00000000000E+00 -0.99500162712E+03  0.99500162712E+03  0.00000000000E+00 0. -1.
         23    2    1    2    0    0 -0.33169964250E+03 -0.12938078561E+03 -0.85171276064E+03  0.92726045538E+03  0.87368672684E+02 0.  0.
         11    1    3    3    0    0 -0.12996107626E+03 -0.10250511561E+02 -0.35158278319E+03  0.37497387611E+03  0.00000000000E+00 0.  1.
        -11    1    3    3    0    0 -0.20173856624E+03 -0.11913027405E+03 -0.50012997744E+03  0.55228657927E+03  0.00000000000E+00 0. -1.
         22    1    1    2    0    0  0.33169964250E+03  0.12938078561E+03  0.19483094490E+03  0.40586098311E+03  0.00000000000E+00 0.  1.
<mgrwt>
<rscale>  0 0.11600513E+04</rscale>
<asrwt>0</asrwt>
<pdfrwt beam="1">  1        2 0.15307717E+00 0.11600513E+04</pdfrwt>
<pdfrwt beam="2">  1       -2 0.52018433E-01 0.11600513E+04</pdfrwt>
<totfact> 0.87581369E+01</totfact>
</mgrwt>
</event>
<event>
 6    1  0.2238133E-007  0.1005154E+04  0.7818608E-02  0.9302910E-01
          2   -1    0    0  501    0  0.00000000000E+00  0.00000000000E+00  0.24468278437E+03  0.24468278437E+03  0.00000000000E+00 0. -1.
         -2   -1    0    0    0  501 -0.00000000000E+00 -0.00000000000E+00 -0.10322907141E+04  0.10322907141E+04  0.00000000000E+00 0.  1.
         23    2    1    2    0    0  0.92149283241E+02  0.48774385569E+02 -0.10159064627E+04  0.10259941143E+04  0.98628345996E+02 0.  0.
         11    1    3    3    0    0  0.53519260744E+02  0.61990811221E+02 -0.37740847919E+03  0.38619209224E+03  0.00000000000E+00 0. -1.
        -11    1    3    3    0    0  0.38630022497E+02 -0.13216425652E+02 -0.63849798347E+03  0.63980202207E+03  0.00000000000E+00 0.  1.
         22    1    1    2    0    0 -0.92149283241E+02 -0.48774385569E+02  0.22829853298E+03  0.25097938411E+03  0.00000000000E+00 0. -1.
<mgrwt>
<rscale>  0 0.10051542E+04</rscale>
<asrwt>0</asrwt>
<pdfrwt beam="1">  1        2 0.37643506E-01 0.10051542E+04</pdfrwt>
<pdfrwt beam="2">  1       -2 0.15881395E+00 0.10051542E+04</pdfrwt>
<totfact> 0.35341622E+01</totfact>
</mgrwt>
</event>
<event>
 6    1  0.2238133E-007  0.2884453E+04  0.7818608E-02  0.8277518E-01
          2   -1    0    0  501    0  0.00000000000E+00  0.00000000000E+00  0.13574603002E+04  0.13574603002E+04  0.00000000000E+00 0. -1.
         -2   -1    0    0    0  501 -0.00000000000E+00 -0.00000000000E+00 -0.15322854282E+04  0.15322854282E+04  0.00000000000E+00 0.  1.
         23    2    1    2    0    0  0.38614675163E+03 -0.95392852742E+03  0.92269837154E+03  0.13852036781E+04  0.91257853760E+02 0.  0.
         13    1    3    3    0    0  0.27586802321E+03 -0.67628285686E+03  0.70886276646E+03  0.10178153518E+04  0.00000000000E+00 0.  1.
        -13    1    3    3    0    0  0.11027872842E+03 -0.27764567056E+03  0.21383560508E+03  0.36738832633E+03  0.00000000000E+00 0. -1.
         22    1    1    2    0    0 -0.38614675163E+03  0.95392852742E+03 -0.10975234995E+04  0.15045420504E+04  0.00000000000E+00 0.  1.
<mgrwt>
<rscale>  0 0.28844526E+04</rscale>
<asrwt>0</asrwt>
<pdfrwt beam="1">  1        2 0.20884005E+00 0.28844526E+04</pdfrwt>
<pdfrwt beam="2">  1       -2 0.23573622E+00 0.28844526E+04</pdfrwt>
<totfact> 0.10416198E+00</totfact>
</mgrwt>
</event>
<event>
 6    1  0.2238133E-007  0.1690486E+04  0.7818608E-02  0.8766809E-01
         -2   -1    0    0    0  501 -0.00000000000E+00  0.00000000000E+00  0.41275488103E+03  0.41275488103E+03  0.00000000000E+00 0.  1.
          2   -1    0    0  501    0  0.00000000000E+00 -0.00000000000E+00 -0.17308951304E+04  0.17308951304E+04  0.00000000000E+00 0. -1.
         23    2    1    2    0    0 -0.34298783118E+03 -0.12911392442E+03  0.30100936083E+03  0.48354262995E+03  0.94317452556E+02 0.  0.
         11    1    3    3    0    0 -0.19354749017E+03 -0.94363677119E+02  0.22807785126E+03  0.31366326012E+03  0.00000000000E+00 0.  1.
        -11    1    3    3    0    0 -0.14944034100E+03 -0.34750247298E+02  0.72931509573E+02  0.16987936983E+03  0.00000000000E+00 0. -1.
         22    1    1    2    0    0  0.34298783118E+03  0.12911392442E+03 -0.16191496102E+04  0.16601073814E+04  0.00000000000E+00 0. -1.
<mgrwt>
<rscale>  0 0.16904856E+04</rscale>
<asrwt>0</asrwt>
<pdfrwt beam="1">  1        2 0.26629156E+00 0.16904856E+04</pdfrwt>
<pdfrwt beam="2">  1       -2 0.63500751E-01 0.16904856E+04</pdfrwt>
<totfact> 0.20601320E+01</totfact>
</mgrwt>
</event>
<event>
 6    1  0.2238133E-007  0.2658644E+04  0.7818608E-02  0.8348550E-01
         -2   -1    0    0    0  501 -0.00000000000E+00  0.00000000000E+00  0.12076424662E+04  0.12076424662E+04  0.00000000000E+00 0.  1.
          2   -1    0    0  501    0  0.00000000000E+00 -0.00000000000E+00 -0.14632615192E+04  0.14632615192E+04  0.00000000000E+00 0. -1.
         23    2    1    2    0    0 -0.98893322621E+03 -0.69595091990E+03 -0.67730645363E+03  0.13902178909E+04  0.10781995761E+03 0.  0.
         11    1    3    3    0    0 -0.62360181960E+03 -0.38521812878E+03 -0.44273116640E+03  0.85631952089E+03  0.00000000000E+00 0. -1.
        -11    1    3    3    0    0 -0.36533140660E+03 -0.31073279111E+03 -0.23457528723E+03  0.53389837002E+03  0.00000000000E+00 0.  1.
         22    1    1    2    0    0  0.98893322621E+03  0.69595091990E+03  0.42168740056E+03  0.12806860945E+04  0.00000000000E+00 0. -1.
<mgrwt>
<rscale>  0 0.26586438E+04</rscale>
<asrwt>0</asrwt>
<pdfrwt beam="1">  1        2 0.22511716E+00 0.26586438E+04</pdfrwt>
<pdfrwt beam="2">  1       -2 0.18579115E+00 0.26586438E+04</pdfrwt>
<totfact> 0.19402210E+00</totfact>
</mgrwt>
</event>
<event>
 6    1  0.2238133E-007  0.8863198E+03  0.7818608E-02  0.9442846E-01
          2   -1    0    0  501    0  0.00000000000E+00  0.00000000000E+00  0.98349362304E+03  0.98349362304E+03  0.00000000000E+00 0. -1.
         -2   -1    0    0    0  501 -0.00000000000E+00 -0.00000000000E+00 -0.19968680947E+03  0.19968680947E+03  0.00000000000E+00 0.  1.
         23    2    1    2    0    0 -0.18982244798E+03  0.11977533405E+03  0.89854576679E+03  0.93110163572E+03  0.95849197260E+02 0.  0.
         13    1    3    3    0    0 -0.11184305337E+03  0.35059808186E+02  0.59536886071E+03  0.60679662082E+03  0.00000000000E+00 0. -1.
        -13    1    3    3    0    0 -0.77979394612E+02  0.84715525865E+02  0.30317690608E+03  0.32430501489E+03  0.00000000000E+00 0.  1.
         22    1    1    2    0    0  0.18982244798E+03 -0.11977533405E+03 -0.11473895323E+03  0.25207879679E+03  0.00000000000E+00 0.  1.
<mgrwt>
<rscale>  0 0.88631982E+03</rscale>
<asrwt>0</asrwt>
<pdfrwt beam="1">  1        2 0.15130671E+00 0.88631982E+03</pdfrwt>
<pdfrwt beam="2">  1       -2 0.30721048E-01 0.88631982E+03</pdfrwt>
<totfact> 0.25362990E+02</totfact>
</mgrwt>
</event>
<event>
 6    1  0.2238133E-007  0.5543997E+03  0.7818608E-02  0.1000481E+00
         -2   -1    0    0    0  501 -0.00000000000E+00  0.00000000000E+00  0.28143005219E+03  0.28143005219E+03  0.00000000000E+00 0.  1.
          2   -1    0    0  501    0  0.00000000000E+00 -0.00000000000E+00 -0.27303321875E+03  0.27303321875E+03  0.00000000000E+00 0. -1.
         23    2    1    2    0    0 -0.70846572420E+02  0.16100660536E+03 -0.19995011415E+03  0.28178981356E+03  0.92103675745E+02 0.  0.
         11    1    3    3    0    0  0.89893624174E+01  0.23583535283E+02  0.13949524814E+01  0.25277216333E+02  0.00000000000E+00 0.  1.
        -11    1    3    3    0    0 -0.79835934838E+02  0.13742307008E+03 -0.20134506663E+03  0.25651259723E+03  0.00000000000E+00 0. -1.
         22    1    1    2    0    0  0.70846572420E+02 -0.16100660536E+03  0.20834694759E+03  0.27267345738E+03  0.00000000000E+00 0.  1.
<mgrwt>
<rscale>  0 0.55439969E+03</rscale>
<asrwt>0</asrwt>
<pdfrwt beam="1">  1        2 0.42005111E-01 0.55439969E+03</pdfrwt>
<pdfrwt beam="2">  1       -2 0.43296931E-01 0.55439969E+03</pdfrwt>
<totfact> 0.62101822E+02</totfact>
</mgrwt>
</event>
<event>
 6    1  0.2238133E-007  0.3049755E+04  0.7818608E-02  0.8229664E-01
         -2   -1    0    0    0  501 -0.00000000000E+00  0.00000000000E+00  0.81660865444E+03  0.81660865444E+03  0.00000000000E+00 0.  1.
          2   -1    0    0  501    0  0.00000000000E+00 -0.00000000000E+00 -0.28474493761E+04  0.28474493761E+04  0.00000000000E+00 0. -1.
         23    2    1    2    0    0 -0.87616269619E+03  0.65501489942E+03 -0.22902102296E+04  0.25397902108E+04  0.93626014569E+02 0.  0.
         11    1    3    3    0    0 -0.34186053807E+03  0.31296649653E+03 -0.95529104850E+03  0.10617898299E+04  0.00000000000E+00 0. -1.
        -11    1    3    3    0    0 -0.53430215812E+03  0.34204840289E+03 -0.13349191811E+04  0.14780003810E+04  0.00000000000E+00 0.  1.
         22    1    1    2    0    0  0.87616269619E+03 -0.65501489942E+03  0.25936950799E+03  0.11242678197E+04  0.00000000000E+00 0.  1.
<mgrwt>
<rscale>  0 0.30497553E+04</rscale>
<asrwt>0</asrwt>
<pdfrwt beam="1">  1        2 0.43806913E+00 0.30497553E+04</pdfrwt>
<pdfrwt beam="2">  1       -2 0.12563210E+00 0.30497553E+04</pdfrwt>
<totfact> 0.87291517E-01</totfact>
</mgrwt>
</event>
<event>
 6    1  0.2238133E-007  0.2465459E+04  0.7818608E-02  0.8415395E-01
         -2   -1    0    0    0  501 -0.00000000000E+00  0.00000000000E+00  0.17346135418E+04  0.17346135418E+04  0.00000000000E+00 0.  1.
          2   -1    0    0  501    0  0.00000000000E+00 -0.00000000000E+00 -0.87605804994E+03  0.87605804994E+03  0.00000000000E+00 0. -1.
         23    2    1    2    0    0 -0.75571094237E+03  0.65611752031E+03 -0.32932764755E+03  0.10573990523E+04  0.89704110838E+02 0.  0.
         13    1    3    3    0    0 -0.38787338487E+03  0.28948564136E+03 -0.13034634478E+03  0.50123634030E+03  0.00000000000E+00 0.  1.
        -13    1    3    3    0    0 -0.36783755751E+03  0.36663187895E+03 -0.19898130277E+03  0.55616271200E+03  0.00000000000E+00 0. -1.
         22    1    1    2    0    0  0.75571094237E+03 -0.65611752031E+03  0.11878831394E+04  0.15532725395E+04  0.00000000000E+00 0.  1.
<mgrwt>
<rscale>  0 0.24654591E+04</rscale>
<asrwt>0</asrwt>
<pdfrwt beam="1">  1        2 0.13477816E+00 0.24654591E+04</pdfrwt>
<pdfrwt beam="2">  1       -2 0.26686362E+00 0.24654591E+04</pdfrwt>
<totfact> 0.13792908E+00</totfact>
</mgrwt>
</event>
<event>
 6    1  0.2238133E-007  0.1233359E+04  0.7818608E-02  0.9084148E-01
          2   -1    0    0  501    0  0.00000000000E+00  0.00000000000E+00  0.13204108422E+04  0.13204108422E+04  0.00000000000E+00 0. -1.
         -2   -1    0    0    0  501 -0.00000000000E+00 -0.00000000000E+00 -0.28801157364E+03  0.28801157364E+03  0.00000000000E+00 0.  1.
         23    2    1    2    0    0  0.33666029751E+03 -0.47423625895E+02  0.11846961461E+04  0.12358858471E+04  0.91212455848E+02 0.  0.
         11    1    3    3    0    0  0.30192589114E+03 -0.65686786327E+02  0.10993892422E+04  0.11419854217E+04  0.00000000000E+00 0. -1.
        -11    1    3    3    0    0  0.34734406362E+02  0.18263160432E+02  0.85306903941E+02  0.93900425315E+02  0.00000000000E+00 0.  1.
         22    1    1    2    0    0 -0.33666029751E+03  0.47423625895E+02 -0.15229687752E+03  0.37253656883E+03  0.00000000000E+00 0.  1.
<mgrwt>
<rscale>  0 0.12333590E+04</rscale>
<asrwt>0</asrwt>
<pdfrwt beam="1">  1        2 0.20314013E+00 0.12333590E+04</pdfrwt>
<pdfrwt beam="2">  1       -2 0.44309474E-01 0.12333590E+04</pdfrwt>
<totfact> 0.76461458E+01</totfact>
</mgrwt>
</event>
<event>
 6    1  0.2238133E-007  0.1892627E+04  0.7818608E-02  0.8658535E-01
         -2   -1    0    0    0  501 -0.00000000000E+00  0.00000000000E+00  0.36534556045E+03  0.36534556045E+03  0.00000000000E+00 0.  1.
          2   -1    0    0  501    0  0.00000000000E+00 -0.00000000000E+00 -0.24511284582E+04  0.24511284582E+04  0.00000000000E+00 0. -1.
         23    2    1    2    0    0  0.83793928513E+03  0.29983906110E+03 -0.15139572758E+04  0.17586317572E+04  0.93130641389E+02 0.  0.
         13    1    3    3    0    0  0.57720645273E+03  0.20579758580E+03 -0.95453262514E+03  0.11343070430E+04  0.00000000000E+00 0.  1.
        -13    1    3    3    0    0  0.26073283240E+03  0.94041475300E+02 -0.55942465069E+03  0.62432471420E+03  0.00000000000E+00 0. -1.
         22    1    1    2    0    0 -0.83793928513E+03 -0.29983906110E+03 -0.57182562190E+03  0.10578422614E+04  0.00000000000E+00 0.  1.
<mgrwt>
<rscale>  0 0.18926266E+04</rscale>
<asrwt>0</asrwt>
<pdfrwt beam="1">  1        2 0.37709668E+00 0.18926266E+04</pdfrwt>
<pdfrwt beam="2">  1       -2 0.56207011E-01 0.18926266E+04</pdfrwt>
<totfact> 0.10352276E+01</totfact>
</mgrwt>
</event>
<event>
 6    1  0.2238133E-007  0.1800279E+04  0.7818608E-02  0.8706151E-01
          2   -1    0    0  501    0  0.00000000000E+00  0.00000000000E+00  0.27580791295E+04  0.27580791295E+04  0.00000000000E+00 0. -1.
         -2   -1    0    0    0  501 -0.00000000000E+00 -0.00000000000E+00 -0.29377357265E+03  0.29377357265E+03  0.00000000000E+00 0.  1.
         23    2    1    2    0    0  0.52913622813E+02 -0.53054778070E+03  0.24600445155E+04  0.25186557821E+04  0.86759040618E+02 0.  0.
         13    1    3    3    0    0  0.49781145391E+02 -0.17921168353E+03  0.73261162147E+03  0.75585367490E+03  0.00000000000E+00 0. -1.
        -13    1    3    3    0    0  0.31324774222E+01 -0.35133609717E+03  0.17274328940E+04  0.17628021072E+04  0.00000000000E+00 0.  1.
         22    1    1    2    0    0 -0.52913622813E+02  0.53054778070E+03  0.42610412995E+01  0.53319692005E+03  0.00000000000E+00 0.  1.
<mgrwt>
<rscale>  0 0.18002786E+04</rscale>
<asrwt>0</asrwt>
<pdfrwt beam="1">  1        2 0.42431985E+00 0.18002786E+04</pdfrwt>
<pdfrwt beam="2">  1       -2 0.45195936E-01 0.18002786E+04</pdfrwt>
<totfact> 0.10768370E+01</totfact>
</mgrwt>
</event>
<event>
 6    1  0.2238133E-007  0.4349306E+04  0.7818608E-02  0.7937563E-01
          2   -1    0    0  501    0  0.00000000000E+00  0.00000000000E+00  0.36427776046E+04  0.36427776046E+04  0.00000000000E+00 0. -1.
         -2   -1    0    0    0  501 -0.00000000000E+00 -0.00000000000E+00 -0.12982169716E+04  0.12982169716E+04  0.00000000000E+00 0.  1.
         23    2    1    2    0    0  0.16966120607E+04  0.94246670727E+03  0.22849799154E+04  0.29992721860E+04  0.88116134504E+02 0.  0.
         11    1    3    3    0    0  0.11718378651E+04  0.60535118105E+03  0.15356538312E+04  0.20243237695E+04  0.00000000000E+00 0. -1.
        -11    1    3    3    0    0  0.52477419553E+03  0.33711552623E+03  0.74932608426E+03  0.97494841652E+03  0.00000000000E+00 0.  1.
         22    1    1    2    0    0 -0.16966120607E+04 -0.94246670727E+03  0.59580717617E+02  0.19417223902E+04  0.00000000000E+00 0.  1.
<mgrwt>
<rscale>  0 0.43493060E+04</rscale>
<asrwt>0</asrwt>
<pdfrwt beam="1">  1        2 0.56042732E+00 0.43493060E+04</pdfrwt>
<pdfrwt beam="2">  1       -2 0.19972569E+00 0.43493060E+04</pdfrwt>
<totfact> 0.65697099E-02</totfact>
</mgrwt>
</event>
<event>
 6    1  0.2238133E-007  0.8566111E+03  0.7818608E-02  0.9481507E-01
          2   -1    0    0  501    0  0.00000000000E+00  0.00000000000E+00  0.38788041169E+03  0.38788041169E+03  0.00000000000E+00 0. -1.
         -2   -1    0    0    0  501 -0.00000000000E+00 -0.00000000000E+00 -0.47294379275E+03  0.47294379275E+03  0.00000000000E+00 0.  1.
         23    2    1    2    0    0 -0.29486152809E+03  0.30214346332E+03 -0.72450035484E+02  0.43845814324E+03  0.93608453451E+02 0.  0.
         13    1    3    3    0    0 -0.13587946393E+03  0.78751944364E+02 -0.42095716076E+02  0.16259503920E+03  0.00000000000E+00 0.  1.
        -13    1    3    3    0    0 -0.15898206415E+03  0.22339151896E+03 -0.30354319408E+02  0.27586310404E+03  0.00000000000E+00 0. -1.
         22    1    1    2    0    0  0.29486152809E+03 -0.30214346332E+03 -0.12613345579E+02  0.42236606121E+03  0.00000000000E+00 0.  1.
<mgrwt>
<rscale>  0 0.85661107E+03</rscale>
<asrwt>0</asrwt>
<pdfrwt beam="1">  1        2 0.59673909E-01 0.85661107E+03</pdfrwt>
<pdfrwt beam="2">  1       -2 0.72760584E-01 0.85661107E+03</pdfrwt>
<totfact> 0.14139850E+02</totfact>
</mgrwt>
</event>
<event>
 6    1  0.2238133E-007  0.1727163E+04  0.7818608E-02  0.8746022E-01
          2   -1    0    0  501    0  0.00000000000E+00  0.00000000000E+00  0.13570474566E+04  0.13570474566E+04  0.00000000000E+00 0. -1.
         -2   -1    0    0    0  501 -0.00000000000E+00 -0.00000000000E+00 -0.54955560312E+03  0.54955560312E+03  0.00000000000E+00 0.  1.
         23    2    1    2    0    0  0.65071740811E+03 -0.22979751007E+03  0.97356727815E+03  0.11967995041E+04  0.90861251717E+02 0.  0.
         11    1    3    3    0    0  0.25459652641E+03 -0.56302677565E+02  0.41971899589E+03  0.49411883011E+03  0.00000000000E+00 0.  1.
        -11    1    3    3    0    0  0.39612088169E+03 -0.17349483251E+03  0.55384828226E+03  0.70268067398E+03  0.00000000000E+00 0. -1.
         22    1    1    2    0    0 -0.65071740811E+03  0.22979751007E+03 -0.16607542470E+03  0.70980355559E+03  0.00000000000E+00 0.  1.
<mgrwt>
<rscale>  0 0.17271630E+04</rscale>
<asrwt>0</asrwt>
<pdfrwt beam="1">  1        2 0.20877653E+00 0.17271630E+04</pdfrwt>
<pdfrwt beam="2">  1       -2 0.84547016E-01 0.17271630E+04</pdfrwt>
<totfact> 0.17740744E+01</totfact>
</mgrwt>
</event>
<event>
 6    1  0.2238133E-007  0.3368665E+04  0.7818608E-02  0.8145640E-01
          1   -1    0    0  501    0  0.00000000000E+00  0.00000000000E+00  0.20972627424E+04  0.20972627424E+04  0.00000000000E+00 0. -1.
         -1   -1    0    0    0  501 -0.00000000000E+00 -0.00000000000E+00 -0.13527042614E+04  0.13527042614E+04  0.00000000000E+00 0.  1.
         23    2    1    2    0    0 -0.14383324467E+04 -0.28350301406E+02  0.12672844335E+04  0.19193310614E+04  0.90652749878E+02 0.  0.
         11    1    3    3    0    0 -0.13202110923E+03 -0.18128779983E+02  0.14691018966E+03  0.19834522876E+03  0.00000000000E+00 0.  1.
        -11    1    3    3    0    0 -0.13063113374E+04 -0.10221521423E+02  0.11203742439E+04  0.17209858326E+04  0.00000000000E+00 0. -1.
         22    1    1    2    0    0  0.14383324467E+04  0.28350301406E+02 -0.52272595248E+03  0.15306359424E+04  0.00000000000E+00 0.  1.
<mgrwt>
<rscale>  0 0.33686652E+04</rscale>
<asrwt>0</asrwt>
<pdfrwt beam="1">  1        1 0.32265581E+00 0.33686652E+04</pdfrwt>
<pdfrwt beam="2">  1       -1 0.20810835E+00 0.33686652E+04</pdfrwt>
<totfact> 0.27957763E-01</totfact>
</mgrwt>
</event>
<event>
 6    1  0.2238133E-007  0.8424664E+03  0.7818608E-02  0.9500504E-01
         -2   -1    0    0    0  501 -0.00000000000E+00  0.00000000000E+00  0.51133356600E+03  0.51133356600E+03  0.00000000000E+00 0.  1.
          2   -1    0    0  501    0  0.00000000000E+00 -0.00000000000E+00 -0.34700911053E+03  0.34700911053E+03  0.00000000000E+00 0. -1.
         23    2    1    2    0    0 -0.67423707438E+02 -0.42098132651E+02  0.49951438974E+03  0.51385682613E+03  0.90642170666E+02 0.  0.
         11    1    3    3    0    0 -0.10452945068E+02  0.23068775219E+02  0.21445586040E+03  0.21594617040E+03  0.00000000000E+00 0. -1.
        -11    1    3    3    0    0 -0.56970762370E+02 -0.65166907870E+02  0.28505852934E+03  0.29791065573E+03  0.00000000000E+00 0.  1.
         22    1    1    2    0    0  0.67423707438E+02  0.42098132651E+02 -0.33518993427E+03  0.34448585041E+03  0.00000000000E+00 0. -1.
<mgrwt>
<rscale>  0 0.84246639E+03</rscale>
<asrwt>0</asrwt>
<pdfrwt beam="1">  1        2 0.53386017E-01 0.84246639E+03</pdfrwt>
<pdfrwt beam="2">  1       -2 0.78666702E-01 0.84246639E+03</pdfrwt>
<totfact> 0.13477167E+02</totfact>
</mgrwt>
</event>
<event>
 6    1  0.2238133E-007  0.2992242E+04  0.7818608E-02  0.8245950E-01
         -2   -1    0    0    0  501 -0.00000000000E+00  0.00000000000E+00  0.19065479256E+04  0.19065479256E+04  0.00000000000E+00 0.  1.
          2   -1    0    0  501    0  0.00000000000E+00 -0.00000000000E+00 -0.11740479297E+04  0.11740479297E+04  0.00000000000E+00 0. -1.
         23    2    1    2    0    0  0.46845050939E+03  0.13570927926E+04 -0.61344792820E+02  0.14400665883E+04  0.94243660742E+02 0.  0.
         13    1    3    3    0    0  0.25902596245E+03  0.85747127058E+03 -0.87752353499E+01  0.89578369814E+03  0.00000000000E+00 0. -1.
        -13    1    3    3    0    0  0.20942454693E+03  0.49962152203E+03 -0.52569557470E+02  0.54428289014E+03  0.00000000000E+00 0.  1.
         22    1    1    2    0    0 -0.46845050939E+03 -0.13570927926E+04  0.79384478870E+03  0.16405292671E+04  0.00000000000E+00 0.  1.
<mgrwt>
<rscale>  0 0.29922424E+04</rscale>
<asrwt>0</asrwt>
<pdfrwt beam="1">  1        2 0.18062276E+00 0.29922424E+04</pdfrwt>
<pdfrwt beam="2">  1       -2 0.29331507E+00 0.29922424E+04</pdfrwt>
<totfact> 0.58725189E-01</totfact>
</mgrwt>
</event>
<event>
 6    1  0.2238133E-007  0.3372434E+04  0.7818608E-02  0.8144705E-01
          2   -1    0    0  501    0  0.00000000000E+00  0.00000000000E+00  0.34743858682E+04  0.34743858682E+04  0.00000000000E+00 0. -1.
         -2   -1    0    0    0  501 -0.00000000000E+00 -0.00000000000E+00 -0.81836859861E+03  0.81836859861E+03  0.00000000000E+00 0.  1.
         23    2    1    2    0    0 -0.42983992782E+03 -0.21459826407E+03  0.33847278962E+04  0.34199234661E+04  0.93160097865E+02 0.  0.
         13    1    3    3    0    0 -0.32835535832E+03 -0.12255917101E+03  0.22925256771E+04  0.23191619115E+04  0.00000000000E+00 0. -1.
        -13    1    3    3    0    0 -0.10148456950E+03 -0.92039093063E+02  0.10922022191E+04  0.11007615546E+04  0.00000000000E+00 0.  1.
         22    1    1    2    0    0  0.42983992782E+03  0.21459826407E+03 -0.72871062663E+03  0.87283100074E+03  0.00000000000E+00 0.  1.
<mgrwt>
<rscale>  0 0.33724343E+04</rscale>
<asrwt>0</asrwt>
<pdfrwt beam="1">  1        2 0.53452090E+00 0.33724343E+04</pdfrwt>
<pdfrwt beam="2">  1       -2 0.12590286E+00 0.33724343E+04</pdfrwt>
<totfact> 0.33073601E-01</totfact>
</mgrwt>
</event>
<event>
 6    1  0.2238133E-007  0.2304606E+04  0.7818608E-02  0.8476107E-01
         -2   -1    0    0    0  501 -0.00000000000E+00  0.00000000000E+00  0.12715471745E+04  0.12715471745E+04  0.00000000000E+00 0.  1.
          2   -1    0    0  501    0  0.00000000000E+00 -0.00000000000E+00 -0.10442413202E+04  0.10442413202E+04  0.00000000000E+00 0. -1.
         23    2    1    2    0    0 -0.46899610041E+03  0.10114422894E+04 -0.17169616500E+03  0.11316535960E+04  0.90484480717E+02 0.  0.
         13    1    3    3    0    0 -0.21868970829E+03  0.57358583836E+03 -0.10810635741E+03  0.62330801935E+03  0.00000000000E+00 0.  1.
        -13    1    3    3    0    0 -0.25030639212E+03  0.43785645104E+03 -0.63589807589E+02  0.50834557664E+03  0.00000000000E+00 0. -1.
         22    1    1    2    0    0  0.46899610041E+03 -0.10114422894E+04  0.39900201926E+03  0.11841348987E+04  0.00000000000E+00 0.  1.
<mgrwt>
<rscale>  0 0.23046059E+04</rscale>
<asrwt>0</asrwt>
<pdfrwt beam="1">  1        2 0.16065251E+00 0.23046059E+04</pdfrwt>
<pdfrwt beam="2">  1       -2 0.19562264E+00 0.23046059E+04</pdfrwt>
<totfact> 0.30405683E+00</totfact>
</mgrwt>
</event>
<event>
 6    1  0.2238133E-007  0.2666837E+04  0.7818608E-02  0.8345846E-01
          1   -1    0    0  501    0  0.00000000000E+00  0.00000000000E+00  0.28939900020E+04  0.28939900020E+04  0.00000000000E+00 0. -1.
         -1   -1    0    0    0  501 -0.00000000000E+00 -0.00000000000E+00 -0.61437829522E+03  0.61437829522E+03  0.00000000000E+00 0.  1.
         23    2    1    2    0    0  0.77114805113E+03 -0.69722857291E+03  0.45871267724E+02  0.10445514719E+04  0.90479857473E+02 0.  0.
         13    1    3    3    0    0  0.39578696002E+03 -0.31224173004E+03 -0.78315864397E+01  0.50418602662E+03  0.00000000000E+00 0. -1.
        -13    1    3    3    0    0  0.37536109111E+03 -0.38498684287E+03  0.53702854164E+02  0.54036544528E+03  0.00000000000E+00 0.  1.
         22    1    1    2    0    0 -0.77114805113E+03  0.69722857291E+03  0.22337404391E+04  0.24638168253E+04  0.00000000000E+00 0. -1.
<mgrwt>
<rscale>  0 0.26668368E+04</rscale>
<asrwt>0</asrwt>
<pdfrwt beam="1">  1        1 0.44522922E+00 0.26668368E+04</pdfrwt>
<pdfrwt beam="2">  1       -1 0.94519739E-01 0.26668368E+04</pdfrwt>
<totfact> 0.67641521E-01</totfact>
</mgrwt>
</event>
<event>
 6    1  0.2238133E-007  0.1504488E+04  0.7818608E-02  0.8881474E-01
          2   -1    0    0  501    0  0.00000000000E+00  0.00000000000E+00  0.14405259900E+04  0.14405259900E+04  0.00000000000E+00 0. -1.
         -2   -1    0    0    0  501 -0.00000000000E+00 -0.00000000000E+00 -0.39282264859E+03  0.39282264859E+03  0.00000000000E+00 0.  1.
         23    2    1    2    0    0  0.28695710633E+03  0.63333615420E+03  0.18554523844E+03  0.72574958676E+03  0.93948720559E+02 0.  0.
         11    1    3    3    0    0  0.85498556389E+02  0.29798217406E+03  0.94388577094E+02  0.32405644985E+03  0.00000000000E+00 0. -1.
        -11    1    3    3    0    0  0.20145854994E+03  0.33535398014E+03  0.91156661342E+02  0.40169313691E+03  0.00000000000E+00 0.  1.
         22    1    1    2    0    0 -0.28695710633E+03 -0.63333615420E+03  0.86215810302E+03  0.11075990519E+04  0.00000000000E+00 0. -1.
<mgrwt>
<rscale>  0 0.15044883E+04</rscale>
<asrwt>0</asrwt>
<pdfrwt beam="1">  1        2 0.22161938E+00 0.15044883E+04</pdfrwt>
<pdfrwt beam="2">  1       -2 0.60434254E-01 0.15044883E+04</pdfrwt>
<totfact> 0.33795423E+01</totfact>
</mgrwt>
</event>
<event>
 6    1  0.2238133E-007  0.4170955E+04  0.7818608E-02  0.7970920E-01
         -2   -1    0    0    0  501 -0.00000000000E+00  0.00000000000E+00  0.36816070679E+04  0.36816070679E+04  0.00000000000E+00 0.  1.
          2   -1    0    0  501    0  0.00000000000E+00 -0.00000000000E+00 -0.11813365399E+04  0.11813365399E+04  0.00000000000E+00 0. -1.
         23    2    1    2    0    0 -0.20549697013E+04 -0.17843809554E+03  0.16009159159E+04  0.26127037660E+04  0.92458486725E+02 0.  0.
         11    1    3    3    0    0 -0.55825713111E+03 -0.13486109648E+02  0.46077411100E+03  0.72397906113E+03  0.00000000000E+00 0.  1.
        -11    1    3    3    0    0 -0.14967125702E+04 -0.16495198589E+03  0.11401418049E+04  0.18887247049E+04  0.00000000000E+00 0. -1.
         22    1    1    2    0    0  0.20549697013E+04  0.17843809554E+03  0.89935461215E+03  0.22502398418E+04  0.00000000000E+00 0. -1.
<mgrwt>
<rscale>  0 0.41709553E+04</rscale>
<asrwt>0</asrwt>
<pdfrwt beam="1">  1        2 0.18174408E+00 0.41709553E+04</pdfrwt>
<pdfrwt beam="2">  1       -2 0.56640108E+00 0.41709553E+04</pdfrwt>
<totfact> 0.10736738E-02</totfact>
</mgrwt>
</event>
<event>
 6    1  0.2238133E-007  0.5758022E+04  0.7818608E-02  0.7721150E-01
          2   -1    0    0  501    0  0.00000000000E+00  0.00000000000E+00  0.27593382676E+04  0.27593382676E+04  0.00000000000E+00 0. -1.
         -2   -1    0    0    0  501 -0.00000000000E+00 -0.00000000000E+00 -0.30038737784E+04  0.30038737784E+04  0.00000000000E+00 0.  1.
         23    2    1    2    0    0  0.25340646927E+04 -0.20174964834E+03 -0.14734356528E+04  0.29396712997E+04  0.92021409314E+02 0.  0.
         11    1    3    3    0    0  0.10986206649E+04 -0.68891282673E+02 -0.58991758654E+03  0.12488859568E+04  0.00000000000E+00 0. -1.
        -11    1    3    3    0    0  0.14354440278E+04 -0.13285836566E+03 -0.88351806628E+03  0.16907853429E+04  0.00000000000E+00 0.  1.
         22    1    1    2    0    0 -0.25340646927E+04  0.20174964834E+03  0.12289001420E+04  0.28235407464E+04  0.00000000000E+00 0. -1.
<mgrwt>
<rscale>  0 0.57580218E+04</rscale>
<asrwt>0</asrwt>
<pdfrwt beam="1">  1        2 0.42451358E+00 0.57580218E+04</pdfrwt>
<pdfrwt beam="2">  1       -2 0.46213442E+00 0.57580218E+04</pdfrwt>
<totfact> 0.48710513E-03</totfact>
</mgrwt>
</event>
<event>
 6    1  0.2238133E-007  0.9246767E+03  0.7818608E-02  0.9395249E-01
          2   -1    0    0  501    0  0.00000000000E+00  0.00000000000E+00  0.66159668096E+03  0.66159668096E+03  0.00000000000E+00 0. -1.
         -2   -1    0    0    0  501 -0.00000000000E+00 -0.00000000000E+00 -0.32309223427E+03  0.32309223427E+03  0.00000000000E+00 0.  1.
         23    2    1    2    0    0 -0.28743737101E+03 -0.33698667068E+03  0.29464092628E+03  0.53959986021E+03  0.90412804554E+02 0.  0.
         11    1    3    3    0    0 -0.19498602978E+03 -0.17748297698E+03  0.13754740154E+03  0.29738703166E+03  0.00000000000E+00 0. -1.
        -11    1    3    3    0    0 -0.92451341228E+02 -0.15950369371E+03  0.15709352474E+03  0.24221282855E+03  0.00000000000E+00 0.  1.
         22    1    1    2    0    0  0.28743737101E+03  0.33698667068E+03  0.43863520410E+02  0.44508905502E+03  0.00000000000E+00 0. -1.
<mgrwt>
<rscale>  0 0.92467670E+03</rscale>
<asrwt>0</asrwt>
<pdfrwt beam="1">  1        2 0.10178410E+00 0.92467670E+03</pdfrwt>
<pdfrwt beam="2">  1       -2 0.49706498E-01 0.92467670E+03</pdfrwt>
<totfact> 0.16883000E+02</totfact>
</mgrwt>
</event>
<event>
 6    1  0.2238133E-007  0.2096701E+04  0.7818608E-02  0.8562698E-01
         -2   -1    0    0    0  501 -0.00000000000E+00  0.00000000000E+00  0.64281519911E+03  0.64281519911E+03  0.00000000000E+00 0.  1.
          2   -1    0    0  501    0  0.00000000000E+00 -0.00000000000E+00 -0.17097277074E+04  0.17097277074E+04  0.00000000000E+00 0. -1.
         23    2    1    2    0    0  0.30554233409E+03 -0.38476635252E+03 -0.15710771997E+04  0.16485661313E+04  0.89919173975E+02 0.  0.
         13    1    3    3    0    0  0.11631300700E+03 -0.10525485796E+03 -0.61357682611E+03  0.63331178914E+03  0.00000000000E+00 0. -1.
        -13    1    3    3    0    0  0.18922932710E+03 -0.27951149456E+03 -0.95750037356E+03  0.10152543421E+04  0.00000000000E+00 0.  1.
         22    1    1    2    0    0 -0.30554233409E+03  0.38476635252E+03  0.50416469143E+03  0.70397677521E+03  0.00000000000E+00 0.  1.
<mgrwt>
<rscale>  0 0.20967012E+04</rscale>
<asrwt>0</asrwt>
<pdfrwt beam="1">  1        2 0.26303503E+00 0.20967012E+04</pdfrwt>
<pdfrwt beam="2">  1       -2 0.98894648E-01 0.20967012E+04</pdfrwt>
<totfact> 0.75713679E+00</totfact>
</mgrwt>
</event>
<event>
 6    1  0.2238133E-007  0.2647379E+04  0.7818608E-02  0.8352284E-01
          2   -1    0    0  501    0  0.00000000000E+00  0.00000000000E+00  0.14607597971E+04  0.14607597971E+04  0.00000000000E+00 0. -1.
         -2   -1    0    0    0  501 -0.00000000000E+00 -0.00000000000E+00 -0.11994808857E+04  0.11994808857E+04  0.00000000000E+00 0.  1.
         23    2    1    2    0    0  0.28504984089E+03 -0.85372755269E+02  0.14252368256E+04  0.14588498450E+04  0.91656653759E+02 0.  0.
         11    1    3    3    0    0  0.11749922289E+03 -0.79486282022E+02  0.57495714525E+03  0.59219916859E+03  0.00000000000E+00 0. -1.
        -11    1    3    3    0    0  0.16755061800E+03 -0.58864732468E+01  0.85027968033E+03  0.86665067642E+03  0.00000000000E+00 0.  1.
         22    1    1    2    0    0 -0.28504984089E+03  0.85372755269E+02 -0.11639579142E+04  0.12013908378E+04  0.00000000000E+00 0.  1.
<mgrwt>
<rscale>  0 0.26473787E+04</rscale>
<asrwt>0</asrwt>
<pdfrwt beam="1">  1        2 0.22473228E+00 0.26473787E+04</pdfrwt>
<pdfrwt beam="2">  1       -2 0.18453552E+00 0.26473787E+04</pdfrwt>
<totfact> 0.19871263E+00</totfact>
</mgrwt>
</event>
<event>
 6    1  0.2238133E-007  0.3343317E+04  0.7818608E-02  0.8151960E-01
          2   -1    0    0  501    0  0.00000000000E+00  0.00000000000E+00  0.21732743207E+04  0.21732743207E+04  0.00000000000E+00 0. -1.
         -2   -1    0    0    0  501 -0.00000000000E+00 -0.00000000000E+00 -0.12858208670E+04  0.12858208670E+04  0.00000000000E+00 0.  1.
         23    2    1    2    0    0  0.13235278680E+04  0.50216782002E+03  0.13615342496E+04  0.19662284361E+04  0.91543503546E+02 0.  0.
         13    1    3    3    0    0  0.70053118849E+03  0.29046079106E+03  0.67424673347E+03  0.10147512379E+04  0.00000000000E+00 0.  1.
        -13    1    3    3    0    0  0.62299667951E+03  0.21170702896E+03  0.68728751616E+03  0.95147719818E+03  0.00000000000E+00 0. -1.
         22    1    1    2    0    0 -0.13235278680E+04 -0.50216782002E+03 -0.47408079593E+03  0.14928667516E+04  0.00000000000E+00 0.  1.
<mgrwt>
<rscale>  0 0.33433166E+04</rscale>
<asrwt>0</asrwt>
<pdfrwt beam="1">  1        2 0.33434989E+00 0.33433166E+04</pdfrwt>
<pdfrwt beam="2">  1       -2 0.19781860E+00 0.33433166E+04</pdfrwt>
<totfact> 0.61164835E-01</totfact>
</mgrwt>
</event>
<event>
 6    1  0.2238133E-007  0.3289543E+04  0.7818608E-02  0.8165561E-01
          2   -1    0    0  501    0  0.00000000000E+00  0.00000000000E+00  0.43719698792E+04  0.43719698792E+04  0.00000000000E+00 0. -1.
         -2   -1    0    0    0  501 -0.00000000000E+00 -0.00000000000E+00 -0.61877657155E+03  0.61877657155E+03  0.00000000000E+00 0.  1.
         23    2    1    2    0    0 -0.70705498785E+03  0.14440213343E+04  0.23947798751E+04  0.28858921984E+04  0.90987697887E+02 0.  0.
         13    1    3    3    0    0 -0.39041988525E+03  0.70267509694E+03  0.12285467457E+04  0.14681645293E+04  0.00000000000E+00 0.  1.
        -13    1    3    3    0    0 -0.31663510259E+03  0.74134623733E+03  0.11662331294E+04  0.14177276692E+04  0.00000000000E+00 0. -1.
         22    1    1    2    0    0  0.70705498785E+03 -0.14440213343E+04  0.13584134325E+04  0.21048542523E+04  0.00000000000E+00 0. -1.
<mgrwt>
<rscale>  0 0.32895425E+04</rscale>
<asrwt>0</asrwt>
<pdfrwt beam="1">  1        2 0.67261073E+00 0.32895425E+04</pdfrwt>
<pdfrwt beam="2">  1       -2 0.95196398E-01 0.32895425E+04</pdfrwt>
<totfact> 0.12600342E-01</totfact>
</mgrwt>
</event>
<event>
 6    1  0.2238133E-007  0.4084840E+04  0.7818608E-02  0.7987647E-01
          2   -1    0    0  501    0  0.00000000000E+00  0.00000000000E+00  0.32675827949E+04  0.32675827949E+04  0.00000000000E+00 0. -1.
         -2   -1    0    0    0  501 -0.00000000000E+00 -0.00000000000E+00 -0.12766254550E+04  0.12766254550E+04  0.00000000000E+00 0.  1.
         23    2    1    2    0    0 -0.13551642563E+04  0.11939895303E+04  0.20544345001E+04  0.27369698844E+04  0.90674542650E+02 0.  0.
         11    1    3    3    0    0 -0.12396620819E+04  0.10744641271E+04  0.18980777548E+04  0.25087714924E+04  0.00000000000E+00 0. -1.
        -11    1    3    3    0    0 -0.11550217440E+03  0.11952540321E+03  0.15635674532E+03  0.22819839200E+03  0.00000000000E+00 0.  1.
         22    1    1    2    0    0  0.13551642563E+04 -0.11939895303E+04 -0.63477160160E+02  0.18072383656E+04  0.00000000000E+00 0.  1.
<mgrwt>
<rscale>  0 0.40848400E+04</rscale>
<asrwt>0</asrwt>
<pdfrwt beam="1">  1        2 0.50270504E+00 0.40848400E+04</pdfrwt>
<pdfrwt beam="2">  1       -2 0.19640392E+00 0.40848400E+04</pdfrwt>
<totfact> 0.12868096E-01</totfact>
</mgrwt>
</event>
<event>
 6    1  0.2238133E-007  0.1508143E+04  0.7818608E-02  0.8879056E-01
          1   -1    0    0  501    0  0.00000000000E+00  0.00000000000E+00  0.10422702795E+04  0.10422702795E+04  0.00000000000E+00 0. -1.
         -1   -1    0    0    0  501 -0.00000000000E+00 -0.00000000000E+00 -0.54556274329E+03  0.54556274329E+03  0.00000000000E+00 0.  1.
         23    2    1    2    0    0 -0.79905888839E+02  0.65281848728E+03  0.63165823737E+03  0.91643997831E+03  0.91176623158E+02 0.  0.
         11    1    3    3    0    0 -0.84452248346E+02  0.44774159326E+03  0.39268952176E+03  0.60150625690E+03  0.00000000000E+00 0.  1.
        -11    1    3    3    0    0  0.45463595070E+01  0.20507689402E+03  0.23896871561E+03  0.31493372142E+03  0.00000000000E+00 0. -1.
         22    1    1    2    0    0  0.79905888839E+02 -0.65281848728E+03 -0.13495070118E+03  0.67139304446E+03  0.00000000000E+00 0. -1.
<mgrwt>
<rscale>  0 0.15081430E+04</rscale>
<asrwt>0</asrwt>
<pdfrwt beam="1">  1        1 0.16034927E+00 0.15081430E+04</pdfrwt>
<pdfrwt beam="2">  1       -1 0.83932730E-01 0.15081430E+04</pdfrwt>
<totfact> 0.19088427E+01</totfact>
</mgrwt>
</event>
<event>
 6    1  0.2238133E-007  0.1982276E+04  0.7818608E-02  0.8614952E-01
         -2   -1    0    0    0  501 -0.00000000000E+00  0.00000000000E+00  0.33158182746E+03  0.33158182746E+03  0.00000000000E+00 0.  1.
          2   -1    0    0  501    0  0.00000000000E+00 -0.00000000000E+00 -0.29626313529E+04  0.29626313529E+04  0.00000000000E+00 0. -1.
         23    2    1    2    0    0 -0.23629436018E+03 -0.95804767381E+03 -0.14288813359E+04  0.17389322649E+04  0.92158450144E+02 0.  0.
         13    1    3    3    0    0 -0.15047864943E+03 -0.47358385650E+03 -0.77494796888E+03  0.92058125526E+03  0.00000000000E+00 0.  1.
        -13    1    3    3    0    0 -0.85815710754E+02 -0.48446381732E+03 -0.65393336701E+03  0.81835100964E+03  0.00000000000E+00 0. -1.
         22    1    1    2    0    0  0.23629436018E+03  0.95804767381E+03 -0.12021681895E+04  0.15552809154E+04  0.00000000000E+00 0. -1.
<mgrwt>
<rscale>  0 0.19822762E+04</rscale>
<asrwt>0</asrwt>
<pdfrwt beam="1">  1        2 0.45578944E+00 0.19822762E+04</pdfrwt>
<pdfrwt beam="2">  1       -2 0.51012589E-01 0.19822762E+04</pdfrwt>
<totfact> 0.62233807E+00</totfact>
</mgrwt>
</event>
<event>
 6    1  0.2238133E-007  0.4134197E+04  0.7818608E-02  0.7978009E-01
         -2   -1    0    0    0  501 -0.00000000000E+00  0.00000000000E+00  0.10198646838E+04  0.10198646838E+04  0.00000000000E+00 0.  1.
          2   -1    0    0  501    0  0.00000000000E+00 -0.00000000000E+00 -0.41896688861E+04  0.41896688861E+04  0.00000000000E+00 0. -1.
         23    2    1    2    0    0 -0.70074448806E+03  0.52181799006E+03 -0.39449227846E+04  0.40415671026E+04  0.92260589151E+02 0.  0.
         11    1    3    3    0    0 -0.43122211872E+03  0.37440450124E+03 -0.26123535838E+04  0.26740460903E+04  0.00000000000E+00 0. -1.
        -11    1    3    3    0    0 -0.26952236934E+03  0.14741348882E+03 -0.13325692007E+04  0.13675210123E+04  0.00000000000E+00 0.  1.
         22    1    1    2    0    0  0.70074448806E+03 -0.52181799006E+03  0.77511858220E+03  0.11679664673E+04  0.00000000000E+00 0.  1.
<mgrwt>
<rscale>  0 0.41341966E+04</rscale>
<asrwt>0</asrwt>
<pdfrwt beam="1">  1        2 0.64456444E+00 0.41341966E+04</pdfrwt>
<pdfrwt beam="2">  1       -2 0.15690226E+00 0.41341966E+04</pdfrwt>
<totfact> 0.48961782E-02</totfact>
</mgrwt>
</event>
<event>
 6    1  0.2238133E-007  0.3503071E+04  0.7818608E-02  0.8113062E-01
         -2   -1    0    0    0  501 -0.00000000000E+00  0.00000000000E+00  0.18495195848E+04  0.18495195848E+04  0.00000000000E+00 0.  1.
          2   -1    0    0  501    0  0.00000000000E+00 -0.00000000000E+00 -0.16587426380E+04  0.16587426380E+04  0.00000000000E+00 0. -1.
         23    2    1    2    0    0 -0.51507676325E+03 -0.85419402621E+03  0.15358859215E+04  0.18336668506E+04  0.91853409879E+02 0.  0.
         11    1    3    3    0    0 -0.33510687745E+03 -0.49234022037E+03  0.85768133262E+03  0.10441804347E+04  0.00000000000E+00 0.  1.
        -11    1    3    3    0    0 -0.17996988579E+03 -0.36185380584E+03  0.67820458886E+03  0.78948641593E+03  0.00000000000E+00 0. -1.
         22    1    1    2    0    0  0.51507676325E+03  0.85419402621E+03 -0.13451089747E+04  0.16745953721E+04  0.00000000000E+00 0. -1.
<mgrwt>
<rscale>  0 0.35030712E+04</rscale>
<asrwt>0</asrwt>
<pdfrwt beam="1">  1        2 0.25519117E+00 0.35030712E+04</pdfrwt>
<pdfrwt beam="2">  1       -2 0.28454148E+00 0.35030712E+04</pdfrwt>
<totfact> 0.33560072E-01</totfact>
</mgrwt>
</event>
<event>
 6    1  0.2238133E-007  0.1882808E+04  0.7818608E-02  0.8663462E-01
         -2   -1    0    0    0  501 -0.00000000000E+00  0.00000000000E+00  0.12888879059E+04  0.12888879059E+04  0.00000000000E+00 0.  1.
          2   -1    0    0  501    0  0.00000000000E+00 -0.00000000000E+00 -0.68760150211E+03  0.68760150211E+03  0.00000000000E+00 0. -1.
         23    2    1    2    0    0  0.19719347540E+03 -0.75692382122E+02 -0.65934551731E+03  0.69828463414E+03  0.90831248064E+02 0.  0.
         11    1    3    3    0    0  0.13724150296E+02 -0.17017325105E+02 -0.18549653352E+03  0.18678036729E+03  0.00000000000E+00 0.  1.
        -11    1    3    3    0    0  0.18346932510E+03 -0.58675057017E+02 -0.47384898379E+03  0.51150426685E+03  0.00000000000E+00 0. -1.
         22    1    1    2    0    0 -0.19719347540E+03  0.75692382122E+02  0.12606319211E+04  0.12782047739E+04  0.00000000000E+00 0.  1.
<mgrwt>
<rscale>  0 0.18828078E+04</rscale>
<asrwt>0</asrwt>
<pdfrwt beam="1">  1        2 0.10578485E+00 0.18828078E+04</pdfrwt>
<pdfrwt beam="2">  1       -2 0.19829045E+00 0.18828078E+04</pdfrwt>
<totfact> 0.53610621E+00</totfact>
</mgrwt>
</event>
<event>
 6    1  0.2238133E-007  0.4024561E+04  0.7818608E-02  0.7999610E-01
         -2   -1    0    0    0  501 -0.00000000000E+00  0.00000000000E+00  0.19209546685E+04  0.19209546685E+04  0.00000000000E+00 0.  1.
          2   -1    0    0  501    0  0.00000000000E+00 -0.00000000000E+00 -0.21079479929E+04  0.21079479929E+04  0.00000000000E+00 0. -1.
         23    2    1    2    0    0  0.13140760135E+03  0.88907062970E+03  0.17076894163E+04  0.19318720870E+04  0.90620502864E+02 0.  0.
         13    1    3    3    0    0  0.59297775104E+02  0.30572641705E+03  0.68108042601E+03  0.74890280738E+03  0.00000000000E+00 0. -1.
        -13    1    3    3    0    0  0.72109826249E+02  0.58334421265E+03  0.10266089903E+04  0.11829692796E+04  0.00000000000E+00 0.  1.
         22    1    1    2    0    0 -0.13140760135E+03 -0.88907062970E+03 -0.18946827406E+04  0.20970305744E+04  0.00000000000E+00 0. -1.
<mgrwt>
<rscale>  0 0.40245609E+04</rscale>
<asrwt>0</asrwt>
<pdfrwt beam="1">  1        2 0.32429969E+00 0.40245609E+04</pdfrwt>
<pdfrwt beam="2">  1       -2 0.29553149E+00 0.40245609E+04</pdfrwt>
<totfact> 0.15500395E-01</totfact>
</mgrwt>
</event>
<event>
 6    1  0.2238133E-007  0.2971877E+04  0.7818608E-02  0.8251807E-01
         -2   -1    0    0    0  501 -0.00000000000E+00  0.00000000000E+00  0.59082243163E+03  0.59082243163E+03  0.00000000000E+00 0.  1.
          2   -1    0    0  501    0  0.00000000000E+00 -0.00000000000E+00 -0.37371867442E+04  0.37371867442E+04  0.00000000000E+00 0. -1.
         23    2    1    2    0    0  0.74492707155E+03 -0.30972983970E+03 -0.33895561503E+04  0.34853994290E+04  0.89829662845E+02 0.  0.
         13    1    3    3    0    0  0.21640229104E+03 -0.63958098048E+02 -0.10908954295E+04  0.11139898689E+04  0.00000000000E+00 0.  1.
        -13    1    3    3    0    0  0.52852478051E+03 -0.24577174166E+03 -0.22986607208E+04  0.23714095602E+04  0.00000000000E+00 0. -1.
         22    1    1    2    0    0 -0.74492707155E+03  0.30972983970E+03  0.24319183769E+03  0.84260974683E+03  0.00000000000E+00 0.  1.
<mgrwt>
<rscale>  0 0.29718774E+04</rscale>
<asrwt>0</asrwt>
<pdfrwt beam="1">  1        2 0.57495181E+00 0.29718774E+04</pdfrwt>
<pdfrwt beam="2">  1       -2 0.90895758E-01 0.29718774E+04</pdfrwt>
<totfact> 0.48508160E-01</totfact>
</mgrwt>
</event>
<event>
 6    1  0.2238133E-007  0.2976951E+04  0.7818608E-02  0.8250344E-01
          2   -1    0    0  501    0  0.00000000000E+00  0.00000000000E+00  0.15958018732E+04  0.15958018732E+04  0.00000000000E+00 0. -1.
         -2   -1    0    0    0  501 -0.00000000000E+00 -0.00000000000E+00 -0.13883671267E+04  0.13883671267E+04  0.00000000000E+00 0.  1.
         23    2    1    2    0    0 -0.83630541756E+03 -0.12295614887E+04  0.94310749817E+02  0.14928523855E+04  0.92116889943E+02 0.  0.
         13    1    3    3    0    0 -0.52632087063E+03 -0.83075310359E+03  0.32612133042E+02  0.98398573629E+03  0.00000000000E+00 0.  1.
        -13    1    3    3    0    0 -0.30998454693E+03 -0.39880838512E+03  0.61698616775E+02  0.50886664922E+03  0.00000000000E+00 0. -1.
         22    1    1    2    0    0  0.83630541756E+03  0.12295614887E+04  0.11312399666E+03  0.14913166145E+04  0.00000000000E+00 0.  1.
<mgrwt>
<rscale>  0 0.29769507E+04</rscale>
<asrwt>0</asrwt>
<pdfrwt beam="1">  1        2 0.24550798E+00 0.29769507E+04</pdfrwt>
<pdfrwt beam="2">  1       -2 0.21359494E+00 0.29769507E+04</pdfrwt>
<totfact> 0.10441846E+00</totfact>
</mgrwt>
</event>
<event>
 6    1  0.2238133E-007  0.7659712E+03  0.7818608E-02  0.9610622E-01
          2   -1    0    0  501    0  0.00000000000E+00  0.00000000000E+00  0.18622936576E+03  0.18622936576E+03  0.00000000000E+00 0. -1.
         -2   -1    0    0    0  501 -0.00000000000E+00 -0.00000000000E+00 -0.78762003018E+03  0.78762003018E+03  0.00000000000E+00 0.  1.
         23    2    1    2    0    0 -0.29418410697E+03 -0.42587898943E+02 -0.60121762453E+03  0.67659857950E+03  0.89246780392E+02 0.  0.
         13    1    3    3    0    0 -0.23822874413E+03 -0.69323557267E+02 -0.49124953655E+03  0.55034970454E+03  0.00000000000E+00 0. -1.
        -13    1    3    3    0    0 -0.55955362838E+02  0.26735658325E+02 -0.10996808798E+03  0.12624887497E+03  0.00000000000E+00 0.  1.
         22    1    1    2    0    0  0.29418410697E+03  0.42587898943E+02 -0.17303988743E+00  0.29725081644E+03  0.00000000000E+00 0. -1.
<mgrwt>
<rscale>  0 0.76597122E+03</rscale>
<asrwt>0</asrwt>
<pdfrwt beam="1">  1        2 0.28650671E-01 0.76597122E+03</pdfrwt>
<pdfrwt beam="2">  1       -2 0.12117232E+00 0.76597122E+03</pdfrwt>
<totfact> 0.98028286E+01</totfact>
</mgrwt>
</event>
<event>
 6    1  0.2238133E-007  0.3726805E+04  0.7818608E-02  0.8062047E-01
         -2   -1    0    0    0  501 -0.00000000000E+00  0.00000000000E+00  0.15612118553E+04  0.15612118553E+04  0.00000000000E+00 0.  1.
          2   -1    0    0  501    0  0.00000000000E+00 -0.00000000000E+00 -0.22240856097E+04  0.22240856097E+04  0.00000000000E+00 0. -1.
         23    2    1    2    0    0  0.78327434152E+03  0.76453723202E+03  0.11985693737E+04  0.16258979205E+04  0.94549623109E+02 0.  0.
         13    1    3    3    0    0  0.44867896522E+03  0.37468318038E+03  0.65752955877E+03  0.87979851111E+03  0.00000000000E+00 0. -1.
        -13    1    3    3    0    0  0.33459537629E+03  0.38985405164E+03  0.54103981492E+03  0.74609940942E+03  0.00000000000E+00 0.  1.
         22    1    1    2    0    0 -0.78327434152E+03 -0.76453723202E+03 -0.18614431282E+04  0.21593995445E+04  0.00000000000E+00 0. -1.
<mgrwt>
<rscale>  0 0.37268050E+04</rscale>
<asrwt>0</asrwt>
<pdfrwt beam="1">  1        2 0.34216702E+00 0.37268050E+04</pdfrwt>
<pdfrwt beam="2">  1       -2 0.24018644E+00 0.37268050E+04</pdfrwt>
<totfact> 0.29827486E-01</totfact>
</mgrwt>
</event>
<event>
 6    1  0.2238133E-007  0.1786050E+04  0.7818608E-02  0.8713754E-01
          2   -1    0    0  501    0  0.00000000000E+00  0.00000000000E+00  0.12484218076E+04  0.12484218076E+04  0.00000000000E+00 0. -1.
         -2   -1    0    0    0  501 -0.00000000000E+00 -0.00000000000E+00 -0.63880112177E+03  0.63880112177E+03  0.00000000000E+00 0.  1.
         23    2    1    2    0    0 -0.75638925927E+03 -0.39907211950E+03  0.56413341227E+03  0.10308045969E+04  0.11370286720E+03 0.  0.
         13    1    3    3    0    0 -0.39584858575E+03 -0.14530132887E+03  0.26569036629E+03  0.49839738137E+03  0.00000000000E+00 0.  1.
        -13    1    3    3    0    0 -0.36054067352E+03 -0.25377079063E+03  0.29844304598E+03  0.53240721552E+03  0.00000000000E+00 0. -1.
         22    1    1    2    0    0  0.75638925927E+03  0.39907211950E+03  0.45487273526E+02  0.85641833245E+03  0.00000000000E+00 0.  1.
<mgrwt>
<rscale>  0 0.17860496E+04</rscale>
<asrwt>0</asrwt>
<pdfrwt beam="1">  1        2 0.19206489E+00 0.17860496E+04</pdfrwt>
<pdfrwt beam="2">  1       -2 0.98277096E-01 0.17860496E+04</pdfrwt>
<totfact> 0.14420724E+01</totfact>
</mgrwt>
</event>
<event>
 6    1  0.2238133E-007  0.2329234E+04  0.7818608E-02  0.8466483E-01
          1   -1    0    0  501    0  0.00000000000E+00  0.00000000000E+00  0.96690297140E+03  0.96690297140E+03  0.00000000000E+00 0. -1.
         -1   -1    0    0    0  501 -0.00000000000E+00 -0.00000000000E+00 -0.14027596025E+04  0.14027596025E+04  0.00000000000E+00 0.  1.
         23    2    1    2    0    0 -0.10333382598E+04  0.48393416743E+03  0.76128154344E+01  0.11454708456E+04  0.10032579719E+03 0.  0.
         11    1    3    3    0    0 -0.85871983127E+03  0.39563252252E+03 -0.31168524220E+02  0.94598959740E+03  0.00000000000E+00 0. -1.
        -11    1    3    3    0    0 -0.17461842855E+03  0.88301644907E+02  0.38781339654E+02  0.19948124821E+03  0.00000000000E+00 0.  1.
         22    1    1    2    0    0  0.10333382598E+04 -0.48393416743E+03 -0.44346944653E+03  0.12241917283E+04  0.00000000000E+00 0.  1.
<mgrwt>
<rscale>  0 0.23292337E+04</rscale>
<asrwt>0</asrwt>
<pdfrwt beam="1">  1        1 0.14875430E+00 0.23292337E+04</pdfrwt>
<pdfrwt beam="2">  1       -1 0.21580917E+00 0.23292337E+04</pdfrwt>
<totfact> 0.17011183E+00</totfact>
</mgrwt>
</event>
<event>
 6    1  0.2238133E-007  0.3122230E+04  0.7818608E-02  0.8209663E-01
          2   -1    0    0  501    0  0.00000000000E+00  0.00000000000E+00  0.34997960681E+04  0.34997960681E+04  0.00000000000E+00 0. -1.
         -2   -1    0    0    0  501 -0.00000000000E+00 -0.00000000000E+00 -0.69634919666E+03  0.69634919666E+03  0.00000000000E+00 0.  1.
         23    2    1    2    0    0  0.10415891832E+03 -0.11605474607E+04  0.91992087872E+01  0.11686810636E+04  0.89505945211E+02 0.  0.
         13    1    3    3    0    0  0.10453752824E+02 -0.23280826632E+03  0.36161994171E+02  0.23583184610E+03  0.00000000000E+00 0. -1.
        -13    1    3    3    0    0  0.93705165494E+02 -0.92773919440E+03 -0.26962785384E+02  0.93284921754E+03  0.00000000000E+00 0.  1.
         22    1    1    2    0    0 -0.10415891832E+03  0.11605474607E+04  0.27942476627E+04  0.30274642011E+04  0.00000000000E+00 0. -1.
<mgrwt>
<rscale>  0 0.31222301E+04</rscale>
<asrwt>0</asrwt>
<pdfrwt beam="1">  1        2 0.53843015E+00 0.31222301E+04</pdfrwt>
<pdfrwt beam="2">  1       -2 0.10713065E+00 0.31222301E+04</pdfrwt>
<totfact> 0.48216312E-01</totfact>
</mgrwt>
</event>
<event>
 6    1  0.2238133E-007  0.2633327E+04  0.7818608E-02  0.8356968E-01
         -2   -1    0    0    0  501 -0.00000000000E+00  0.00000000000E+00  0.17855626156E+04  0.17855626156E+04  0.00000000000E+00 0.  1.
          2   -1    0    0  501    0  0.00000000000E+00 -0.00000000000E+00 -0.97090018058E+03  0.97090018058E+03  0.00000000000E+00 0. -1.
         23    2    1    2    0    0 -0.39104098850E+03 -0.55306708499E+03 -0.77211624262E+03  0.10311620030E+04  0.91298023396E+02 0.  0.
         11    1    3    3    0    0 -0.10982425036E+03 -0.11856631045E+03 -0.13702309059E+03  0.21188360790E+03  0.00000000000E+00 0.  1.
        -11    1    3    3    0    0 -0.28121673814E+03 -0.43450077454E+03 -0.63509315203E+03  0.81927839508E+03  0.00000000000E+00 0. -1.
         22    1    1    2    0    0  0.39104098850E+03  0.55306708499E+03  0.15867786776E+04  0.17253007932E+04  0.00000000000E+00 0.  1.
<mgrwt>
<rscale>  0 0.26333272E+04</rscale>
<asrwt>0</asrwt>
<pdfrwt beam="1">  1        2 0.14936926E+00 0.26333272E+04</pdfrwt>
<pdfrwt beam="2">  1       -2 0.27470194E+00 0.26333272E+04</pdfrwt>
<totfact> 0.10527253E+00</totfact>
</mgrwt>
</event>
<event>
 6    1  0.2238133E-007  0.5915797E+04  0.7818608E-02  0.7700930E-01
         -2   -1    0    0    0  501 -0.00000000000E+00  0.00000000000E+00  0.35771406537E+04  0.35771406537E+04  0.00000000000E+00 0.  1.
          2   -1    0    0  501    0  0.00000000000E+00 -0.00000000000E+00 -0.24458535375E+04  0.24458535375E+04  0.00000000000E+00 0. -1.
         23    2    1    2    0    0 -0.95236712593E+03  0.23846965820E+04 -0.92753638363E+03  0.27317125056E+04  0.90269260353E+02 0.  0.
         11    1    3    3    0    0 -0.21791540992E+02  0.60954771798E+02 -0.89971901817E+01  0.65355220870E+02  0.00000000000E+00 0. -1.
        -11    1    3    3    0    0 -0.93057558494E+03  0.23237418102E+04 -0.91853919344E+03  0.26663572847E+04  0.00000000000E+00 0.  1.
         22    1    1    2    0    0  0.95236712593E+03 -0.23846965820E+04  0.20588234999E+04  0.32912816857E+04  0.00000000000E+00 0.  1.
<mgrwt>
<rscale>  0 0.59157965E+04</rscale>
<asrwt>0</asrwt>
<pdfrwt beam="1">  1        2 0.37628516E+00 0.59157965E+04</pdfrwt>
<pdfrwt beam="2">  1       -2 0.55032933E+00 0.59157965E+04</pdfrwt>
<totfact> 0.21937097E-03</totfact>
</mgrwt>
</event>
<event>
 6    1  0.2238133E-007  0.4734351E+03  0.7818608E-02  0.1020955E+00
         -2   -1    0    0    0  501 -0.00000000000E+00  0.00000000000E+00  0.11613027674E+03  0.11613027674E+03  0.00000000000E+00 0.  1.
          2   -1    0    0  501    0  0.00000000000E+00 -0.00000000000E+00 -0.48252022419E+03  0.48252022419E+03  0.00000000000E+00 0. -1.
         23    2    1    2    0    0  0.18669410474E+03  0.60493246781E+02 -0.43165563286E+02  0.22051279563E+03  0.90821283480E+02 0.  0.
         11    1    3    3    0    0 -0.88921649674E+01  0.10990255724E+02  0.25623956356E+00  0.14139376839E+02  0.00000000000E+00 0.  1.
        -11    1    3    3    0    0  0.19558626971E+03  0.49502991057E+02 -0.43421802849E+02  0.20637341879E+03  0.00000000000E+00 0. -1.
         22    1    1    2    0    0 -0.18669410474E+03 -0.60493246781E+02 -0.32322438416E+03  0.37813770530E+03  0.00000000000E+00 0. -1.
<mgrwt>
<rscale>  0 0.47343514E+03</rscale>
<asrwt>0</asrwt>
<pdfrwt beam="1">  1        2 0.74233883E-01 0.47343514E+03</pdfrwt>
<pdfrwt beam="2">  1       -2 0.17866196E-01 0.47343514E+03</pdfrwt>
<totfact> 0.16621825E+03</totfact>
</mgrwt>
</event>
<event>
 6    1  0.2238133E-007  0.5896823E+04  0.7818608E-02  0.7703328E-01
          2   -1    0    0  501    0  0.00000000000E+00  0.00000000000E+00  0.30934553964E+04  0.30934553964E+04  0.00000000000E+00 0. -1.
         -2   -1    0    0    0  501 -0.00000000000E+00 -0.00000000000E+00 -0.28101683928E+04  0.28101683928E+04  0.00000000000E+00 0.  1.
         23    2    1    2    0    0  0.94092252677E+03 -0.23596236309E+04 -0.13553639628E+04  0.28806557327E+04  0.89482388969E+02 0.  0.
         11    1    3    3    0    0  0.43962753901E+03 -0.10251739691E+04 -0.63351663276E+03  0.12828083894E+04  0.00000000000E+00 0.  1.
        -11    1    3    3    0    0  0.50129498776E+03 -0.13344496618E+04 -0.72184733008E+03  0.15978473433E+04  0.00000000000E+00 0. -1.
         22    1    1    2    0    0 -0.94092252677E+03  0.23596236309E+04  0.16386509664E+04  0.30229680565E+04  0.00000000000E+00 0. -1.
<mgrwt>
<rscale>  0 0.58968231E+04</rscale>
<asrwt>0</asrwt>
<pdfrwt beam="1">  1        2 0.47591622E+00 0.58968231E+04</pdfrwt>
<pdfrwt beam="2">  1       -2 0.43233360E+00 0.58968231E+04</pdfrwt>
<totfact> 0.46956382E-03</totfact>
</mgrwt>
</event>
<event>
 6    1  0.2238133E-007  0.2503939E+04  0.7818608E-02  0.8401584E-01
          2   -1    0    0  501    0  0.00000000000E+00  0.00000000000E+00  0.92555113280E+03  0.92555113280E+03  0.00000000000E+00 0. -1.
         -2   -1    0    0    0  501 -0.00000000000E+00 -0.00000000000E+00 -0.16935068648E+04  0.16935068648E+04  0.00000000000E+00 0.  1.
         23    2    1    2    0    0  0.38838049052E+02  0.10941332356E+04  0.24691582418E+03  0.11262083043E+04  0.93497536110E+02 0.  0.
         11    1    3    3    0    0  0.37796308848E+01  0.42516461041E+03  0.50806564607E+02  0.42820618697E+03  0.00000000000E+00 0. -1.
        -11    1    3    3    0    0  0.35058418167E+02  0.66896862515E+03  0.19610925957E+03  0.69800211734E+03  0.00000000000E+00 0.  1.
         22    1    1    2    0    0 -0.38838049052E+02 -0.10941332356E+04 -0.10148715562E+04  0.14928496933E+04  0.00000000000E+00 0. -1.
<mgrwt>
<rscale>  0 0.25039387E+04</rscale>
<asrwt>0</asrwt>
<pdfrwt beam="1">  1        2 0.14239248E+00 0.25039387E+04</pdfrwt>
<pdfrwt beam="2">  1       -2 0.26053952E+00 0.25039387E+04</pdfrwt>
<totfact> 0.13912345E+00</totfact>
</mgrwt>
</event>
<event>
 6    1  0.2238133E-007  0.3186544E+04  0.7818608E-02  0.8192380E-01
         -2   -1    0    0    0  501 -0.00000000000E+00  0.00000000000E+00  0.97979072277E+03  0.97979072277E+03  0.00000000000E+00 0.  1.
          2   -1    0    0  501    0  0.00000000000E+00 -0.00000000000E+00 -0.25908758454E+04  0.25908758454E+04  0.00000000000E+00 0. -1.
         23    2    1    2    0    0 -0.93281951072E+03 -0.17016819071E+03  0.62672782051E+03  0.11402517432E+04  0.90977053524E+02 0.  0.
         11    1    3    3    0    0 -0.37350594628E+03 -0.39183332251E+02  0.28901047529E+03  0.47388720204E+03  0.00000000000E+00 0. -1.
        -11    1    3    3    0    0 -0.55931356444E+03 -0.13098485846E+03  0.33771734522E+03  0.66636454121E+03  0.00000000000E+00 0.  1.
         22    1    1    2    0    0  0.93281951072E+03  0.17016819071E+03 -0.22378129431E+04  0.24304148249E+04  0.00000000000E+00 0. -1.
<mgrwt>
<rscale>  0 0.31865443E+04</rscale>
<asrwt>0</asrwt>
<pdfrwt beam="1">  1        2 0.39859628E+00 0.31865443E+04</pdfrwt>
<pdfrwt beam="2">  1       -2 0.15073704E+00 0.31865443E+04</pdfrwt>
<totfact> 0.76791736E-01</totfact>
</mgrwt>
</event>
<event>
 6    1  0.2238133E-007  0.4838517E+04  0.7818608E-02  0.7853912E-01
         -2   -1    0    0    0  501 -0.00000000000E+00  0.00000000000E+00  0.24581276840E+04  0.24581276840E+04  0.00000000000E+00 0.  1.
          2   -1    0    0  501    0  0.00000000000E+00 -0.00000000000E+00 -0.23810037409E+04  0.23810037409E+04  0.00000000000E+00 0. -1.
         23    2    1    2    0    0  0.10659179584E+04  0.21608666074E+04 -0.16903806019E+03  0.24171237203E+04  0.91583976583E+02 0.  0.
         11    1    3    3    0    0  0.47531884240E+03  0.10191174360E+04 -0.11749754836E+03  0.11306343460E+04  0.00000000000E+00 0. -1.
        -11    1    3    3    0    0  0.59059911605E+03  0.11417491713E+04 -0.51540511829E+02  0.12864893744E+04  0.00000000000E+00 0.  1.
         22    1    1    2    0    0 -0.10659179584E+04 -0.21608666074E+04  0.24616200326E+03  0.24220077045E+04  0.00000000000E+00 0.  1.
<mgrwt>
<rscale>  0 0.48385168E+04</rscale>
<asrwt>0</asrwt>
<pdfrwt beam="1">  1        2 0.36630827E+00 0.48385168E+04</pdfrwt>
<pdfrwt beam="2">  1       -2 0.37817349E+00 0.48385168E+04</pdfrwt>
<totfact> 0.30931715E-02</totfact>
</mgrwt>
</event>
<event>
 6    1  0.2238133E-007  0.1108110E+04  0.7818608E-02  0.9197323E-01
         -2   -1    0    0    0  501 -0.00000000000E+00  0.00000000000E+00  0.15567414468E+03  0.15567414468E+03  0.00000000000E+00 0.  1.
          2   -1    0    0  501    0  0.00000000000E+00 -0.00000000000E+00 -0.19719204180E+04  0.19719204180E+04  0.00000000000E+00 0. -1.
         23    2    1    2    0    0 -0.47251664092E+03  0.28039363019E+03 -0.85457597026E+03  0.10200286118E+04  0.90915983836E+02 0.  0.
         11    1    3    3    0    0 -0.24669585596E+02 -0.20600383286E+01 -0.63056494723E+02  0.67741816762E+02  0.00000000000E+00 0. -1.
        -11    1    3    3    0    0 -0.44784705532E+03  0.28245366852E+03 -0.79151947554E+03  0.95228679502E+03  0.00000000000E+00 0.  1.
         22    1    1    2    0    0  0.47251664092E+03 -0.28039363019E+03 -0.96167030303E+03  0.11075659509E+04  0.00000000000E+00 0.  1.
<mgrwt>
<rscale>  0 0.11081101E+04</rscale>
<asrwt>0</asrwt>
<pdfrwt beam="1">  1        2 0.30337236E+00 0.11081101E+04</pdfrwt>
<pdfrwt beam="2">  1       -2 0.23949869E-01 0.11081101E+04</pdfrwt>
<totfact> 0.10676462E+02</totfact>
</mgrwt>
</event>
<event>
 6    1  0.2238133E-007  0.3375379E+04  0.7818608E-02  0.8143976E-01
          2   -1    0    0  501    0  0.00000000000E+00  0.00000000000E+00  0.14182292725E+04  0.14182292725E+04  0.00000000000E+00 0. -1.
         -2   -1    0    0    0  501 -0.00000000000E+00 -0.00000000000E+00 -0.20083464411E+04  0.20083464411E+04  0.00000000000E+00 0.  1.
         23    2    1    2    0    0 -0.55479743692E+02  0.11373178422E+04  0.96768438319E+03  0.14969862363E+04  0.89357987383E+02 0.  0.
         13    1    3    3    0    0 -0.46565142743E+02  0.27559244686E+03  0.26294663005E+03  0.38374527951E+03  0.00000000000E+00 0. -1.
        -13    1    3    3    0    0 -0.89146009486E+01  0.86172539535E+03  0.70473775314E+03  0.11132409568E+04  0.00000000000E+00 0.  1.
         22    1    1    2    0    0  0.55479743692E+02 -0.11373178422E+04 -0.15578015518E+04  0.19295894773E+04  0.00000000000E+00 0.  1.
<mgrwt>
<rscale>  0 0.33753789E+04</rscale>
<asrwt>0</asrwt>
<pdfrwt beam="1">  1        2 0.21818912E+00 0.33753789E+04</pdfrwt>
<pdfrwt beam="2">  1       -2 0.30897637E+00 0.33753789E+04</pdfrwt>
<totfact> 0.32828133E-01</totfact>
</mgrwt>
</event>
<event>
 6    1  0.2238133E-007  0.8663320E+03  0.7818608E-02  0.9468675E-01
          2   -1    0    0  501    0  0.00000000000E+00  0.00000000000E+00  0.26500375250E+03  0.26500375250E+03  0.00000000000E+00 0. -1.
         -2   -1    0    0    0  501 -0.00000000000E+00 -0.00000000000E+00 -0.70803827448E+03  0.70803827448E+03  0.00000000000E+00 0.  1.
         23    2    1    2    0    0  0.85493244836E+02  0.40536622426E+03 -0.10184718275E+03  0.43634875226E+03  0.91632495794E+02 0.  0.
         11    1    3    3    0    0  0.62241268202E+02  0.27204804600E+03 -0.23715462074E+02  0.28008309114E+03  0.00000000000E+00 0. -1.
        -11    1    3    3    0    0  0.23251976634E+02  0.13331817826E+03 -0.78131720672E+02  0.15626566113E+03  0.00000000000E+00 0.  1.
         22    1    1    2    0    0 -0.85493244836E+02 -0.40536622426E+03 -0.34118733923E+03  0.53669327472E+03  0.00000000000E+00 0.  1.
<mgrwt>
<rscale>  0 0.86633204E+03</rscale>
<asrwt>0</asrwt>
<pdfrwt beam="1">  1        2 0.40769808E-01 0.86633204E+03</pdfrwt>
<pdfrwt beam="2">  1       -2 0.10892896E+00 0.86633204E+03</pdfrwt>
<totfact> 0.85216059E+01</totfact>
</mgrwt>
</event>
<event>
 6    1  0.2238133E-007  0.4737673E+03  0.7818608E-02  0.1020862E+00
         -2   -1    0    0    0  501 -0.00000000000E+00  0.00000000000E+00  0.21000026659E+03  0.21000026659E+03  0.00000000000E+00 0.  1.
          2   -1    0    0  501    0  0.00000000000E+00 -0.00000000000E+00 -0.26720857737E+03  0.26720857737E+03  0.00000000000E+00 0. -1.
         23    2    1    2    0    0 -0.45802489130E+02  0.17857136611E+03 -0.16337656274E+03  0.26447121558E+03  0.96267968780E+02 0.  0.
         11    1    3    3    0    0  0.21050623103E+02  0.95641140114E+02 -0.10258449142E+03  0.14182360275E+03  0.00000000000E+00 0. -1.
        -11    1    3    3    0    0 -0.66853112233E+02  0.82930225993E+02 -0.60792071316E+02  0.12264761283E+03  0.00000000000E+00 0.  1.
         22    1    1    2    0    0  0.45802489130E+02 -0.17857136611E+03  0.10616825196E+03  0.21273762838E+03  0.00000000000E+00 0.  1.
<mgrwt>
<rscale>  0 0.47376734E+03</rscale>
<asrwt>0</asrwt>
<pdfrwt beam="1">  1        2 0.41109012E-01 0.47376734E+03</pdfrwt>
<pdfrwt beam="2">  1       -2 0.32307733E-01 0.47376734E+03</pdfrwt>
<totfact> 0.11138967E+03</totfact>
</mgrwt>
</event>
<event>
 6    1  0.2238133E-007  0.2506129E+04  0.7818608E-02  0.8400805E-01
          2   -1    0    0  501    0  0.00000000000E+00  0.00000000000E+00  0.19867008365E+04  0.19867008365E+04  0.00000000000E+00 0. -1.
         -2   -1    0    0    0  501 -0.00000000000E+00 -0.00000000000E+00 -0.79034053107E+03  0.79034053107E+03  0.00000000000E+00 0.  1.
         23    2    1    2    0    0  0.32500315351E+02  0.55700115172E+03 -0.64388319735E+03  0.85407420637E+03  0.59587118120E+02 0.  0.
         11    1    3    3    0    0 -0.17001151468E+02  0.13555802027E+03 -0.14812656940E+03  0.20151053712E+03  0.00000000000E+00 0. -1.
        -11    1    3    3    0    0  0.49501466819E+02  0.42144313145E+03 -0.49575662795E+03  0.65256366925E+03  0.00000000000E+00 0.  1.
         22    1    1    2    0    0 -0.32500315351E+02 -0.55700115172E+03  0.18402435028E+04  0.19229671612E+04  0.00000000000E+00 0. -1.
<mgrwt>
<rscale>  0 0.25061286E+04</rscale>
<asrwt>0</asrwt>
<pdfrwt beam="1">  1        2 0.30564628E+00 0.25061286E+04</pdfrwt>
<pdfrwt beam="2">  1       -2 0.12159085E+00 0.25061286E+04</pdfrwt>
<totfact> 0.31130936E+00</totfact>
</mgrwt>
</event>
<event>
 6    1  0.2238133E-007  0.2952369E+04  0.7818608E-02  0.8257465E-01
         -2   -1    0    0    0  501 -0.00000000000E+00  0.00000000000E+00  0.90704756930E+03  0.90704756930E+03  0.00000000000E+00 0.  1.
          2   -1    0    0  501    0  0.00000000000E+00 -0.00000000000E+00 -0.24024318944E+04  0.24024318944E+04  0.00000000000E+00 0. -1.
         23    2    1    2    0    0  0.64114630365E+03 -0.13019002468E+04 -0.10433916737E+04  0.17895090060E+04  0.87541204180E+02 0.  0.
         13    1    3    3    0    0  0.29348565381E+03 -0.59070205718E+03 -0.42082556394E+03  0.78240456583E+03  0.00000000000E+00 0. -1.
        -13    1    3    3    0    0  0.34766064984E+03 -0.71119818963E+03 -0.62256610978E+03  0.10071044402E+04  0.00000000000E+00 0.  1.
         22    1    1    2    0    0 -0.64114630365E+03  0.13019002468E+04 -0.45199265137E+03  0.15199704577E+04  0.00000000000E+00 0.  1.
<mgrwt>
<rscale>  0 0.29523685E+04</rscale>
<asrwt>0</asrwt>
<pdfrwt beam="1">  1        2 0.36960490E+00 0.29523685E+04</pdfrwt>
<pdfrwt beam="2">  1       -2 0.13954578E+00 0.29523685E+04</pdfrwt>
<totfact> 0.12332992E+00</totfact>
</mgrwt>
</event>
<event>
 6    1  0.2238133E-007  0.3951827E+04  0.7818608E-02  0.8014336E-01
          1   -1    0    0  501    0  0.00000000000E+00  0.00000000000E+00  0.21401295347E+04  0.21401295347E+04  0.00000000000E+00 0. -1.
         -1   -1    0    0    0  501 -0.00000000000E+00 -0.00000000000E+00 -0.18242981979E+04  0.18242981979E+04  0.00000000000E+00 0.  1.
         23    2    1    2    0    0  0.12789739005E+04 -0.13381656992E+04 -0.53266203550E+03  0.19281559729E+04  0.87148923676E+02 0.  0.
         13    1    3    3    0    0  0.57791949820E+03 -0.65919920193E+03 -0.22942282850E+03  0.90618395951E+03  0.00000000000E+00 0. -1.
        -13    1    3    3    0    0  0.70105440232E+03 -0.67896649726E+03 -0.30323920700E+03  0.10219720134E+04  0.00000000000E+00 0.  1.
         22    1    1    2    0    0 -0.12789739005E+04  0.13381656992E+04  0.84849337225E+03  0.20362717597E+04  0.00000000000E+00 0. -1.
<mgrwt>
<rscale>  0 0.39518271E+04</rscale>
<asrwt>0</asrwt>
<pdfrwt beam="1">  1        1 0.32925070E+00 0.39518271E+04</pdfrwt>
<pdfrwt beam="2">  1       -1 0.28066126E+00 0.39518271E+04</pdfrwt>
<totfact> 0.82872793E-02</totfact>
</mgrwt>
</event>
<event>
 6    1  0.2238133E-007  0.2233168E+04  0.7818608E-02  0.8504748E-01
         -1   -1    0    0    0  501 -0.00000000000E+00  0.00000000000E+00  0.11719803330E+04  0.11719803330E+04  0.00000000000E+00 0.  1.
          1   -1    0    0  501    0  0.00000000000E+00 -0.00000000000E+00 -0.10638061950E+04  0.10638061950E+04  0.00000000000E+00 0. -1.
         23    2    1    2    0    0 -0.75841642507E+03 -0.46433061404E+03 -0.61882317170E+03  0.10871684534E+04  0.90524777635E+02 0.  0.
         13    1    3    3    0    0 -0.66688812242E+02 -0.13869629869E+02 -0.40140952205E+02  0.79063647492E+02  0.00000000000E+00 0. -1.
        -13    1    3    3    0    0 -0.69172761283E+03 -0.45046098417E+03 -0.57868221950E+03  0.10081048059E+04  0.00000000000E+00 0.  1.
         22    1    1    2    0    0  0.75841642507E+03  0.46433061404E+03  0.72699730974E+03  0.11486180746E+04  0.00000000000E+00 0.  1.
<mgrwt>
<rscale>  0 0.22331681E+04</rscale>
<asrwt>0</asrwt>
<pdfrwt beam="1">  1        1 0.16366249E+00 0.22331681E+04</pdfrwt>
<pdfrwt beam="2">  1       -1 0.18030467E+00 0.22331681E+04</pdfrwt>
<totfact> 0.25425507E+00</totfact>
</mgrwt>
</event>
<event>
 6    1  0.2238133E-007  0.1444008E+04  0.7818608E-02  0.8922565E-01
         -2   -1    0    0    0  501 -0.00000000000E+00  0.00000000000E+00  0.38190201914E+03  0.38190201914E+03  0.00000000000E+00 0.  1.
          2   -1    0    0  501    0  0.00000000000E+00 -0.00000000000E+00 -0.13649824469E+04  0.13649824469E+04  0.00000000000E+00 0. -1.
         23    2    1    2    0    0 -0.19036285346E+03 -0.69193355410E+03 -0.54971569197E+03  0.90854381124E+03  0.90854034999E+02 0.  0.
         11    1    3    3    0    0 -0.25753571918E+02 -0.72662284710E+02 -0.97357726169E+02  0.12418365807E+03  0.00000000000E+00 0.  1.
        -11    1    3    3    0    0 -0.16460928154E+03 -0.61927126939E+03 -0.45235796580E+03  0.78436015318E+03  0.00000000000E+00 0. -1.
         22    1    1    2    0    0  0.19036285346E+03  0.69193355410E+03 -0.43336473582E+03  0.83834065482E+03  0.00000000000E+00 0.  1.
<mgrwt>
<rscale>  0 0.14440077E+04</rscale>
<asrwt>0</asrwt>
<pdfrwt beam="1">  1        2 0.20999730E+00 0.14440077E+04</pdfrwt>
<pdfrwt beam="2">  1       -2 0.58754156E-01 0.14440077E+04</pdfrwt>
<totfact> 0.39808167E+01</totfact>
</mgrwt>
</event>
<event>
 6    1  0.2238133E-007  0.2318781E+04  0.7818608E-02  0.8470553E-01
          2   -1    0    0  501    0  0.00000000000E+00  0.00000000000E+00  0.25736808403E+04  0.25736808403E+04  0.00000000000E+00 0. -1.
         -2   -1    0    0    0  501 -0.00000000000E+00 -0.00000000000E+00 -0.52228171114E+03  0.52228171114E+03  0.00000000000E+00 0.  1.
         23    2    1    2    0    0  0.56619620817E+03  0.10096587188E+04  0.10092947178E+04  0.15384098304E+04  0.89666628296E+02 0.  0.
         11    1    3    3    0    0  0.87616478653E+02  0.12909165472E+03  0.10109610226E+03  0.18590783884E+03  0.00000000000E+00 0.  1.
        -11    1    3    3    0    0  0.47857972952E+03  0.88056706410E+03  0.90819861555E+03  0.13525019916E+04  0.00000000000E+00 0. -1.
         22    1    1    2    0    0 -0.56619620817E+03 -0.10096587188E+04  0.10421044113E+04  0.15575527210E+04  0.00000000000E+00 0.  1.
<mgrwt>
<rscale>  0 0.23187811E+04</rscale>
<asrwt>0</asrwt>
<pdfrwt beam="1">  1        2 0.39595089E+00 0.23187811E+04</pdfrwt>
<pdfrwt beam="2">  1       -2 0.80351034E-01 0.23187811E+04</pdfrwt>
<totfact> 0.39071362E+00</totfact>
</mgrwt>
</event>
<event>
 6    1  0.2238133E-007  0.2406617E+04  0.7818608E-02  0.8437030E-01
          4   -1    0    0  501    0  0.00000000000E+00  0.00000000000E+00  0.67702897792E+03  0.67702897792E+03  0.00000000000E+00 0. -1.
         -4   -1    0    0    0  501 -0.00000000000E+00 -0.00000000000E+00 -0.21386853004E+04  0.21386853004E+04  0.00000000000E+00 0.  1.
         23    2    1    2    0    0  0.69006979833E+03 -0.79172145547E+03 -0.14149338266E+04  0.17644283128E+04  0.90279276456E+02 0.  0.
         11    1    3    3    0    0  0.22373642540E+03 -0.22136061668E+03 -0.36767094705E+03  0.48398392119E+03  0.00000000000E+00 0.  1.
        -11    1    3    3    0    0  0.46633337294E+03 -0.57036083878E+03 -0.10472628796E+04  0.12804443916E+04  0.00000000000E+00 0. -1.
         22    1    1    2    0    0 -0.69006979833E+03  0.79172145547E+03 -0.46722495866E+02  0.10512859655E+04  0.00000000000E+00 0. -1.
<mgrwt>
<rscale>  0 0.24066175E+04</rscale>
<asrwt>0</asrwt>
<pdfrwt beam="1">  1        4 0.10415830E+00 0.24066175E+04</pdfrwt>
<pdfrwt beam="2">  1       -4 0.32902851E+00 0.24066175E+04</pdfrwt>
<totfact> 0.27221995E-02</totfact>
</mgrwt>
</event>
<event>
 6    1  0.2238133E-007  0.3007278E+04  0.7818608E-02  0.8241656E-01
         -2   -1    0    0    0  501 -0.00000000000E+00  0.00000000000E+00  0.97094691760E+03  0.97094691760E+03  0.00000000000E+00 0.  1.
          2   -1    0    0  501    0  0.00000000000E+00 -0.00000000000E+00 -0.23285831880E+04  0.23285831880E+04  0.00000000000E+00 0. -1.
         23    2    1    2    0    0 -0.62229170163E+03  0.79179450242E+03 -0.19024496605E+04  0.21545379109E+04  0.92376419774E+02 0.  0.
         11    1    3    3    0    0 -0.22337066676E+03  0.35346785610E+03 -0.75425706457E+03  0.86240228404E+03  0.00000000000E+00 0. -1.
        -11    1    3    3    0    0 -0.39892103487E+03  0.43832664632E+03 -0.11481925959E+04  0.12921356269E+04  0.00000000000E+00 0.  1.
         22    1    1    2    0    0  0.62229170163E+03 -0.79179450242E+03  0.54481339005E+03  0.11449921947E+04  0.00000000000E+00 0.  1.
<mgrwt>
<rscale>  0 0.30072783E+04</rscale>
<asrwt>0</asrwt>
<pdfrwt beam="1">  1        2 0.35824356E+00 0.30072783E+04</pdfrwt>
<pdfrwt beam="2">  1       -2 0.14937645E+00 0.30072783E+04</pdfrwt>
<totfact> 0.11317255E+00</totfact>
</mgrwt>
</event>
<event>
 6    1  0.2238133E-007  0.2758370E+04  0.7818608E-02  0.8316311E-01
         -2   -1    0    0    0  501 -0.00000000000E+00  0.00000000000E+00  0.12443955553E+04  0.12443955553E+04  0.00000000000E+00 0.  1.
          2   -1    0    0  501    0  0.00000000000E+00 -0.00000000000E+00 -0.15285739718E+04  0.15285739718E+04  0.00000000000E+00 0. -1.
         23    2    1    2    0    0 -0.38119870878E+03  0.13203454729E+04 -0.23959568970E+03  0.13979741661E+04  0.91110104177E+02 0.  0.
         13    1    3    3    0    0  0.21946635528E+01  0.55888782491E+02 -0.12195584800E+02  0.57246002874E+02  0.00000000000E+00 0. -1.
        -13    1    3    3    0    0 -0.38339337233E+03  0.12644566904E+04 -0.22740010490E+03  0.13407281632E+04  0.00000000000E+00 0.  1.
         22    1    1    2    0    0  0.38119870878E+03 -0.13203454729E+04 -0.44582726879E+02  0.13749953610E+04  0.00000000000E+00 0. -1.
<mgrwt>
<rscale>  0 0.27583696E+04</rscale>
<asrwt>0</asrwt>
<pdfrwt beam="1">  1        2 0.23516523E+00 0.27583696E+04</pdfrwt>
<pdfrwt beam="2">  1       -2 0.19144547E+00 0.27583696E+04</pdfrwt>
<totfact> 0.16189767E+00</totfact>
</mgrwt>
</event>
<event>
 6    1  0.2238133E-007  0.1039974E+04  0.7818608E-02  0.9265756E-01
          4   -1    0    0  501    0  0.00000000000E+00  0.00000000000E+00  0.15737326666E+03  0.15737326666E+03  0.00000000000E+00 0. -1.
         -4   -1    0    0    0  501 -0.00000000000E+00 -0.00000000000E+00 -0.17181232436E+04  0.17181232436E+04  0.00000000000E+00 0.  1.
         23    2    1    2    0    0 -0.26673489040E+02  0.18952863921E+03 -0.16503565746E+04  0.16641628347E+04  0.95543377150E+02 0.  0.
         13    1    3    3    0    0  0.79926898410E+01  0.98076643076E+02 -0.49575716011E+03  0.50542860308E+03  0.00000000000E+00 0.  1.
        -13    1    3    3    0    0 -0.34666178881E+02  0.91451996130E+02 -0.11545994145E+04  0.11587342316E+04  0.00000000000E+00 0. -1.
         22    1    1    2    0    0  0.26673489040E+02 -0.18952863921E+03  0.89606597643E+02  0.21133367559E+03  0.00000000000E+00 0. -1.
<mgrwt>
<rscale>  0 0.10399744E+04</rscale>
<asrwt>0</asrwt>
<pdfrwt beam="1">  1        4 0.24211273E-01 0.10399744E+04</pdfrwt>
<pdfrwt beam="2">  1       -4 0.26432664E+00 0.10399744E+04</pdfrwt>
<totfact> 0.16731279E+00</totfact>
</mgrwt>
</event>
<event>
 6    1  0.2238133E-007  0.6909882E+03  0.7818608E-02  0.9732769E-01
         -2   -1    0    0    0  501 -0.00000000000E+00  0.00000000000E+00  0.32034116674E+03  0.32034116674E+03  0.00000000000E+00 0.  1.
          2   -1    0    0  501    0  0.00000000000E+00 -0.00000000000E+00 -0.37262197127E+03  0.37262197127E+03  0.00000000000E+00 0. -1.
         23    2    1    2    0    0 -0.50702459870E+02  0.18169791051E+03  0.25674573382E+03  0.33091028065E+03  0.89433617186E+02 0.  0.
         13    1    3    3    0    0 -0.32427870220E+02  0.99953712606E+02  0.21039928169E+03  0.23518114118E+03  0.00000000000E+00 0.  1.
        -13    1    3    3    0    0 -0.18274589650E+02  0.81744197906E+02  0.46346452124E+02  0.95729139465E+02  0.00000000000E+00 0. -1.
         22    1    1    2    0    0  0.50702459870E+02 -0.18169791051E+03 -0.30902653835E+03  0.36205285737E+03  0.00000000000E+00 0. -1.
<mgrwt>
<rscale>  0 0.69098815E+03</rscale>
<asrwt>0</asrwt>
<pdfrwt beam="1">  1        2 0.57326457E-01 0.69098815E+03</pdfrwt>
<pdfrwt beam="2">  1       -2 0.49283257E-01 0.69098815E+03</pdfrwt>
<totfact> 0.33878315E+02</totfact>
</mgrwt>
</event>
<event>
 6    1  0.2238133E-007  0.9842059E+03  0.7818608E-02  0.9326039E-01
         -2   -1    0    0    0  501 -0.00000000000E+00  0.00000000000E+00  0.29499741823E+03  0.29499741823E+03  0.00000000000E+00 0.  1.
          2   -1    0    0  501    0  0.00000000000E+00 -0.00000000000E+00 -0.82090646975E+03  0.82090646975E+03  0.00000000000E+00 0. -1.
         23    2    1    2    0    0 -0.16809807636E+03  0.12334794788E+03 -0.76531297985E+03  0.79843590467E+03  0.91237367398E+02 0.  0.
         13    1    3    3    0    0 -0.57967605426E+02  0.67880631522E+02 -0.18819705081E+03  0.20829343088E+03  0.00000000000E+00 0. -1.
        -13    1    3    3    0    0 -0.11013047093E+03  0.55467316354E+02 -0.57711592904E+03  0.59014247379E+03  0.00000000000E+00 0.  1.
         22    1    1    2    0    0  0.16809807636E+03 -0.12334794788E+03  0.23940392834E+03  0.31746798331E+03  0.00000000000E+00 0.  1.
<mgrwt>
<rscale>  0 0.98420585E+03</rscale>
<asrwt>0</asrwt>
<pdfrwt beam="1">  1        2 0.12629330E+00 0.98420585E+03</pdfrwt>
<pdfrwt beam="2">  1       -2 0.45384219E-01 0.98420585E+03</pdfrwt>
<totfact> 0.15302671E+02</totfact>
</mgrwt>
</event>
<event>
 6    1  0.2238133E-007  0.2410671E+04  0.7818608E-02  0.8435519E-01
         -2   -1    0    0    0  501 -0.00000000000E+00  0.00000000000E+00  0.44219081601E+03  0.44219081601E+03  0.00000000000E+00 0.  1.
          2   -1    0    0  501    0  0.00000000000E+00 -0.00000000000E+00 -0.32855347393E+04  0.32855347393E+04  0.00000000000E+00 0. -1.
         23    2    1    2    0    0  0.18117473157E+03 -0.35378707906E+03 -0.31804829799E+04  0.32065227885E+04  0.91251449702E+02 0.  0.
         11    1    3    3    0    0  0.68031048743E+02 -0.89853449836E+02 -0.12080320456E+04  0.12132779110E+04  0.00000000000E+00 0.  1.
        -11    1    3    3    0    0  0.11314368283E+03 -0.26393362923E+03 -0.19724509343E+04  0.19932448775E+04  0.00000000000E+00 0. -1.
         22    1    1    2    0    0 -0.18117473157E+03  0.35378707906E+03  0.33713905659E+03  0.52120276683E+03  0.00000000000E+00 0.  1.
<mgrwt>
<rscale>  0 0.24106707E+04</rscale>
<asrwt>0</asrwt>
<pdfrwt beam="1">  1        2 0.50546689E+00 0.24106707E+04</pdfrwt>
<pdfrwt beam="2">  1       -2 0.68029355E-01 0.24106707E+04</pdfrwt>
<totfact> 0.20265254E+00</totfact>
</mgrwt>
</event>
<event>
 6    1  0.2238133E-007  0.6258860E+03  0.7818608E-02  0.9853110E-01
         -2   -1    0    0    0  501 -0.00000000000E+00  0.00000000000E+00  0.58628527946E+02  0.58628527946E+02  0.00000000000E+00 0.  1.
          2   -1    0    0  501    0  0.00000000000E+00 -0.00000000000E+00 -0.16704039717E+04  0.16704039717E+04  0.00000000000E+00 0. -1.
         23    2    1    2    0    0 -0.26418449520E+02 -0.29514246427E+03 -0.60723045706E+03  0.68169414029E+03  0.90393939131E+02 0.  0.
         13    1    3    3    0    0 -0.33592766851E+02 -0.34380906872E+02 -0.77055233166E+02  0.90818663833E+02  0.00000000000E+00 0.  1.
        -13    1    3    3    0    0  0.71743173308E+01 -0.26076155740E+03 -0.53017522389E+03  0.59087547646E+03  0.00000000000E+00 0. -1.
         22    1    1    2    0    0  0.26418449520E+02  0.29514246427E+03 -0.10045449867E+04  0.10473383594E+04  0.00000000000E+00 0. -1.
<mgrwt>
<rscale>  0 0.62588601E+03</rscale>
<asrwt>0</asrwt>
<pdfrwt beam="1">  1        2 0.25698524E+00 0.62588601E+03</pdfrwt>
<pdfrwt beam="2">  1       -2 0.90197729E-02 0.62588601E+03</pdfrwt>
<totfact> 0.84493257E+02</totfact>
</mgrwt>
</event>
<event>
 6    1  0.2238133E-007  0.1517214E+04  0.7818608E-02  0.8873086E-01
         -1   -1    0    0    0  501 -0.00000000000E+00  0.00000000000E+00  0.51383292422E+03  0.51383292422E+03  0.00000000000E+00 0.  1.
          1   -1    0    0  501    0  0.00000000000E+00 -0.00000000000E+00 -0.11199843544E+04  0.11199843544E+04  0.00000000000E+00 0. -1.
         23    2    1    2    0    0 -0.18894038733E+03  0.16410961831E+03 -0.10721890633E+04  0.11048356984E+04  0.91880879924E+02 0.  0.
         11    1    3    3    0    0 -0.13889656707E+03  0.82790750526E+02 -0.52361887892E+03  0.54801760471E+03  0.00000000000E+00 0.  1.
        -11    1    3    3    0    0 -0.50043820259E+02  0.81318867781E+02 -0.54857018442E+03  0.55681809367E+03  0.00000000000E+00 0. -1.
         22    1    1    2    0    0  0.18894038733E+03 -0.16410961831E+03  0.46603763312E+03  0.52898158027E+03  0.00000000000E+00 0.  1.
<mgrwt>
<rscale>  0 0.15172143E+04</rscale>
<asrwt>0</asrwt>
<pdfrwt beam="1">  1        1 0.17230528E+00 0.15172143E+04</pdfrwt>
<pdfrwt beam="2">  1       -1 0.79051220E-01 0.15172143E+04</pdfrwt>
<totfact> 0.18933155E+01</totfact>
</mgrwt>
</event>
<event>
 6    1  0.2238133E-007  0.6593596E+04  0.7818608E-02  0.7620865E-01
         -2   -1    0    0    0  501 -0.00000000000E+00  0.00000000000E+00  0.35358225599E+04  0.35358225599E+04  0.00000000000E+00 0.  1.
          2   -1    0    0  501    0  0.00000000000E+00 -0.00000000000E+00 -0.30739319287E+04  0.30739319287E+04  0.00000000000E+00 0. -1.
         23    2    1    2    0    0 -0.23288845160E+04  0.10751197459E+04 -0.18441747231E+04  0.31604758720E+04  0.89675924024E+02 0.  0.
         13    1    3    3    0    0 -0.97316716462E+03  0.43215168357E+03 -0.71471969682E+03  0.12824327089E+04  0.00000000000E+00 0. -1.
        -13    1    3    3    0    0 -0.13557173514E+04  0.64296806228E+03 -0.11294550263E+04  0.18780431631E+04  0.00000000000E+00 0.  1.
         22    1    1    2    0    0  0.23288845160E+04 -0.10751197459E+04  0.23060653543E+04  0.34492786166E+04  0.00000000000E+00 0.  1.
<mgrwt>
<rscale>  0 0.65935962E+04</rscale>
<asrwt>0</asrwt>
<pdfrwt beam="1">  1        2 0.47291260E+00 0.65935962E+04</pdfrwt>
<pdfrwt beam="2">  1       -2 0.54397270E+00 0.65935962E+04</pdfrwt>
<totfact> 0.94221963E-04</totfact>
</mgrwt>
</event>
<event>
 6    1  0.2238133E-007  0.3236497E+04  0.7818608E-02  0.8179244E-01
          2   -1    0    0  501    0  0.00000000000E+00  0.00000000000E+00  0.13091857116E+04  0.13091857116E+04  0.00000000000E+00 0. -1.
         -2   -1    0    0    0  501 -0.00000000000E+00 -0.00000000000E+00 -0.20002725940E+04  0.20002725940E+04  0.00000000000E+00 0.  1.
         23    2    1    2    0    0  0.89842401841E+03  0.81303662406E+03 -0.14407819657E+04  0.18845944570E+04  0.87460425265E+02 0.  0.
         13    1    3    3    0    0  0.47337773204E+03  0.44530434656E+03 -0.70756875260E+03  0.96074761406E+03  0.00000000000E+00 0.  1.
        -13    1    3    3    0    0  0.42504628637E+03  0.36773227749E+03 -0.73321321307E+03  0.92384684298E+03  0.00000000000E+00 0. -1.
         22    1    1    2    0    0 -0.89842401841E+03 -0.81303662406E+03  0.74969508330E+03  0.14248638485E+04  0.00000000000E+00 0. -1.
<mgrwt>
<rscale>  0 0.32364971E+04</rscale>
<asrwt>0</asrwt>
<pdfrwt beam="1">  1        2 0.20141319E+00 0.32364971E+04</pdfrwt>
<pdfrwt beam="2">  1       -2 0.30773424E+00 0.32364971E+04</pdfrwt>
<totfact> 0.39055853E-01</totfact>
</mgrwt>
</event>
<event>
 6    1  0.2238133E-007  0.1566321E+04  0.7818608E-02  0.8841509E-01
         -2   -1    0    0    0  501 -0.00000000000E+00  0.00000000000E+00  0.26055342539E+03  0.26055342539E+03  0.00000000000E+00 0.  1.
          2   -1    0    0  501    0  0.00000000000E+00 -0.00000000000E+00 -0.23539919605E+04  0.23539919605E+04  0.00000000000E+00 0. -1.
         23    2    1    2    0    0 -0.64634720162E+03  0.42252070257E+03 -0.86066516414E+03  0.11598912575E+04  0.91185279675E+02 0.  0.
         13    1    3    3    0    0 -0.37499820517E+03  0.26755362070E+03 -0.45126282049E+03  0.64486178906E+03  0.00000000000E+00 0. -1.
        -13    1    3    3    0    0 -0.27134899646E+03  0.15496708186E+03 -0.40940234365E+03  0.51502946840E+03  0.00000000000E+00 0.  1.
         22    1    1    2    0    0  0.64634720162E+03 -0.42252070257E+03 -0.12327733709E+04  0.14546541284E+04  0.00000000000E+00 0. -1.
<mgrwt>
<rscale>  0 0.15663214E+04</rscale>
<asrwt>0</asrwt>
<pdfrwt beam="1">  1        2 0.36215261E+00 0.15663214E+04</pdfrwt>
<pdfrwt beam="2">  1       -2 0.40085143E-01 0.15663214E+04</pdfrwt>
<totfact> 0.23953416E+01</totfact>
</mgrwt>
</event>
<event>
 6    1  0.2238133E-007  0.1262954E+04  0.7818608E-02  0.9059470E-01
          2   -1    0    0  501    0  0.00000000000E+00  0.00000000000E+00  0.69531994400E+03  0.69531994400E+03  0.00000000000E+00 0. -1.
         -2   -1    0    0    0  501 -0.00000000000E+00 -0.00000000000E+00 -0.57349617682E+03  0.57349617682E+03  0.00000000000E+00 0.  1.
         23    2    1    2    0    0  0.31060136356E+03  0.69405721472E+02 -0.48258496690E+03  0.58573466225E+03  0.94374165185E+02 0.  0.
         11    1    3    3    0    0  0.14717008702E+03  0.62570924544E+02 -0.30441840852E+03  0.34386730371E+03  0.00000000000E+00 0. -1.
        -11    1    3    3    0    0  0.16343127654E+03  0.68347969280E+01 -0.17816655839E+03  0.24186735854E+03  0.00000000000E+00 0.  1.
         22    1    1    2    0    0 -0.31060136356E+03 -0.69405721472E+02  0.60440873408E+03  0.68308145858E+03  0.00000000000E+00 0. -1.
<mgrwt>
<rscale>  0 0.12629542E+04</rscale>
<asrwt>0</asrwt>
<pdfrwt beam="1">  1        2 0.10697230E+00 0.12629542E+04</pdfrwt>
<pdfrwt beam="2">  1       -2 0.88230182E-01 0.12629542E+04</pdfrwt>
<totfact> 0.44940953E+01</totfact>
</mgrwt>
</event>
<event>
 6    1  0.2238133E-007  0.2653362E+04  0.7818608E-02  0.8350298E-01
         -2   -1    0    0    0  501 -0.00000000000E+00  0.00000000000E+00  0.68608629081E+03  0.68608629081E+03  0.00000000000E+00 0.  1.
          2   -1    0    0  501    0  0.00000000000E+00 -0.00000000000E+00 -0.25653943771E+04  0.25653943771E+04  0.00000000000E+00 0. -1.
         23    2    1    2    0    0  0.41269610013E+03  0.11232380649E+04 -0.16384703987E+04  0.20308314090E+04  0.87801725202E+02 0.  0.
         11    1    3    3    0    0  0.30150511973E+03  0.92070183817E+03 -0.13259505959E+04  0.16421760548E+04  0.00000000000E+00 0.  1.
        -11    1    3    3    0    0  0.11119098040E+03  0.20253622674E+03 -0.31251980274E+03  0.38865535423E+03  0.00000000000E+00 0. -1.
         22    1    1    2    0    0 -0.41269610013E+03 -0.11232380649E+04 -0.24083768765E+03  0.12206492589E+04  0.00000000000E+00 0.  1.
<mgrwt>
<rscale>  0 0.26533616E+04</rscale>
<asrwt>0</asrwt>
<pdfrwt beam="1">  1        2 0.39467606E+00 0.26533616E+04</pdfrwt>
<pdfrwt beam="2">  1       -2 0.10555174E+00 0.26533616E+04</pdfrwt>
<totfact> 0.20379482E+00</totfact>
</mgrwt>
</event>
<event>
 6    1  0.2238133E-007  0.1701718E+04  0.7818608E-02  0.8760385E-01
         -2   -1    0    0    0  501 -0.00000000000E+00  0.00000000000E+00  0.85768314274E+03  0.85768314274E+03  0.00000000000E+00 0.  1.
          2   -1    0    0  501    0  0.00000000000E+00 -0.00000000000E+00 -0.84408954556E+03  0.84408954556E+03  0.00000000000E+00 0. -1.
         23    2    1    2    0    0  0.82511431430E+03  0.18983763587E+03 -0.47140423969E+02  0.85292607025E+03  0.91698975382E+02 0.  0.
         13    1    3    3    0    0  0.56131797842E+03  0.11926777337E+03 -0.73711711690E+02  0.57856381766E+03  0.00000000000E+00 0. -1.
        -13    1    3    3    0    0  0.26379633588E+03  0.70569862497E+02  0.26571287721E+02  0.27436225259E+03  0.00000000000E+00 0.  1.
         22    1    1    2    0    0 -0.82511431430E+03 -0.18983763587E+03  0.60734021153E+02  0.84884661805E+03  0.00000000000E+00 0. -1.
<mgrwt>
<rscale>  0 0.17017184E+04</rscale>
<asrwt>0</asrwt>
<pdfrwt beam="1">  1        2 0.12985993E+00 0.17017184E+04</pdfrwt>
<pdfrwt beam="2">  1       -2 0.13195125E+00 0.17017184E+04</pdfrwt>
<totfact> 0.12746612E+01</totfact>
</mgrwt>
</event>
<event>
 6    1  0.2238133E-007  0.9001722E+03  0.7818608E-02  0.9425366E-01
         -1   -1    0    0    0  501 -0.00000000000E+00  0.00000000000E+00  0.90258143829E+02  0.90258143829E+02  0.00000000000E+00 0.  1.
          1   -1    0    0  501    0  0.00000000000E+00 -0.00000000000E+00 -0.22444234778E+04  0.22444234778E+04  0.00000000000E+00 0. -1.
         23    2    1    2    0    0 -0.28830773684E+03 -0.33942713201E+03 -0.10565303274E+04  0.11501417377E+04  0.90760976854E+02 0.  0.
         11    1    3    3    0    0 -0.14254277447E+03 -0.10112721096E+03 -0.42974531160E+03  0.46392476566E+03  0.00000000000E+00 0. -1.
        -11    1    3    3    0    0 -0.14576496238E+03 -0.23829992105E+03 -0.62678501584E+03  0.68621697203E+03  0.00000000000E+00 0.  1.
         22    1    1    2    0    0  0.28830773684E+03  0.33942713201E+03 -0.10976350065E+04  0.11845398839E+04  0.00000000000E+00 0. -1.
<mgrwt>
<rscale>  0 0.90017220E+03</rscale>
<asrwt>0</asrwt>
<pdfrwt beam="1">  1        1 0.34529591E+00 0.90017220E+03</pdfrwt>
<pdfrwt beam="2">  1       -1 0.13885869E-01 0.90017220E+03</pdfrwt>
<totfact> 0.77339869E+01</totfact>
</mgrwt>
</event>
<event>
 6    1  0.2238133E-007  0.4284671E+04  0.7818608E-02  0.7949459E-01
          2   -1    0    0  501    0  0.00000000000E+00  0.00000000000E+00  0.28180245982E+04  0.28180245982E+04  0.00000000000E+00 0. -1.
         -2   -1    0    0    0  501 -0.00000000000E+00 -0.00000000000E+00 -0.16286591848E+04  0.16286591848E+04  0.00000000000E+00 0.  1.
         23    2    1    2    0    0  0.15535211842E+04  0.12329098103E+04  0.14331717330E+04  0.24484505155E+04  0.86220882373E+02 0.  0.
         13    1    3    3    0    0  0.86507571186E+03  0.64046722098E+03  0.74851806815E+03  0.13110429233E+04  0.00000000000E+00 0.  1.
        -13    1    3    3    0    0  0.68844547234E+03  0.59244258928E+03  0.68465366481E+03  0.11374075922E+04  0.00000000000E+00 0. -1.
         22    1    1    2    0    0 -0.15535211842E+04 -0.12329098103E+04 -0.24380631950E+03  0.19982332675E+04  0.00000000000E+00 0.  1.
<mgrwt>
<rscale>  0 0.42846711E+04</rscale>
<asrwt>0</asrwt>
<pdfrwt beam="1">  1        2 0.43354224E+00 0.42846711E+04</pdfrwt>
<pdfrwt beam="2">  1       -2 0.25056295E+00 0.42846711E+04</pdfrwt>
<totfact> 0.11080299E-01</totfact>
</mgrwt>
</event>
<event>
 6    1  0.2238133E-007  0.1990649E+04  0.7818608E-02  0.8611005E-01
          2   -1    0    0  501    0  0.00000000000E+00  0.00000000000E+00  0.75975502359E+03  0.75975502359E+03  0.00000000000E+00 0. -1.
         -2   -1    0    0    0  501 -0.00000000000E+00 -0.00000000000E+00 -0.13039341613E+04  0.13039341613E+04  0.00000000000E+00 0.  1.
         23    2    1    2    0    0  0.25682400719E+03 -0.35269621496E+03  0.65239587566E+03  0.79005464024E+03  0.90624308356E+02 0.  0.
         13    1    3    3    0    0  0.16586070124E+03 -0.15086154659E+03  0.32508592365E+03  0.39490484450E+03  0.00000000000E+00 0. -1.
        -13    1    3    3    0    0  0.90963305951E+02 -0.20183466836E+03  0.32730995202E+03  0.39514979574E+03  0.00000000000E+00 0.  1.
         22    1    1    2    0    0 -0.25682400719E+03  0.35269621496E+03 -0.11965750134E+04  0.12736345447E+04  0.00000000000E+00 0.  1.
<mgrwt>
<rscale>  0 0.19906487E+04</rscale>
<asrwt>0</asrwt>
<pdfrwt beam="1">  1        2 0.11688539E+00 0.19906487E+04</pdfrwt>
<pdfrwt beam="2">  1       -2 0.20060525E+00 0.19906487E+04</pdfrwt>
<totfact> 0.45156424E+00</totfact>
</mgrwt>
</event>
<event>
 6    1  0.2238133E-007  0.2249548E+04  0.7818608E-02  0.8498084E-01
         -2   -1    0    0    0  501 -0.00000000000E+00  0.00000000000E+00  0.39452944380E+03  0.39452944380E+03  0.00000000000E+00 0.  1.
          2   -1    0    0  501    0  0.00000000000E+00 -0.00000000000E+00 -0.32066469720E+04  0.32066469720E+04  0.00000000000E+00 0. -1.
         23    2    1    2    0    0 -0.10570432921E+04  0.32160041851E+03 -0.10873314552E+04  0.15528467675E+04  0.90972739254E+02 0.  0.
         11    1    3    3    0    0 -0.73846507507E+03  0.23860770940E+03 -0.81736855436E+03  0.11271005544E+04  0.00000000000E+00 0. -1.
        -11    1    3    3    0    0 -0.31857821703E+03  0.82992709116E+02 -0.26996290088E+03  0.42574621311E+03  0.00000000000E+00 0.  1.
         22    1    1    2    0    0  0.10570432921E+04 -0.32160041851E+03 -0.17247860730E+04  0.20483296483E+04  0.00000000000E+00 0.  1.
<mgrwt>
<rscale>  0 0.22495481E+04</rscale>
<asrwt>0</asrwt>
<pdfrwt beam="1">  1        2 0.49333033E+00 0.22495481E+04</pdfrwt>
<pdfrwt beam="2">  1       -2 0.60696834E-01 0.22495481E+04</pdfrwt>
<totfact> 0.29589105E+00</totfact>
</mgrwt>
</event>
<event>
 6    1  0.2238133E-007  0.4048722E+04  0.7818608E-02  0.7994789E-01
         -4   -1    0    0    0  501 -0.00000000000E+00  0.00000000000E+00  0.15760790425E+04  0.15760790425E+04  0.00000000000E+00 0.  1.
          4   -1    0    0  501    0  0.00000000000E+00 -0.00000000000E+00 -0.26001478069E+04  0.26001478069E+04  0.00000000000E+00 0. -1.
         23    2    1    2    0    0  0.46080946756E+03  0.43893709829E+03 -0.24934624118E+04  0.25749371091E+04  0.89079602626E+02 0.  0.
         13    1    3    3    0    0  0.41175327506E+03  0.34989895878E+03 -0.20560818013E+04  0.21258980254E+04  0.00000000000E+00 0.  1.
        -13    1    3    3    0    0  0.49056192495E+02  0.89038139509E+02 -0.43738061046E+03  0.44903908373E+03  0.00000000000E+00 0. -1.
         22    1    1    2    0    0 -0.46080946756E+03 -0.43893709829E+03  0.14693936473E+04  0.16012897403E+04  0.00000000000E+00 0.  1.
<mgrwt>
<rscale>  0 0.40487225E+04</rscale>
<asrwt>0</asrwt>
<pdfrwt beam="1">  1        4 0.40002274E+00 0.40487225E+04</pdfrwt>
<pdfrwt beam="2">  1       -4 0.24247370E+00 0.40487225E+04</pdfrwt>
<totfact> 0.73622489E-04</totfact>
</mgrwt>
</event>
<event>
 6    1  0.2238133E-007  0.1314741E+04  0.7818608E-02  0.9017956E-01
         -2   -1    0    0    0  501 -0.00000000000E+00  0.00000000000E+00  0.24310182323E+03  0.24310182323E+03  0.00000000000E+00 0.  1.
          2   -1    0    0  501    0  0.00000000000E+00 -0.00000000000E+00 -0.17775929337E+04  0.17775929337E+04  0.00000000000E+00 0. -1.
         23    2    1    2    0    0  0.49005857061E+03 -0.43156719689E+03 -0.70874747219E+03  0.96795537598E+03  0.90592397551E+02 0.  0.
         13    1    3    3    0    0  0.24308168221E+03 -0.15477310023E+03 -0.31899722721E+03  0.42988678481E+03  0.00000000000E+00 0. -1.
        -13    1    3    3    0    0  0.24697688840E+03 -0.27679409666E+03 -0.38975024497E+03  0.53806859117E+03  0.00000000000E+00 0.  1.
         22    1    1    2    0    0 -0.49005857061E+03  0.43156719689E+03 -0.82574363830E+03  0.10527393810E+04  0.00000000000E+00 0.  1.
<mgrwt>
<rscale>  0 0.13147412E+04</rscale>
<asrwt>0</asrwt>
<pdfrwt beam="1">  1        2 0.27347582E+00 0.13147412E+04</pdfrwt>
<pdfrwt beam="2">  1       -2 0.37400282E-01 0.13147412E+04</pdfrwt>
<totfact> 0.58619703E+01</totfact>
</mgrwt>
</event>
<event>
 6    1  0.2238133E-007  0.1461221E+04  0.7818608E-02  0.8910658E-01
         -2   -1    0    0    0  501 -0.00000000000E+00  0.00000000000E+00  0.31105000671E+03  0.31105000671E+03  0.00000000000E+00 0.  1.
          2   -1    0    0  501    0  0.00000000000E+00 -0.00000000000E+00 -0.17160955198E+04  0.17160955198E+04  0.00000000000E+00 0. -1.
         23    2    1    2    0    0 -0.11683973977E+03 -0.57252900419E+03 -0.13071061329E+04  0.14346650563E+04  0.91084552080E+02 0.  0.
         11    1    3    3    0    0 -0.70036203922E+02 -0.22466033099E+03 -0.43498887339E+03  0.49456309421E+03  0.00000000000E+00 0. -1.
        -11    1    3    3    0    0 -0.46803535852E+02 -0.34786867320E+03 -0.87211725951E+03  0.94010196207E+03  0.00000000000E+00 0.  1.
         22    1    1    2    0    0  0.11683973977E+03  0.57252900419E+03 -0.97939380204E+02  0.59248047025E+03  0.00000000000E+00 0.  1.
<mgrwt>
<rscale>  0 0.14612208E+04</rscale>
<asrwt>0</asrwt>
<pdfrwt beam="1">  1        2 0.26401469E+00 0.14612208E+04</pdfrwt>
<pdfrwt beam="2">  1       -2 0.47853847E-01 0.14612208E+04</pdfrwt>
<totfact> 0.38511231E+01</totfact>
</mgrwt>
</event>
<event>
 6    1  0.2238133E-007  0.2313038E+04  0.7818608E-02  0.8472798E-01
          2   -1    0    0  501    0  0.00000000000E+00  0.00000000000E+00  0.17234126316E+04  0.17234126316E+04  0.00000000000E+00 0. -1.
         -2   -1    0    0    0  501 -0.00000000000E+00 -0.00000000000E+00 -0.77609759813E+03  0.77609759813E+03  0.00000000000E+00 0.  1.
         23    2    1    2    0    0 -0.11289615706E+04 -0.45347291197E+02  0.73181425444E+03  0.13492706066E+04  0.91479299154E+02 0.  0.
         13    1    3    3    0    0 -0.46141174213E+03  0.23921839388E+02  0.31612721589E+03  0.55982985523E+03  0.00000000000E+00 0. -1.
        -13    1    3    3    0    0 -0.66754982848E+03 -0.69269130585E+02  0.41568703855E+03  0.78944075141E+03  0.00000000000E+00 0.  1.
         22    1    1    2    0    0  0.11289615706E+04  0.45347291197E+02  0.21550077902E+03  0.11502396231E+04  0.00000000000E+00 0.  1.
<mgrwt>
<rscale>  0 0.23130382E+04</rscale>
<asrwt>0</asrwt>
<pdfrwt beam="1">  1        2 0.26514040E+00 0.23130382E+04</pdfrwt>
<pdfrwt beam="2">  1       -2 0.11939963E+00 0.23130382E+04</pdfrwt>
<totfact> 0.46347034E+00</totfact>
</mgrwt>
</event>
<event>
 6    1  0.2238133E-007  0.1685750E+04  0.7818608E-02  0.8769534E-01
         -2   -1    0    0    0  501 -0.00000000000E+00  0.00000000000E+00  0.26308507434E+04  0.26308507434E+04  0.00000000000E+00 0.  1.
          2   -1    0    0  501    0  0.00000000000E+00 -0.00000000000E+00 -0.27004111607E+03  0.27004111607E+03  0.00000000000E+00 0. -1.
         23    2    1    2    0    0 -0.14192919028E+02  0.46528258639E+03  0.23879018580E+04  0.24346051311E+04  0.92398790879E+02 0.  0.
         11    1    3    3    0    0  0.18916329802E+02  0.77675564217E+02  0.56728456230E+03  0.57289012510E+03  0.00000000000E+00 0.  1.
        -11    1    3    3    0    0 -0.33109248830E+02  0.38760702218E+03  0.18206172957E+04  0.18617150060E+04  0.00000000000E+00 0. -1.
         22    1    1    2    0    0  0.14192919028E+02 -0.46528258639E+03 -0.27092230653E+02  0.46628672843E+03  0.00000000000E+00 0. -1.
<mgrwt>
<rscale>  0 0.16857495E+04</rscale>
<asrwt>0</asrwt>
<pdfrwt beam="1">  1        2 0.41544789E-01 0.16857495E+04</pdfrwt>
<pdfrwt beam="2">  1       -2 0.40474625E+00 0.16857495E+04</pdfrwt>
<totfact> 0.81781959E-01</totfact>
</mgrwt>
</event>
<event>
 6    1  0.2238133E-007  0.2017111E+04  0.7818608E-02  0.8598662E-01
         -2   -1    0    0    0  501 -0.00000000000E+00  0.00000000000E+00  0.11981699483E+04  0.11981699483E+04  0.00000000000E+00 0.  1.
          2   -1    0    0  501    0  0.00000000000E+00 -0.00000000000E+00 -0.84894854551E+03  0.84894854551E+03  0.00000000000E+00 0. -1.
         23    2    1    2    0    0 -0.90500292741E+03  0.24481468924E+03 -0.19532494154E+03  0.96291590579E+03  0.10045236754E+03 0.  0.
         11    1    3    3    0    0 -0.99367655116E+02  0.60868396030E+02 -0.23806831081E+02  0.11893551919E+03  0.00000000000E+00 0.  1.
        -11    1    3    3    0    0 -0.80563527230E+03  0.18394629321E+03 -0.17151811046E+03  0.84398038660E+03  0.00000000000E+00 0. -1.
         22    1    1    2    0    0  0.90500292741E+03 -0.24481468924E+03  0.54454634428E+03  0.10842025880E+04  0.00000000000E+00 0.  1.
<mgrwt>
<rscale>  0 0.20171114E+04</rscale>
<asrwt>0</asrwt>
<pdfrwt beam="1">  1        2 0.13060747E+00 0.20171114E+04</pdfrwt>
<pdfrwt beam="2">  1       -2 0.18433384E+00 0.20171114E+04</pdfrwt>
<totfact> 0.49919243E+00</totfact>
</mgrwt>
</event>
<event>
 6    1  0.2238133E-007  0.3079965E+04  0.7818608E-02  0.8221258E-01
         -2   -1    0    0    0  501 -0.00000000000E+00  0.00000000000E+00  0.18606893231E+04  0.18606893231E+04  0.00000000000E+00 0.  1.
          2   -1    0    0  501    0  0.00000000000E+00 -0.00000000000E+00 -0.12745526392E+04  0.12745526392E+04  0.00000000000E+00 0. -1.
         23    2    1    2    0    0  0.12753768203E+03 -0.83951104112E+03 -0.10126488163E+04  0.13249492446E+04  0.94806260993E+02 0.  0.
         13    1    3    3    0    0  0.13746836124E+03 -0.81098303677E+03 -0.95950059842E+03  0.12638166143E+04  0.00000000000E+00 0.  1.
        -13    1    3    3    0    0 -0.99306792129E+01 -0.28528004352E+02 -0.53148217836E+02  0.61132630249E+02  0.00000000000E+00 0. -1.
         22    1    1    2    0    0 -0.12753768203E+03  0.83951104112E+03  0.15987855002E+04  0.18102927178E+04  0.00000000000E+00 0.  1.
<mgrwt>
<rscale>  0 0.30799653E+04</rscale>
<asrwt>0</asrwt>
<pdfrwt beam="1">  1        2 0.19608502E+00 0.30799653E+04</pdfrwt>
<pdfrwt beam="2">  1       -2 0.28625990E+00 0.30799653E+04</pdfrwt>
<totfact> 0.56108222E-01</totfact>
</mgrwt>
</event>
<event>
 6    1  0.2238133E-007  0.1843397E+04  0.7818608E-02  0.8683556E-01
          1   -1    0    0  501    0  0.00000000000E+00  0.00000000000E+00  0.18368951435E+04  0.18368951435E+04  0.00000000000E+00 0. -1.
         -1   -1    0    0    0  501 -0.00000000000E+00 -0.00000000000E+00 -0.46248031542E+03  0.46248031542E+03  0.00000000000E+00 0.  1.
         23    2    1    2    0    0  0.85718967884E+03  0.14352292794E+03  0.31474598508E+03  0.92887517321E+03  0.91493584089E+02 0.  0.
         13    1    3    3    0    0  0.55649643340E+03  0.58062477987E+02  0.17312230175E+03  0.58568836688E+03  0.00000000000E+00 0.  1.
        -13    1    3    3    0    0  0.30069324544E+03  0.85460449950E+02  0.14162368333E+03  0.34318680633E+03  0.00000000000E+00 0. -1.
         22    1    1    2    0    0 -0.85718967884E+03 -0.14352292794E+03  0.10596688430E+04  0.13705002858E+04  0.00000000000E+00 0. -1.
<mgrwt>
<rscale>  0 0.18433967E+04</rscale>
<asrwt>0</asrwt>
<pdfrwt beam="1">  1        1 0.28259925E+00 0.18433967E+04</pdfrwt>
<pdfrwt beam="2">  1       -1 0.71150819E-01 0.18433967E+04</pdfrwt>
<totfact> 0.72119192E+00</totfact>
</mgrwt>
</event>
<event>
 6    1  0.2238133E-007  0.2677786E+04  0.7818608E-02  0.8342249E-01
          2   -1    0    0  501    0  0.00000000000E+00  0.00000000000E+00  0.13834037053E+04  0.13834037053E+04  0.00000000000E+00 0. -1.
         -2   -1    0    0    0  501 -0.00000000000E+00 -0.00000000000E+00 -0.12958142073E+04  0.12958142073E+04  0.00000000000E+00 0.  1.
         23    2    1    2    0    0  0.44006607434E+03  0.11017901943E+04 -0.57382107978E+03  0.13208866811E+04  0.88719843413E+02 0.  0.
         11    1    3    3    0    0  0.26917348354E+03  0.66498761091E+03 -0.29861343717E+03  0.77706683867E+03  0.00000000000E+00 0.  1.
        -11    1    3    3    0    0  0.17089259080E+03  0.43680258338E+03 -0.27520764261E+03  0.54381984240E+03  0.00000000000E+00 0. -1.
         22    1    1    2    0    0 -0.44006607434E+03 -0.11017901943E+04  0.66141057782E+03  0.13583312315E+04  0.00000000000E+00 0. -1.
<mgrwt>
<rscale>  0 0.26777858E+04</rscale>
<asrwt>0</asrwt>
<pdfrwt beam="1">  1        2 0.21283134E+00 0.26777858E+04</pdfrwt>
<pdfrwt beam="2">  1       -2 0.19935603E+00 0.26777858E+04</pdfrwt>
<totfact> 0.17461030E+00</totfact>
</mgrwt>
</event>
<event>
 6    1  0.2238133E-007  0.3645493E+04  0.7818608E-02  0.8080150E-01
         -2   -1    0    0    0  501 -0.00000000000E+00  0.00000000000E+00  0.29039780339E+04  0.29039780339E+04  0.00000000000E+00 0.  1.
          2   -1    0    0  501    0  0.00000000000E+00 -0.00000000000E+00 -0.11440871409E+04  0.11440871409E+04  0.00000000000E+00 0. -1.
         23    2    1    2    0    0  0.39103588351E+03 -0.15274868294E+04 -0.13144855504E+03  0.15856903082E+04  0.10492833031E+03 0.  0.
         13    1    3    3    0    0  0.83396636476E+02 -0.24392636024E+03 -0.54832992604E+02  0.26355592437E+03  0.00000000000E+00 0. -1.
        -13    1    3    3    0    0  0.30763924703E+03 -0.12835604692E+04 -0.76615562432E+02  0.13221343838E+04  0.00000000000E+00 0.  1.
         22    1    1    2    0    0 -0.39103588351E+03  0.15274868294E+04  0.18913394480E+04  0.24623748666E+04  0.00000000000E+00 0.  1.
<mgrwt>
<rscale>  0 0.36454925E+04</rscale>
<asrwt>0</asrwt>
<pdfrwt beam="1">  1        2 0.17601341E+00 0.36454925E+04</pdfrwt>
<pdfrwt beam="2">  1       -2 0.44676585E+00 0.36454925E+04</pdfrwt>
<totfact> 0.60558183E-02</totfact>
</mgrwt>
</event>
<event>
 6    1  0.2238133E-007  0.4807877E+04  0.7818608E-02  0.7858847E-01
         -2   -1    0    0    0  501 -0.00000000000E+00  0.00000000000E+00  0.21616241377E+04  0.21616241377E+04  0.00000000000E+00 0.  1.
          2   -1    0    0  501    0  0.00000000000E+00 -0.00000000000E+00 -0.26734161094E+04  0.26734161094E+04  0.00000000000E+00 0. -1.
         23    2    1    2    0    0  0.91714898232E+03  0.22176045505E+04 -0.38215362750E+03  0.24317636715E+04  0.92200657381E+02 0.  0.
         13    1    3    3    0    0  0.53685777838E+03  0.13548653046E+04 -0.19203827473E+03  0.14699506682E+04  0.00000000000E+00 0. -1.
        -13    1    3    3    0    0  0.38029120394E+03  0.86273924581E+03 -0.19011535277E+03  0.96181300335E+03  0.00000000000E+00 0.  1.
         22    1    1    2    0    0 -0.91714898232E+03 -0.22176045505E+04 -0.12963834422E+03  0.24032765755E+04  0.00000000000E+00 0. -1.
<mgrwt>
<rscale>  0 0.48078772E+04</rscale>
<asrwt>0</asrwt>
<pdfrwt beam="1">  1        2 0.41129479E+00 0.48078772E+04</pdfrwt>
<pdfrwt beam="2">  1       -2 0.33255756E+00 0.48078772E+04</pdfrwt>
<totfact> 0.40736607E-02</totfact>
</mgrwt>
</event>
<event>
 6    1  0.2238133E-007  0.1344138E+04  0.7818608E-02  0.8995277E-01
         -2   -1    0    0    0  501 -0.00000000000E+00  0.00000000000E+00  0.20483433080E+03  0.20483433080E+03  0.00000000000E+00 0.  1.
          2   -1    0    0  501    0  0.00000000000E+00 -0.00000000000E+00 -0.22050847275E+04  0.22050847275E+04  0.00000000000E+00 0. -1.
         23    2    1    2    0    0 -0.86720163465E+02 -0.47686338355E+03 -0.17897561938E+03  0.52525439639E+03  0.94555990150E+02 0.  0.
         11    1    3    3    0    0 -0.11122918365E+02 -0.81448369540E+02  0.55730075147E+01  0.82393049624E+02  0.00000000000E+00 0. -1.
        -11    1    3    3    0    0 -0.75597245100E+02 -0.39541501401E+03 -0.18454862689E+03  0.44286134677E+03  0.00000000000E+00 0.  1.
         22    1    1    2    0    0  0.86720163465E+02  0.47686338355E+03 -0.18212747773E+04  0.18846646619E+04  0.00000000000E+00 0. -1.
<mgrwt>
<rscale>  0 0.13441385E+04</rscale>
<asrwt>0</asrwt>
<pdfrwt beam="1">  1        2 0.33924380E+00 0.13441385E+04</pdfrwt>
<pdfrwt beam="2">  1       -2 0.31512974E-01 0.13441385E+04</pdfrwt>
<totfact> 0.46960454E+01</totfact>
</mgrwt>
</event>
<event>
 6    1  0.2238133E-007  0.2921646E+04  0.7818608E-02  0.8266466E-01
          2   -1    0    0  501    0  0.00000000000E+00  0.00000000000E+00  0.23876957564E+04  0.23876957564E+04  0.00000000000E+00 0. -1.
         -2   -1    0    0    0  501 -0.00000000000E+00 -0.00000000000E+00 -0.89375001576E+03  0.89375001576E+03  0.00000000000E+00 0.  1.
         23    2    1    2    0    0 -0.10518572651E+04 -0.46587280536E+03  0.17564206485E+04  0.21014736309E+04  0.87958796134E+02 0.  0.
         11    1    3    3    0    0 -0.18943420677E+03 -0.11812540725E+03  0.31324464475E+03  0.38465716944E+03  0.00000000000E+00 0.  1.
        -11    1    3    3    0    0 -0.86242305831E+03 -0.34774739811E+03  0.14431760038E+04  0.17168164615E+04  0.00000000000E+00 0. -1.
         22    1    1    2    0    0  0.10518572651E+04  0.46587280536E+03 -0.26247490791E+03  0.11799721413E+04  0.00000000000E+00 0.  1.
<mgrwt>
<rscale>  0 0.29216455E+04</rscale>
<asrwt>0</asrwt>
<pdfrwt beam="1">  1        2 0.36733781E+00 0.29216455E+04</pdfrwt>
<pdfrwt beam="2">  1       -2 0.13750000E+00 0.29216455E+04</pdfrwt>
<totfact> 0.13099143E+00</totfact>
</mgrwt>
</event>
<event>
 6    1  0.2238133E-007  0.2309616E+04  0.7818608E-02  0.8474139E-01
          2   -1    0    0  501    0  0.00000000000E+00  0.00000000000E+00  0.33303725680E+04  0.33303725680E+04  0.00000000000E+00 0. -1.
         -2   -1    0    0    0  501 -0.00000000000E+00 -0.00000000000E+00 -0.40042996814E+03  0.40042996814E+03  0.00000000000E+00 0.  1.
         23    2    1    2    0    0 -0.49536127689E+02 -0.20386577013E+03  0.32986558251E+04  0.33065802799E+04  0.91256861919E+02 0.  0.
         11    1    3    3    0    0  0.20786799939E+01 -0.15149028879E+03  0.24823660561E+04  0.24869850954E+04  0.00000000000E+00 0.  1.
        -11    1    3    3    0    0 -0.51614807683E+02 -0.52375481344E+02  0.81628976901E+03  0.81959518447E+03  0.00000000000E+00 0. -1.
         22    1    1    2    0    0  0.49536127689E+02  0.20386577013E+03 -0.36871322526E+03  0.42422225621E+03  0.00000000000E+00 0.  1.
<mgrwt>
<rscale>  0 0.23096155E+04</rscale>
<asrwt>0</asrwt>
<pdfrwt beam="1">  1        2 0.51236499E+00 0.23096155E+04</pdfrwt>
<pdfrwt beam="2">  1       -2 0.61604613E-01 0.23096155E+04</pdfrwt>
<totfact> 0.23622511E+00</totfact>
</mgrwt>
</event>
<event>
 6    1  0.2238133E-007  0.5692837E+03  0.7818608E-02  0.9971265E-01
         -2   -1    0    0    0  501 -0.00000000000E+00  0.00000000000E+00  0.32562235556E+03  0.32562235556E+03  0.00000000000E+00 0.  1.
          2   -1    0    0  501    0  0.00000000000E+00 -0.00000000000E+00 -0.24881884006E+03  0.24881884006E+03  0.00000000000E+00 0. -1.
         23    2    1    2    0    0 -0.19594674803E+03 -0.67088207898E+02 -0.14680749868E+03  0.26964972369E+03  0.90898713494E+02 0.  0.
         11    1    3    3    0    0 -0.14768429743E+03 -0.54999934965E+02 -0.58137663409E+02  0.16797509477E+03  0.00000000000E+00 0.  1.
        -11    1    3    3    0    0 -0.48262450595E+02 -0.12088272933E+02 -0.88669835269E+02  0.10167462892E+03  0.00000000000E+00 0. -1.
         22    1    1    2    0    0  0.19594674803E+03  0.67088207898E+02  0.22361101418E+03  0.30479147194E+03  0.00000000000E+00 0.  1.
<mgrwt>
<rscale>  0 0.56928368E+03</rscale>
<asrwt>0</asrwt>
<pdfrwt beam="1">  1        2 0.38279821E-01 0.56928368E+03</pdfrwt>
<pdfrwt beam="2">  1       -2 0.50095747E-01 0.56928368E+03</pdfrwt>
<totfact> 0.51414536E+02</totfact>
</mgrwt>
</event>
<event>
 6    1  0.2238133E-007  0.1180837E+04  0.7818608E-02  0.9129797E-01
          2   -1    0    0  501    0  0.00000000000E+00  0.00000000000E+00  0.55421812254E+03  0.55421812254E+03  0.00000000000E+00 0. -1.
         -2   -1    0    0    0  501 -0.00000000000E+00 -0.00000000000E+00 -0.62898348900E+03  0.62898348900E+03  0.00000000000E+00 0.  1.
         23    2    1    2    0    0 -0.17390516251E+03  0.17894068972E+03 -0.56934348328E+03  0.62924286792E+03  0.97630983204E+02 0.  0.
         11    1    3    3    0    0 -0.50260189916E+02  0.11215637827E+03 -0.32364300857E+03  0.34619349629E+03  0.00000000000E+00 0.  1.
        -11    1    3    3    0    0 -0.12364497260E+03  0.66784311448E+02 -0.24570047472E+03  0.28304937163E+03  0.00000000000E+00 0. -1.
         22    1    1    2    0    0  0.17390516251E+03 -0.17894068972E+03  0.49457811683E+03  0.55395874362E+03  0.00000000000E+00 0. -1.
<mgrwt>
<rscale>  0 0.11808371E+04</rscale>
<asrwt>0</asrwt>
<pdfrwt beam="1">  1        2 0.85264326E-01 0.11808371E+04</pdfrwt>
<pdfrwt beam="2">  1       -2 0.96766691E-01 0.11808371E+04</pdfrwt>
<totfact> 0.48123897E+01</totfact>
</mgrwt>
</event>
<event>
 6    1  0.2238133E-007  0.2789127E+04  0.7818608E-02  0.8306652E-01
          2   -1    0    0  501    0  0.00000000000E+00  0.00000000000E+00  0.18041566073E+04  0.18041566073E+04  0.00000000000E+00 0. -1.
         -2   -1    0    0    0  501 -0.00000000000E+00 -0.00000000000E+00 -0.10779590455E+04  0.10779590455E+04  0.00000000000E+00 0.  1.
         23    2    1    2    0    0  0.44368013790E+02  0.87648598732E+03  0.14815980649E+04  0.17241751850E+04  0.86319384013E+02 0.  0.
         13    1    3    3    0    0 -0.17771074055E+02  0.46381097266E+03  0.75536300362E+03  0.88657187902E+03  0.00000000000E+00 0.  1.
        -13    1    3    3    0    0  0.62139087845E+02  0.41267501466E+03  0.72623506132E+03  0.83760330602E+03  0.00000000000E+00 0. -1.
         22    1    1    2    0    0 -0.44368013790E+02 -0.87648598732E+03 -0.75540050322E+03  0.11579404678E+04  0.00000000000E+00 0.  1.
<mgrwt>
<rscale>  0 0.27891267E+04</rscale>
<asrwt>0</asrwt>
<pdfrwt beam="1">  1        2 0.27756255E+00 0.27891267E+04</pdfrwt>
<pdfrwt beam="2">  1       -2 0.16583985E+00 0.27891267E+04</pdfrwt>
<totfact> 0.17068272E+00</totfact>
</mgrwt>
</event>
<event>
 6    1  0.2238133E-007  0.1287518E+04  0.7818608E-02  0.9039523E-01
         -2   -1    0    0    0  501 -0.00000000000E+00  0.00000000000E+00  0.41821779296E+03  0.41821779296E+03  0.00000000000E+00 0.  1.
          2   -1    0    0  501    0  0.00000000000E+00 -0.00000000000E+00 -0.99093219268E+03  0.99093219268E+03  0.00000000000E+00 0. -1.
         23    2    1    2    0    0 -0.12474652918E+03  0.16137680638E+03 -0.95232186737E+03  0.97821379584E+03  0.91548463203E+02 0.  0.
         13    1    3    3    0    0  0.32869217894E+01  0.57506378381E+02 -0.29144918544E+03  0.29708654481E+03  0.00000000000E+00 0.  1.
        -13    1    3    3    0    0 -0.12803345097E+03  0.10387042800E+03 -0.66087268193E+03  0.68112725103E+03  0.00000000000E+00 0. -1.
         22    1    1    2    0    0  0.12474652918E+03 -0.16137680638E+03  0.37960746766E+03  0.43093618980E+03  0.00000000000E+00 0.  1.
<mgrwt>
<rscale>  0 0.12875177E+04</rscale>
<asrwt>0</asrwt>
<pdfrwt beam="1">  1        2 0.15245110E+00 0.12875177E+04</pdfrwt>
<pdfrwt beam="2">  1       -2 0.64341200E-01 0.12875177E+04</pdfrwt>
<totfact> 0.55899282E+01</totfact>
</mgrwt>
</event>
<event>
 6    1  0.2238133E-007  0.1053752E+04  0.7818608E-02  0.9251479E-01
         -2   -1    0    0    0  501 -0.00000000000E+00  0.00000000000E+00  0.13472003784E+03  0.13472003784E+03  0.00000000000E+00 0.  1.
          2   -1    0    0  501    0  0.00000000000E+00 -0.00000000000E+00 -0.20605561144E+04  0.20605561144E+04  0.00000000000E+00 0. -1.
         23    2    1    2    0    0  0.28051950631E+03  0.68013426952E+02 -0.18786280096E+04  0.19027943216E+04  0.89810980712E+02 0.  0.
         13    1    3    3    0    0  0.25020609935E+03  0.34922713236E+02 -0.14521181351E+04  0.14739300412E+04  0.00000000000E+00 0. -1.
        -13    1    3    3    0    0  0.30313406963E+02  0.33090713716E+02 -0.42650987445E+03  0.42886428038E+03  0.00000000000E+00 0.  1.
         22    1    1    2    0    0 -0.28051950631E+03 -0.68013426952E+02 -0.47208066982E+02  0.29248183064E+03  0.00000000000E+00 0.  1.
<mgrwt>
<rscale>  0 0.10537518E+04</rscale>
<asrwt>0</asrwt>
<pdfrwt beam="1">  1        2 0.31700865E+00 0.10537518E+04</pdfrwt>
<pdfrwt beam="2">  1       -2 0.20726158E-01 0.10537518E+04</pdfrwt>
<totfact> 0.12394868E+02</totfact>
</mgrwt>
</event>
<event>
 6    1  0.2238133E-007  0.3714160E+04  0.7818608E-02  0.8064831E-01
          2   -1    0    0  501    0  0.00000000000E+00  0.00000000000E+00  0.20761940856E+04  0.20761940856E+04  0.00000000000E+00 0. -1.
         -2   -1    0    0    0  501 -0.00000000000E+00 -0.00000000000E+00 -0.16610907344E+04  0.16610907344E+04  0.00000000000E+00 0.  1.
         23    2    1    2    0    0 -0.70395422564E+02  0.82777048313E+03  0.18775612303E+04  0.20553387636E+04  0.94983007090E+02 0.  0.
         11    1    3    3    0    0 -0.51467241880E+01  0.12718643644E+03  0.37922251101E+03  0.40001573874E+03  0.00000000000E+00 0.  1.
        -11    1    3    3    0    0 -0.65248698376E+02  0.70058404669E+03  0.14983387193E+04  0.16553230249E+04  0.00000000000E+00 0. -1.
         22    1    1    2    0    0  0.70395422564E+02 -0.82777048313E+03 -0.14624578791E+04  0.16819460563E+04  0.00000000000E+00 0.  1.
<mgrwt>
<rscale>  0 0.37141603E+04</rscale>
<asrwt>0</asrwt>
<pdfrwt beam="1">  1        2 0.31941447E+00 0.37141603E+04</pdfrwt>
<pdfrwt beam="2">  1       -2 0.25555242E+00 0.37141603E+04</pdfrwt>
<totfact> 0.29064417E-01</totfact>
</mgrwt>
</event>
<event>
 6    1  0.2238133E-007  0.2825894E+04  0.7818608E-02  0.8295274E-01
         -2   -1    0    0    0  501 -0.00000000000E+00  0.00000000000E+00  0.74201247763E+03  0.74201247763E+03  0.00000000000E+00 0.  1.
          2   -1    0    0  501    0  0.00000000000E+00 -0.00000000000E+00 -0.26905472844E+04  0.26905472844E+04  0.00000000000E+00 0. -1.
         23    2    1    2    0    0 -0.53041802918E+03 -0.12849056018E+04 -0.67838732355E+03  0.15495833097E+04  0.93130992236E+02 0.  0.
         11    1    3    3    0    0 -0.31667973963E+03 -0.85481843614E+03 -0.41185644052E+03  0.10003131229E+04  0.00000000000E+00 0. -1.
        -11    1    3    3    0    0 -0.21373828956E+03 -0.43008716562E+03 -0.26653088303E+03  0.54927018676E+03  0.00000000000E+00 0.  1.
         22    1    1    2    0    0  0.53041802918E+03  0.12849056018E+04 -0.12701474832E+04  0.18829764524E+04  0.00000000000E+00 0. -1.
<mgrwt>
<rscale>  0 0.28258943E+04</rscale>
<asrwt>0</asrwt>
<pdfrwt beam="1">  1        2 0.41393035E+00 0.28258943E+04</pdfrwt>
<pdfrwt beam="2">  1       -2 0.11415577E+00 0.28258943E+04</pdfrwt>
<totfact> 0.14019036E+00</totfact>
</mgrwt>
</event>
<event>
 6    1  0.2238133E-007  0.1316160E+04  0.7818608E-02  0.9016847E-01
         -2   -1    0    0    0  501 -0.00000000000E+00  0.00000000000E+00  0.21776120932E+03  0.21776120932E+03  0.00000000000E+00 0.  1.
          2   -1    0    0  501    0  0.00000000000E+00 -0.00000000000E+00 -0.19887349793E+04  0.19887349793E+04  0.00000000000E+00 0. -1.
         23    2    1    2    0    0  0.32518375665E+02  0.36665016711E+03 -0.17978972378E+04  0.18374234818E+04  0.90558179908E+02 0.  0.
         13    1    3    3    0    0  0.33700412330E+02  0.33158730611E+03 -0.14524956449E+04  0.14902447644E+04  0.00000000000E+00 0.  1.
        -13    1    3    3    0    0 -0.11820366652E+01  0.35062861001E+02 -0.34540159288E+03  0.34717871737E+03  0.00000000000E+00 0. -1.
         22    1    1    2    0    0 -0.32518375665E+02 -0.36665016711E+03  0.26923467830E+02  0.36907270681E+03  0.00000000000E+00 0.  1.
<mgrwt>
<rscale>  0 0.13161601E+04</rscale>
<asrwt>0</asrwt>
<pdfrwt beam="1">  1        2 0.30595923E+00 0.13161601E+04</pdfrwt>
<pdfrwt beam="2">  1       -2 0.33501724E-01 0.13161601E+04</pdfrwt>
<totfact> 0.55313290E+01</totfact>
</mgrwt>
</event>
<event>
 6    1  0.2238133E-007  0.2077114E+04  0.7818608E-02  0.8571393E-01
          1   -1    0    0  501    0  0.00000000000E+00  0.00000000000E+00  0.85229775853E+03  0.85229775853E+03  0.00000000000E+00 0. -1.
         -1   -1    0    0    0  501 -0.00000000000E+00 -0.00000000000E+00 -0.12655203723E+04  0.12655203723E+04  0.00000000000E+00 0.  1.
         23    2    1    2    0    0 -0.79466163535E+02 -0.86568573120E+03 -0.78275197073E+03  0.11732131329E+04  0.89452508205E+02 0.  0.
         11    1    3    3    0    0 -0.33472979346E+02 -0.69250556516E+03 -0.59424093704E+03  0.91313016015E+03  0.00000000000E+00 0. -1.
        -11    1    3    3    0    0 -0.45993184189E+02 -0.17318016604E+03 -0.18851103369E+03  0.26008297277E+03  0.00000000000E+00 0.  1.
         22    1    1    2    0    0  0.79466163535E+02  0.86568573120E+03  0.36952935698E+03  0.94460499789E+03  0.00000000000E+00 0. -1.
<mgrwt>
<rscale>  0 0.20771136E+04</rscale>
<asrwt>0</asrwt>
<pdfrwt beam="1">  1        1 0.13112273E+00 0.20771136E+04</pdfrwt>
<pdfrwt beam="2">  1       -1 0.19469544E+00 0.20771136E+04</pdfrwt>
<totfact> 0.30096454E+00</totfact>
</mgrwt>
</event>
<event>
 6    1  0.2238133E-007  0.9728944E+03  0.7818608E-02  0.9338784E-01
         -2   -1    0    0    0  501 -0.00000000000E+00  0.00000000000E+00  0.20267444454E+03  0.20267444454E+03  0.00000000000E+00 0.  1.
          2   -1    0    0  501    0  0.00000000000E+00 -0.00000000000E+00 -0.11675417083E+04  0.11675417083E+04  0.00000000000E+00 0. -1.
         23    2    1    2    0    0 -0.42263868499E+03 -0.61068321588E+02 -0.80309748907E+03  0.91357377858E+03  0.85432277278E+02 0.  0.
         13    1    3    3    0    0 -0.10661620619E+03  0.10635982330E+02 -0.25897067221E+03  0.28026050133E+03  0.00000000000E+00 0. -1.
        -13    1    3    3    0    0 -0.31602247881E+03 -0.71704303918E+02 -0.54412681686E+03  0.63331327725E+03  0.00000000000E+00 0.  1.
         22    1    1    2    0    0  0.42263868499E+03  0.61068321588E+02 -0.16176977465E+03  0.45664237423E+03  0.00000000000E+00 0.  1.
<mgrwt>
<rscale>  0 0.97289438E+03</rscale>
<asrwt>0</asrwt>
<pdfrwt beam="1">  1        2 0.17962180E+00 0.97289438E+03</pdfrwt>
<pdfrwt beam="2">  1       -2 0.31180684E-01 0.97289438E+03</pdfrwt>
<totfact> 0.18863794E+02</totfact>
</mgrwt>
</event>
<event>
 6    1  0.2238133E-007  0.1329254E+04  0.7818608E-02  0.9006683E-01
          2   -1    0    0  501    0  0.00000000000E+00  0.00000000000E+00  0.16763113890E+03  0.16763113890E+03  0.00000000000E+00 0. -1.
         -2   -1    0    0    0  501 -0.00000000000E+00 -0.00000000000E+00 -0.26351249775E+04  0.26351249775E+04  0.00000000000E+00 0.  1.
         23    2    1    2    0    0 -0.71418248583E+02  0.63307651989E+03 -0.87645320848E+03  0.10889017664E+04  0.10793694451E+03 0.  0.
         13    1    3    3    0    0  0.22716922765E+02  0.14153788658E+03 -0.15824723700E+03  0.21352100584E+03  0.00000000000E+00 0.  1.
        -13    1    3    3    0    0 -0.94135171348E+02  0.49153863331E+03 -0.71820597148E+03  0.87538076058E+03  0.00000000000E+00 0. -1.
         22    1    1    2    0    0  0.71418248583E+02 -0.63307651989E+03 -0.15910406302E+04  0.17138543500E+04  0.00000000000E+00 0.  1.
<mgrwt>
<rscale>  0 0.13292539E+04</rscale>
<asrwt>0</asrwt>
<pdfrwt beam="1">  1        2 0.25789406E-01 0.13292539E+04</pdfrwt>
<pdfrwt beam="2">  1       -2 0.40540384E+00 0.13292539E+04</pdfrwt>
<totfact> 0.14369309E+00</totfact>
</mgrwt>
</event>
<event>
 6    1  0.2238133E-007  0.2786272E+04  0.7818608E-02  0.8307543E-01
         -2   -1    0    0    0  501 -0.00000000000E+00  0.00000000000E+00  0.13730625248E+04  0.13730625248E+04  0.00000000000E+00 0.  1.
          2   -1    0    0  501    0  0.00000000000E+00 -0.00000000000E+00 -0.14135024726E+04  0.14135024726E+04  0.00000000000E+00 0. -1.
         23    2    1    2    0    0  0.60215087832E+03  0.54745382755E+03  0.11087683183E+04  0.13783849618E+04  0.91030465853E+02 0.  0.
         13    1    3    3    0    0  0.30763716654E+03  0.28762339013E+03  0.49756898478E+03  0.65187631910E+03  0.00000000000E+00 0. -1.
        -13    1    3    3    0    0  0.29451371178E+03  0.25983043742E+03  0.61119933354E+03  0.72650864273E+03  0.00000000000E+00 0.  1.
         22    1    1    2    0    0 -0.60215087832E+03 -0.54745382755E+03 -0.11492082661E+04  0.14081800355E+04  0.00000000000E+00 0. -1.
<mgrwt>
<rscale>  0 0.27862715E+04</rscale>
<asrwt>0</asrwt>
<pdfrwt beam="1">  1        2 0.21746192E+00 0.27862715E+04</pdfrwt>
<pdfrwt beam="2">  1       -2 0.21124039E+00 0.27862715E+04</pdfrwt>
<totfact> 0.13922807E+00</totfact>
</mgrwt>
</event>
<event>
 6    1  0.2238133E-007  0.1753104E+04  0.7818608E-02  0.8731644E-01
         -2   -1    0    0    0  501 -0.00000000000E+00  0.00000000000E+00  0.69472997259E+03  0.69472997259E+03  0.00000000000E+00 0.  1.
          2   -1    0    0  501    0  0.00000000000E+00 -0.00000000000E+00 -0.11059596569E+04  0.11059596569E+04  0.00000000000E+00 0. -1.
         23    2    1    2    0    0 -0.24625428757E+03  0.66223674992E+02 -0.10650696012E+04  0.10988824009E+04  0.90235948065E+02 0.  0.
         11    1    3    3    0    0 -0.18048773841E+02  0.14527758322E+02 -0.24474446032E+03  0.24583869682E+03  0.00000000000E+00 0. -1.
        -11    1    3    3    0    0 -0.22820551373E+03  0.51695916669E+02 -0.82032514089E+03  0.85304370408E+03  0.00000000000E+00 0.  1.
         22    1    1    2    0    0  0.24625428757E+03 -0.66223674992E+02  0.65383991685E+03  0.70180722862E+03  0.00000000000E+00 0.  1.
<mgrwt>
<rscale>  0 0.17531039E+04</rscale>
<asrwt>0</asrwt>
<pdfrwt beam="1">  1        2 0.17014764E+00 0.17531039E+04</pdfrwt>
<pdfrwt beam="2">  1       -2 0.10688154E+00 0.17531039E+04</pdfrwt>
<totfact> 0.14420023E+01</totfact>
</mgrwt>
</event>
<event>
 6    1  0.2238133E-007  0.3627184E+04  0.7818608E-02  0.8084293E-01
          2   -1    0    0  501    0  0.00000000000E+00  0.00000000000E+00  0.21606262632E+04  0.21606262632E+04  0.00000000000E+00 0. -1.
         -2   -1    0    0    0  501 -0.00000000000E+00 -0.00000000000E+00 -0.15222976954E+04  0.15222976954E+04  0.00000000000E+00 0.  1.
         23    2    1    2    0    0  0.11722116926E+04 -0.39054904521E+03  0.16657690929E+04  0.20759881039E+04  0.91275011827E+02 0.  0.
         11    1    3    3    0    0  0.71672855310E+03 -0.25855712098E+03  0.10932924389E+04  0.13326064537E+04  0.00000000000E+00 0. -1.
        -11    1    3    3    0    0  0.45548313946E+03 -0.13199192423E+03  0.57247665398E+03  0.74338165012E+03  0.00000000000E+00 0.  1.
         22    1    1    2    0    0 -0.11722116926E+04  0.39054904521E+03 -0.10274405251E+04  0.16069358548E+04  0.00000000000E+00 0.  1.
<mgrwt>
<rscale>  0 0.36271842E+04</rscale>
<asrwt>0</asrwt>
<pdfrwt beam="1">  1        2 0.33240404E+00 0.36271842E+04</pdfrwt>
<pdfrwt beam="2">  1       -2 0.23419965E+00 0.36271842E+04</pdfrwt>
<totfact> 0.35567999E-01</totfact>
</mgrwt>
</event>
<event>
 6    1  0.2238133E-007  0.3522680E+04  0.7818608E-02  0.8108436E-01
         -2   -1    0    0    0  501 -0.00000000000E+00  0.00000000000E+00  0.17351161415E+04  0.17351161415E+04  0.00000000000E+00 0.  1.
          2   -1    0    0  501    0  0.00000000000E+00 -0.00000000000E+00 -0.17879606452E+04  0.17879606452E+04  0.00000000000E+00 0. -1.
         23    2    1    2    0    0  0.13746394029E+04  0.54540816046E+02 -0.11244613432E+04  0.17792388242E+04  0.93109036739E+02 0.  0.
         13    1    3    3    0    0  0.89515338518E+03 -0.35283978898E+01 -0.70280567250E+03  0.11380895597E+04  0.00000000000E+00 0.  1.
        -13    1    3    3    0    0  0.47948601772E+03  0.58069213936E+02 -0.42165567069E+03  0.64114926454E+03  0.00000000000E+00 0. -1.
         22    1    1    2    0    0 -0.13746394029E+04 -0.54540816046E+02  0.10716168395E+04  0.17438379625E+04  0.00000000000E+00 0.  1.
<mgrwt>
<rscale>  0 0.35226804E+04</rscale>
<asrwt>0</asrwt>
<pdfrwt beam="1">  1        2 0.27507087E+00 0.35226804E+04</pdfrwt>
<pdfrwt beam="2">  1       -2 0.26694094E+00 0.35226804E+04</pdfrwt>
<totfact> 0.36366601E-01</totfact>
</mgrwt>
</event>
<event>
 6    1  0.2238133E-007  0.3128750E+04  0.7818608E-02  0.8207892E-01
          2   -1    0    0  501    0  0.00000000000E+00  0.00000000000E+00  0.30474128627E+04  0.30474128627E+04  0.00000000000E+00 0. -1.
         -2   -1    0    0    0  501 -0.00000000000E+00 -0.00000000000E+00 -0.80306455106E+03  0.80306455106E+03  0.00000000000E+00 0.  1.
         23    2    1    2    0    0 -0.12042935256E+04  0.10293536630E+03  0.23428062337E+04  0.26377892643E+04  0.90953662768E+02 0.  0.
         13    1    3    3    0    0 -0.55165504693E+03  0.59710371822E+01  0.10252218071E+04  0.11642330943E+04  0.00000000000E+00 0. -1.
        -13    1    3    3    0    0 -0.65263847865E+03  0.96964329121E+02  0.13175844266E+04  0.14735561700E+04  0.00000000000E+00 0.  1.
         22    1    1    2    0    0  0.12042935256E+04 -0.10293536630E+03 -0.98457922087E+02  0.12126881494E+04  0.00000000000E+00 0.  1.
<mgrwt>
<rscale>  0 0.31287501E+04</rscale>
<asrwt>0</asrwt>
<pdfrwt beam="1">  1        2 0.46883274E+00 0.31287501E+04</pdfrwt>
<pdfrwt beam="2">  1       -2 0.12354839E+00 0.31287501E+04</pdfrwt>
<totfact> 0.67925062E-01</totfact>
</mgrwt>
</event>
<event>
 6    1  0.2238133E-007  0.2907417E+04  0.7818608E-02  0.8270674E-01
          2   -1    0    0  501    0  0.00000000000E+00  0.00000000000E+00  0.32205089884E+04  0.32205089884E+04  0.00000000000E+00 0. -1.
         -2   -1    0    0    0  501 -0.00000000000E+00 -0.00000000000E+00 -0.65619071417E+03  0.65619071417E+03  0.00000000000E+00 0.  1.
         23    2    1    2    0    0 -0.47918714022E+03 -0.12346980529E+04  0.20779396983E+04  0.24657908763E+04  0.90507782362E+02 0.  0.
         13    1    3    3    0    0 -0.20536339667E+03 -0.41178135415E+03  0.70706835109E+03  0.84361345498E+03  0.00000000000E+00 0. -1.
        -13    1    3    3    0    0 -0.27382374355E+03 -0.82291669871E+03  0.13708713472E+04  0.16221774213E+04  0.00000000000E+00 0.  1.
         22    1    1    2    0    0  0.47918714022E+03  0.12346980529E+04  0.48637857596E+03  0.14109088263E+04  0.00000000000E+00 0.  1.
<mgrwt>
<rscale>  0 0.29074168E+04</rscale>
<asrwt>0</asrwt>
<pdfrwt beam="1">  1        2 0.49546291E+00 0.29074168E+04</pdfrwt>
<pdfrwt beam="2">  1       -2 0.10095242E+00 0.29074168E+04</pdfrwt>
<totfact> 0.87529926E-01</totfact>
</mgrwt>
</event>
<event>
 6    1  0.2238133E-007  0.3504463E+04  0.7818608E-02  0.8112733E-01
          2   -1    0    0  501    0  0.00000000000E+00  0.00000000000E+00  0.27342083560E+04  0.27342083560E+04  0.00000000000E+00 0. -1.
         -2   -1    0    0    0  501 -0.00000000000E+00 -0.00000000000E+00 -0.11229267401E+04  0.11229267401E+04  0.00000000000E+00 0.  1.
         23    2    1    2    0    0 -0.17037557868E+04 -0.39496391630E+03  0.89983543179E+03  0.19690312989E+04  0.92737131417E+02 0.  0.
         13    1    3    3    0    0 -0.10381658324E+04 -0.25877392505E+03  0.59691563677E+03  0.12251777492E+04  0.00000000000E+00 0.  1.
        -13    1    3    3    0    0 -0.66558995443E+03 -0.13618999125E+03  0.30291979501E+03  0.74385354967E+03  0.00000000000E+00 0. -1.
         22    1    1    2    0    0  0.17037557868E+04  0.39496391630E+03  0.71144618412E+03  0.18881037972E+04  0.00000000000E+00 0.  1.
<mgrwt>
<rscale>  0 0.35044633E+04</rscale>
<asrwt>0</asrwt>
<pdfrwt beam="1">  1        2 0.42064744E+00 0.35044633E+04</pdfrwt>
<pdfrwt beam="2">  1       -2 0.17275796E+00 0.35044633E+04</pdfrwt>
<totfact> 0.42385907E-01</totfact>
</mgrwt>
</event>
<event>
 6    1  0.2238133E-007  0.1288695E+04  0.7818608E-02  0.9038578E-01
          3   -1    0    0  501    0  0.00000000000E+00  0.00000000000E+00  0.88683524113E+03  0.88683524113E+03  0.00000000000E+00 0. -1.
         -3   -1    0    0    0  501 -0.00000000000E+00 -0.00000000000E+00 -0.46816363094E+03  0.46816363094E+03  0.00000000000E+00 0.  1.
         23    2    1    2    0    0  0.17345528246E+03 -0.34893159716E+03 -0.32488612674E+03  0.51552397509E+03  0.91509447785E+02 0.  0.
         11    1    3    3    0    0  0.14212149267E+03 -0.19420008753E+03 -0.21941759029E+03  0.32566281888E+03  0.00000000000E+00 0.  1.
        -11    1    3    3    0    0  0.31333789798E+02 -0.15473150963E+03 -0.10546853645E+03  0.18986115621E+03  0.00000000000E+00 0. -1.
         22    1    1    2    0    0 -0.17345528246E+03  0.34893159716E+03  0.74355773692E+03  0.83947489698E+03  0.00000000000E+00 0. -1.
<mgrwt>
<rscale>  0 0.12886955E+04</rscale>
<asrwt>0</asrwt>
<pdfrwt beam="1">  1        3 0.13643619E+00 0.12886955E+04</pdfrwt>
<pdfrwt beam="2">  1       -3 0.72025174E-01 0.12886955E+04</pdfrwt>
<totfact> 0.19436631E+00</totfact>
</mgrwt>
</event>
<event>
 6    1  0.2238133E-007  0.2489599E+04  0.7818608E-02  0.8406700E-01
         -2   -1    0    0    0  501 -0.00000000000E+00  0.00000000000E+00  0.63968629373E+03  0.63968629373E+03  0.00000000000E+00 0.  1.
          2   -1    0    0  501    0  0.00000000000E+00 -0.00000000000E+00 -0.24223214186E+04  0.24223214186E+04  0.00000000000E+00 0. -1.
         23    2    1    2    0    0  0.78773892564E+03 -0.87114164655E+03 -0.13938643004E+04  0.18248484108E+04  0.88281659336E+02 0.  0.
         13    1    3    3    0    0  0.25511506764E+03 -0.28022847768E+03 -0.51507165207E+03  0.63946110453E+03  0.00000000000E+00 0. -1.
        -13    1    3    3    0    0  0.53262385800E+03 -0.59091316887E+03 -0.87879264830E+03  0.11853873063E+04  0.00000000000E+00 0.  1.
         22    1    1    2    0    0 -0.78773892564E+03  0.87114164655E+03 -0.38877082452E+03  0.12371593015E+04  0.00000000000E+00 0.  1.
<mgrwt>
<rscale>  0 0.24895990E+04</rscale>
<asrwt>0</asrwt>
<pdfrwt beam="1">  1        2 0.37266483E+00 0.24895990E+04</pdfrwt>
<pdfrwt beam="2">  1       -2 0.98413276E-01 0.24895990E+04</pdfrwt>
<totfact> 0.29551978E+00</totfact>
</mgrwt>
</event>
<event>
 6    1  0.2238133E-007  0.5875343E+04  0.7818608E-02  0.7706053E-01
          2   -1    0    0  501    0  0.00000000000E+00  0.00000000000E+00  0.52294386454E+04  0.52294386454E+04  0.00000000000E+00 0. -1.
         -2   -1    0    0    0  501 -0.00000000000E+00 -0.00000000000E+00 -0.16502559828E+04  0.16502559828E+04  0.00000000000E+00 0.  1.
         23    2    1    2    0    0 -0.16354496724E+04  0.21566994629E+04  0.31249328489E+04  0.41351744338E+04  0.91728315598E+02 0.  0.
         11    1    3    3    0    0 -0.14424235594E+04  0.19223948064E+04  0.27332571801E+04  0.36396266744E+04  0.00000000000E+00 0.  1.
        -11    1    3    3    0    0 -0.19302611297E+03  0.23430465651E+03  0.39167566882E+03  0.49554775945E+03  0.00000000000E+00 0. -1.
         22    1    1    2    0    0  0.16354496724E+04 -0.21566994629E+04  0.45424981365E+03  0.27445201944E+04  0.00000000000E+00 0.  1.
<mgrwt>
<rscale>  0 0.58753425E+04</rscale>
<asrwt>0</asrwt>
<pdfrwt beam="1">  1        2 0.80452902E+00 0.58753425E+04</pdfrwt>
<pdfrwt beam="2">  1       -2 0.25388554E+00 0.58753425E+04</pdfrwt>
<totfact> 0.67169133E-04</totfact>
</mgrwt>
</event>
<event>
 6    1  0.2238133E-007  0.1932145E+04  0.7818608E-02  0.8639019E-01
          2   -1    0    0  501    0  0.00000000000E+00  0.00000000000E+00  0.12021566677E+04  0.12021566677E+04  0.00000000000E+00 0. -1.
         -2   -1    0    0    0  501 -0.00000000000E+00 -0.00000000000E+00 -0.77635149426E+03  0.77635149426E+03  0.00000000000E+00 0.  1.
         23    2    1    2    0    0  0.77552617216E+03  0.51974586114E+03 -0.32177270537E+02  0.93864061131E+03  0.91837990939E+02 0.  0.
         13    1    3    3    0    0  0.54188154230E+03  0.31254475841E+03 -0.31631368976E+02  0.62635483187E+03  0.00000000000E+00 0. -1.
        -13    1    3    3    0    0  0.23364462986E+03  0.20720110273E+03 -0.54590156177E+00  0.31228577945E+03  0.00000000000E+00 0.  1.
         22    1    1    2    0    0 -0.77552617216E+03 -0.51974586114E+03  0.45798244396E+03  0.10398675506E+04  0.00000000000E+00 0. -1.
<mgrwt>
<rscale>  0 0.19321451E+04</rscale>
<asrwt>0</asrwt>
<pdfrwt beam="1">  1        2 0.18494718E+00 0.19321451E+04</pdfrwt>
<pdfrwt beam="2">  1       -2 0.11943869E+00 0.19321451E+04</pdfrwt>
<totfact> 0.94788625E+00</totfact>
</mgrwt>
</event>
<event>
 6    1  0.2238133E-007  0.3008598E+04  0.7818608E-02  0.8241280E-01
          2   -1    0    0  501    0  0.00000000000E+00  0.00000000000E+00  0.27835557176E+04  0.27835557176E+04  0.00000000000E+00 0. -1.
         -2   -1    0    0    0  501 -0.00000000000E+00 -0.00000000000E+00 -0.81295832383E+03  0.81295832383E+03  0.00000000000E+00 0.  1.
         23    2    1    2    0    0  0.14437755105E+04  0.21704722584E+03  0.56064346973E+03  0.15668423214E+04  0.95270861660E+02 0.  0.
         11    1    3    3    0    0  0.10273282512E+04  0.16517812148E+03  0.35426740089E+03  0.10991781198E+04  0.00000000000E+00 0.  1.
        -11    1    3    3    0    0  0.41644725927E+03  0.51869104362E+02  0.20637606884E+03  0.46766420168E+03  0.00000000000E+00 0. -1.
         22    1    1    2    0    0 -0.14437755105E+04 -0.21704722584E+03  0.14099539240E+04  0.20296717200E+04  0.00000000000E+00 0. -1.
<mgrwt>
<rscale>  0 0.30085975E+04</rscale>
<asrwt>0</asrwt>
<pdfrwt beam="1">  1        2 0.42823934E+00 0.30085975E+04</pdfrwt>
<pdfrwt beam="2">  1       -2 0.12507051E+00 0.30085975E+04</pdfrwt>
<totfact> 0.96861826E-01</totfact>
</mgrwt>
</event>
<event>
 6    1  0.2238133E-007  0.4428175E+04  0.7818608E-02  0.7923333E-01
          2   -1    0    0  501    0  0.00000000000E+00  0.00000000000E+00  0.32688843868E+04  0.32688843868E+04  0.00000000000E+00 0. -1.
         -2   -1    0    0    0  501 -0.00000000000E+00 -0.00000000000E+00 -0.14996500184E+04  0.14996500184E+04  0.00000000000E+00 0.  1.
         23    2    1    2    0    0  0.31330009345E+03 -0.21877807124E+04  0.75985393894E+03  0.23388450741E+04  0.90977347641E+02 0.  0.
         11    1    3    3    0    0  0.19528253649E+03 -0.13387647639E+04  0.41828023905E+03  0.14161160688E+04  0.00000000000E+00 0. -1.
        -11    1    3    3    0    0  0.11801755696E+03 -0.84901594857E+03  0.34157369988E+03  0.92272900525E+03  0.00000000000E+00 0.  1.
         22    1    1    2    0    0 -0.31330009345E+03  0.21877807124E+04  0.10093804295E+04  0.24296893311E+04  0.00000000000E+00 0. -1.
<mgrwt>
<rscale>  0 0.44281746E+04</rscale>
<asrwt>0</asrwt>
<pdfrwt beam="1">  1        2 0.50290529E+00 0.44281746E+04</pdfrwt>
<pdfrwt beam="2">  1       -2 0.23071539E+00 0.44281746E+04</pdfrwt>
<totfact> 0.75253334E-02</totfact>
</mgrwt>
</event>
<event>
 6    1  0.2238133E-007  0.2211538E+04  0.7818608E-02  0.8513641E-01
          2   -1    0    0  501    0  0.00000000000E+00  0.00000000000E+00  0.53972951530E+03  0.53972951530E+03  0.00000000000E+00 0. -1.
         -2   -1    0    0    0  501 -0.00000000000E+00 -0.00000000000E+00 -0.22654401756E+04  0.22654401756E+04  0.00000000000E+00 0.  1.
         23    2    1    2    0    0  0.62689480994E+03 -0.90166588014E+03 -0.10068611525E+04  0.14926366143E+04  0.90532977020E+02 0.  0.
         13    1    3    3    0    0  0.17391694108E+03 -0.23810328999E+03 -0.32542991228E+03  0.43914110136E+03  0.00000000000E+00 0.  1.
        -13    1    3    3    0    0  0.45297786887E+03 -0.66356259016E+03 -0.68143124021E+03  0.10534955130E+04  0.00000000000E+00 0. -1.
         22    1    1    2    0    0 -0.62689480994E+03  0.90166588014E+03 -0.71884950780E+03  0.13125330765E+04  0.00000000000E+00 0. -1.
<mgrwt>
<rscale>  0 0.22115379E+04</rscale>
<asrwt>0</asrwt>
<pdfrwt beam="1">  1        2 0.83035311E-01 0.22115379E+04</pdfrwt>
<pdfrwt beam="2">  1       -2 0.34852925E+00 0.22115379E+04</pdfrwt>
<totfact> 0.81816238E-01</totfact>
</mgrwt>
</event>
<event>
 6    1  0.2238133E-007  0.7863700E+03  0.7818608E-02  0.9579958E-01
         -2   -1    0    0    0  501 -0.00000000000E+00  0.00000000000E+00  0.24590826650E+03  0.24590826650E+03  0.00000000000E+00 0.  1.
          2   -1    0    0  501    0  0.00000000000E+00 -0.00000000000E+00 -0.62866706530E+03  0.62866706530E+03  0.00000000000E+00 0. -1.
         23    2    1    2    0    0  0.14459587713E+03 -0.34249054333E+03 -0.31345305760E+03  0.49640734570E+03  0.99798264454E+02 0.  0.
         13    1    3    3    0    0  0.17750896336E+02 -0.16683108343E+03 -0.14916462524E+03  0.22449452141E+03  0.00000000000E+00 0. -1.
        -13    1    3    3    0    0  0.12684498079E+03 -0.17565945990E+03 -0.16428843236E+03  0.27191282429E+03  0.00000000000E+00 0.  1.
         22    1    1    2    0    0 -0.14459587713E+03  0.34249054333E+03 -0.69305741197E+02  0.37816798611E+03  0.00000000000E+00 0.  1.
<mgrwt>
<rscale>  0 0.78636996E+03</rscale>
<asrwt>0</asrwt>
<pdfrwt beam="1">  1        2 0.96718009E-01 0.78636996E+03</pdfrwt>
<pdfrwt beam="2">  1       -2 0.37832041E-01 0.78636996E+03</pdfrwt>
<totfact> 0.31075862E+02</totfact>
</mgrwt>
</event>
<event>
 6    1  0.2238133E-007  0.1492397E+04  0.7818608E-02  0.8889525E-01
          1   -1    0    0  501    0  0.00000000000E+00  0.00000000000E+00  0.11432808926E+04  0.11432808926E+04  0.00000000000E+00 0. -1.
         -1   -1    0    0    0  501 -0.00000000000E+00 -0.00000000000E+00 -0.48703002332E+03  0.48703002332E+03  0.00000000000E+00 0.  1.
         23    2    1    2    0    0 -0.34450207141E+03 -0.34454307503E+03  0.94284706178E+03  0.10650419664E+04  0.89231163232E+02 0.  0.
         13    1    3    3    0    0 -0.26319695818E+03 -0.24562790501E+03  0.76933181348E+03  0.84939810792E+03  0.00000000000E+00 0. -1.
        -13    1    3    3    0    0 -0.81305113230E+02 -0.98915170024E+02  0.17351524830E+03  0.21564385846E+03  0.00000000000E+00 0.  1.
         22    1    1    2    0    0  0.34450207141E+03  0.34454307503E+03 -0.28659619250E+03  0.56526894954E+03  0.00000000000E+00 0.  1.
<mgrwt>
<rscale>  0 0.14923969E+04</rscale>
<asrwt>0</asrwt>
<pdfrwt beam="1">  1        1 0.17588937E+00 0.14923969E+04</pdfrwt>
<pdfrwt beam="2">  1       -1 0.74927696E-01 0.14923969E+04</pdfrwt>
<totfact> 0.20407026E+01</totfact>
</mgrwt>
</event>
<event>
 6    1  0.2238133E-007  0.2127299E+04  0.7818608E-02  0.8549312E-01
          2   -1    0    0  501    0  0.00000000000E+00  0.00000000000E+00  0.14078062259E+04  0.14078062259E+04  0.00000000000E+00 0. -1.
         -2   -1    0    0    0  501 -0.00000000000E+00 -0.00000000000E+00 -0.80362654069E+03  0.80362654069E+03  0.00000000000E+00 0.  1.
         23    2    1    2    0    0 -0.51697745030E+03  0.19574592478E+03  0.12449065165E+04  0.13651981517E+04  0.91605717591E+02 0.  0.
         11    1    3    3    0    0 -0.20518568734E+03  0.34353944467E+02  0.42061942372E+03  0.46925692259E+03  0.00000000000E+00 0.  1.
        -11    1    3    3    0    0 -0.31179176296E+03  0.16139198031E+03  0.82428709275E+03  0.89594122911E+03  0.00000000000E+00 0. -1.
         22    1    1    2    0    0  0.51697745030E+03 -0.19574592478E+03 -0.64072683124E+03  0.84623461490E+03  0.00000000000E+00 0.  1.
<mgrwt>
<rscale>  0 0.21272992E+04</rscale>
<asrwt>0</asrwt>
<pdfrwt beam="1">  1        2 0.21658557E+00 0.21272992E+04</pdfrwt>
<pdfrwt beam="2">  1       -2 0.12363485E+00 0.21272992E+04</pdfrwt>
<totfact> 0.64920708E+00</totfact>
</mgrwt>
</event>
<event>
 6    1  0.2238133E-007  0.2303970E+04  0.7818608E-02  0.8476357E-01
         -2   -1    0    0    0  501 -0.00000000000E+00  0.00000000000E+00  0.49307736866E+03  0.49307736866E+03  0.00000000000E+00 0.  1.
          2   -1    0    0  501    0  0.00000000000E+00 -0.00000000000E+00 -0.26914021261E+04  0.26914021261E+04  0.00000000000E+00 0. -1.
         23    2    1    2    0    0 -0.39687400207E+03  0.82168227435E+03 -0.20686808131E+04  0.22628080317E+04  0.90493912410E+02 0.  0.
         11    1    3    3    0    0 -0.23063729528E+03  0.55930979898E+03 -0.13070434183E+04  0.14402720266E+04  0.00000000000E+00 0. -1.
        -11    1    3    3    0    0 -0.16623670678E+03  0.26237247537E+03 -0.76163739480E+03  0.82253600509E+03  0.00000000000E+00 0.  1.
         22    1    1    2    0    0  0.39687400207E+03 -0.82168227435E+03 -0.12964394429E+03  0.92167146304E+03  0.00000000000E+00 0.  1.
<mgrwt>
<rscale>  0 0.23039700E+04</rscale>
<asrwt>0</asrwt>
<pdfrwt beam="1">  1        2 0.41406186E+00 0.23039700E+04</pdfrwt>
<pdfrwt beam="2">  1       -2 0.75858057E-01 0.23039700E+04</pdfrwt>
<totfact> 0.37923105E+00</totfact>
</mgrwt>
</event>
<event>
 6    1  0.2238133E-007  0.4571557E+04  0.7818608E-02  0.7898228E-01
         -2   -1    0    0    0  501 -0.00000000000E+00  0.00000000000E+00  0.20057888196E+04  0.20057888196E+04  0.00000000000E+00 0.  1.
          2   -1    0    0  501    0  0.00000000000E+00 -0.00000000000E+00 -0.26048525634E+04  0.26048525634E+04  0.00000000000E+00 0. -1.
         23    2    1    2    0    0 -0.93147292218E+03 -0.14120353993E+04 -0.18486240455E+04  0.25075753542E+04  0.95065881858E+02 0.  0.
         13    1    3    3    0    0 -0.37577125730E+03 -0.61221782521E+03 -0.72477871777E+03  0.10204503384E+04  0.00000000000E+00 0. -1.
        -13    1    3    3    0    0 -0.55570166488E+03 -0.79981757413E+03 -0.11238453277E+04  0.14871250159E+04  0.00000000000E+00 0.  1.
         22    1    1    2    0    0  0.93147292218E+03  0.14120353993E+04  0.12495603017E+04  0.21030660287E+04  0.00000000000E+00 0.  1.
<mgrwt>
<rscale>  0 0.45715573E+04</rscale>
<asrwt>0</asrwt>
<pdfrwt beam="1">  1        2 0.40074655E+00 0.45715573E+04</pdfrwt>
<pdfrwt beam="2">  1       -2 0.30858290E+00 0.45715573E+04</pdfrwt>
<totfact> 0.64121658E-02</totfact>
</mgrwt>
</event>
<event>
 6    1  0.2238133E-007  0.3798192E+04  0.7818608E-02  0.8046543E-01
          2   -1    0    0  501    0  0.00000000000E+00  0.00000000000E+00  0.29767316788E+04  0.29767316788E+04  0.00000000000E+00 0. -1.
         -2   -1    0    0    0  501 -0.00000000000E+00 -0.00000000000E+00 -0.12115857122E+04  0.12115857122E+04  0.00000000000E+00 0.  1.
         23    2    1    2    0    0 -0.13349661938E+04 -0.51654573522E+03 -0.49160904889E+03  0.15158845229E+04  0.85277163277E+02 0.  0.
         11    1    3    3    0    0 -0.23376027644E+03 -0.62873431557E+02 -0.63223881366E+02  0.25018831790E+03  0.00000000000E+00 0. -1.
        -11    1    3    3    0    0 -0.11012059174E+04 -0.45367230367E+03 -0.42838516753E+03  0.12656962050E+04  0.00000000000E+00 0.  1.
         22    1    1    2    0    0  0.13349661938E+04  0.51654573522E+03  0.22567550155E+04  0.26724328682E+04  0.00000000000E+00 0. -1.
<mgrwt>
<rscale>  0 0.37981920E+04</rscale>
<asrwt>0</asrwt>
<pdfrwt beam="1">  1        2 0.45795872E+00 0.37981920E+04</pdfrwt>
<pdfrwt beam="2">  1       -2 0.18639780E+00 0.37981920E+04</pdfrwt>
<totfact> 0.23655047E-01</totfact>
</mgrwt>
</event>
<event>
 6    1  0.2238133E-007  0.3582482E+04  0.7818608E-02  0.8094516E-01
          2   -1    0    0  501    0  0.00000000000E+00  0.00000000000E+00  0.22039400273E+04  0.22039400273E+04  0.00000000000E+00 0. -1.
         -2   -1    0    0    0  501 -0.00000000000E+00 -0.00000000000E+00 -0.14558223748E+04  0.14558223748E+04  0.00000000000E+00 0.  1.
         23    2    1    2    0    0  0.48259267347E+03 -0.15181552565E+04 -0.45992616926E+03  0.16604973004E+04  0.89599845572E+02 0.  0.
         13    1    3    3    0    0  0.33734964873E+03 -0.10216500893E+04 -0.26850571689E+03  0.11089044190E+04  0.00000000000E+00 0. -1.
        -13    1    3    3    0    0  0.14524302474E+03 -0.49650516716E+03 -0.19142045237E+03  0.55159288142E+03  0.00000000000E+00 0.  1.
         22    1    1    2    0    0 -0.48259267347E+03  0.15181552565E+04  0.12080438218E+04  0.19992651017E+04  0.00000000000E+00 0.  1.
<mgrwt>
<rscale>  0 0.35824825E+04</rscale>
<asrwt>0</asrwt>
<pdfrwt beam="1">  1        2 0.33906770E+00 0.35824825E+04</pdfrwt>
<pdfrwt beam="2">  1       -2 0.22397267E+00 0.35824825E+04</pdfrwt>
<totfact> 0.39117326E-01</totfact>
</mgrwt>
</event>
<event>
 6    1  0.2238133E-007  0.2751648E+04  0.7818608E-02  0.8318439E-01
          2   -1    0    0  501    0  0.00000000000E+00  0.00000000000E+00  0.12262048031E+04  0.12262048031E+04  0.00000000000E+00 0. -1.
         -2   -1    0    0    0  501 -0.00000000000E+00 -0.00000000000E+00 -0.15436991509E+04  0.15436991509E+04  0.00000000000E+00 0.  1.
         23    2    1    2    0    0  0.38536838306E+03 -0.12342808643E+04 -0.62688822804E+03  0.14403616961E+04  0.98462798189E+02 0.  0.
         11    1    3    3    0    0  0.25317866327E+03 -0.93969019590E+03 -0.45012683160E+03  0.10722552235E+04  0.00000000000E+00 0. -1.
        -11    1    3    3    0    0  0.13218971980E+03 -0.29459066837E+03 -0.17676139645E+03  0.36810647262E+03  0.00000000000E+00 0.  1.
         22    1    1    2    0    0 -0.38536838306E+03  0.12342808643E+04  0.30939388022E+03  0.13295422579E+04  0.00000000000E+00 0. -1.
<mgrwt>
<rscale>  0 0.27516477E+04</rscale>
<asrwt>0</asrwt>
<pdfrwt beam="1">  1        2 0.18864689E+00 0.27516477E+04</pdfrwt>
<pdfrwt beam="2">  1       -2 0.23749218E+00 0.27516477E+04</pdfrwt>
<totfact> 0.12254923E+00</totfact>
</mgrwt>
</event>
<event>
 6    1  0.2238133E-007  0.1875954E+04  0.7818608E-02  0.8666919E-01
         -2   -1    0    0    0  501 -0.00000000000E+00  0.00000000000E+00  0.42461682658E+03  0.42461682658E+03  0.00000000000E+00 0.  1.
          2   -1    0    0  501    0  0.00000000000E+00 -0.00000000000E+00 -0.20719868374E+04  0.20719868374E+04  0.00000000000E+00 0. -1.
         23    2    1    2    0    0  0.16022099474E+03 -0.85887206625E+03 -0.38117660848E+03  0.95823513678E+03  0.97913110307E+02 0.  0.
         13    1    3    3    0    0  0.72529291322E+02 -0.51572293135E+03 -0.18069986077E+03  0.55125591127E+03  0.00000000000E+00 0. -1.
        -13    1    3    3    0    0  0.87691703421E+02 -0.34314913489E+03 -0.20047674771E+03  0.40697922551E+03  0.00000000000E+00 0.  1.
         22    1    1    2    0    0 -0.16022099474E+03  0.85887206625E+03 -0.12661934023E+04  0.15383685272E+04  0.00000000000E+00 0.  1.
<mgrwt>
<rscale>  0 0.18759536E+04</rscale>
<asrwt>0</asrwt>
<pdfrwt beam="1">  1        2 0.31876721E+00 0.18759536E+04</pdfrwt>
<pdfrwt beam="2">  1       -2 0.65325665E-01 0.18759536E+04</pdfrwt>
<totfact> 0.12345469E+01</totfact>
</mgrwt>
</event>
<event>
 6    1  0.2238133E-007  0.2715986E+04  0.7818608E-02  0.8329837E-01
          2   -1    0    0  501    0  0.00000000000E+00  0.00000000000E+00  0.37081898537E+04  0.37081898537E+04  0.00000000000E+00 0. -1.
         -2   -1    0    0    0  501 -0.00000000000E+00 -0.00000000000E+00 -0.49731659998E+03  0.49731659998E+03  0.00000000000E+00 0.  1.
         23    2    1    2    0    0 -0.88074555330E+03  0.42899778351E+03  0.30599298282E+04  0.32142770425E+04  0.93029695295E+02 0.  0.
         13    1    3    3    0    0 -0.54775231352E+03  0.25781658028E+03  0.20328237320E+04  0.21210549996E+04  0.00000000000E+00 0.  1.
        -13    1    3    3    0    0 -0.33299323978E+03  0.17118120323E+03  0.10271060962E+04  0.10932220428E+04  0.00000000000E+00 0. -1.
         22    1    1    2    0    0  0.88074555330E+03 -0.42899778351E+03  0.15094342549E+03  0.99122941119E+03  0.00000000000E+00 0.  1.
<mgrwt>
<rscale>  0 0.27159855E+04</rscale>
<asrwt>0</asrwt>
<pdfrwt beam="1">  1        2 0.57049073E+00 0.27159855E+04</pdfrwt>
<pdfrwt beam="2">  1       -2 0.76510249E-01 0.27159855E+04</pdfrwt>
<totfact> 0.77079824E-01</totfact>
</mgrwt>
</event>
<event>
 6    1  0.2238133E-007  0.3770517E+04  0.7818608E-02  0.8052512E-01
         -2   -1    0    0    0  501 -0.00000000000E+00  0.00000000000E+00  0.15258302815E+04  0.15258302815E+04  0.00000000000E+00 0.  1.
          2   -1    0    0  501    0  0.00000000000E+00 -0.00000000000E+00 -0.23293544506E+04  0.23293544506E+04  0.00000000000E+00 0. -1.
         23    2    1    2    0    0 -0.11345339901E+04  0.48842948607E+03  0.10527824873E+04  0.16254750783E+04  0.89930680217E+02 0.  0.
         13    1    3    3    0    0 -0.27984880966E+03  0.16091200205E+03  0.25714896888E+03  0.41271493899E+03  0.00000000000E+00 0.  1.
        -13    1    3    3    0    0 -0.85468518043E+03  0.32751748402E+03  0.79563351839E+03  0.12127601393E+04  0.00000000000E+00 0. -1.
         22    1    1    2    0    0  0.11345339901E+04 -0.48842948607E+03 -0.18563066564E+04  0.22297096538E+04  0.00000000000E+00 0. -1.
<mgrwt>
<rscale>  0 0.37705170E+04</rscale>
<asrwt>0</asrwt>
<pdfrwt beam="1">  1        2 0.35836222E+00 0.37705170E+04</pdfrwt>
<pdfrwt beam="2">  1       -2 0.23474312E+00 0.37705170E+04</pdfrwt>
<totfact> 0.28004286E-01</totfact>
</mgrwt>
</event>
<event>
 6    1  0.2238133E-007  0.2289974E+04  0.7818608E-02  0.8481885E-01
          1   -1    0    0  501    0  0.00000000000E+00  0.00000000000E+00  0.16118250178E+04  0.16118250178E+04  0.00000000000E+00 0. -1.
         -1   -1    0    0    0  501 -0.00000000000E+00 -0.00000000000E+00 -0.81336104804E+03  0.81336104804E+03  0.00000000000E+00 0.  1.
         23    2    1    2    0    0  0.71959000230E+03  0.83207169158E+03  0.72921534466E+03  0.13229390684E+04  0.90882828198E+02 0.  0.
         11    1    3    3    0    0  0.20914422117E+03  0.25964988773E+03  0.17375141413E+03  0.37596399211E+03  0.00000000000E+00 0.  1.
        -11    1    3    3    0    0  0.51044578113E+03  0.57242180385E+03  0.55546393053E+03  0.94697507629E+03  0.00000000000E+00 0. -1.
         22    1    1    2    0    0 -0.71959000230E+03 -0.83207169158E+03  0.69248625122E+02  0.11022469975E+04  0.00000000000E+00 0.  1.
<mgrwt>
<rscale>  0 0.22899744E+04</rscale>
<asrwt>0</asrwt>
<pdfrwt beam="1">  1        1 0.24797308E+00 0.22899744E+04</pdfrwt>
<pdfrwt beam="2">  1       -1 0.12513247E+00 0.22899744E+04</pdfrwt>
<totfact> 0.27653374E+00</totfact>
</mgrwt>
</event>
<event>
 6    1  0.2238133E-007  0.1459333E+04  0.7818608E-02  0.8911955E-01
          2   -1    0    0  501    0  0.00000000000E+00  0.00000000000E+00  0.20992983259E+04  0.20992983259E+04  0.00000000000E+00 0. -1.
         -2   -1    0    0    0  501 -0.00000000000E+00 -0.00000000000E+00 -0.25361496920E+03  0.25361496920E+03  0.00000000000E+00 0.  1.
         23    2    1    2    0    0  0.62936736250E+03  0.21443655861E+03  0.13997264656E+04  0.15523111071E+04  0.91374395828E+02 0.  0.
         11    1    3    3    0    0  0.28003401853E+03  0.11565616418E+03  0.73317869678E+03  0.79331355797E+03  0.00000000000E+00 0.  1.
        -11    1    3    3    0    0  0.34933334397E+03  0.98780394428E+02  0.66654776882E+03  0.75899754918E+03  0.00000000000E+00 0. -1.
         22    1    1    2    0    0 -0.62936736250E+03 -0.21443655861E+03  0.44595689114E+03  0.80060218798E+03  0.00000000000E+00 0.  1.
<mgrwt>
<rscale>  0 0.14593334E+04</rscale>
<asrwt>0</asrwt>
<pdfrwt beam="1">  1        2 0.32296896E+00 0.14593334E+04</pdfrwt>
<pdfrwt beam="2">  1       -2 0.39017689E-01 0.14593334E+04</pdfrwt>
<totfact> 0.35417568E+01</totfact>
</mgrwt>
</event>
<event>
 6    1  0.2238133E-007  0.3038325E+04  0.7818608E-02  0.8232871E-01
         -2   -1    0    0    0  501 -0.00000000000E+00  0.00000000000E+00  0.18013939926E+04  0.18013939926E+04  0.00000000000E+00 0.  1.
          2   -1    0    0  501    0  0.00000000000E+00 -0.00000000000E+00 -0.12811496072E+04  0.12811496072E+04  0.00000000000E+00 0. -1.
         23    2    1    2    0    0 -0.57562682963E+03 -0.43822530823E+03 -0.10932402847E+04  0.13142900975E+04  0.93789512523E+02 0.  0.
         13    1    3    3    0    0 -0.35987613513E+03 -0.25051397225E+03 -0.73556074401E+03  0.85633970541E+03  0.00000000000E+00 0. -1.
        -13    1    3    3    0    0 -0.21575069450E+03 -0.18771133598E+03 -0.35767954067E+03  0.45795039213E+03  0.00000000000E+00 0.  1.
         22    1    1    2    0    0  0.57562682963E+03  0.43822530823E+03  0.16134846701E+04  0.17682535023E+04  0.00000000000E+00 0.  1.
<mgrwt>
<rscale>  0 0.30383253E+04</rscale>
<asrwt>0</asrwt>
<pdfrwt beam="1">  1        2 0.19709994E+00 0.30383253E+04</pdfrwt>
<pdfrwt beam="2">  1       -2 0.27713754E+00 0.30383253E+04</pdfrwt>
<totfact> 0.63433091E-01</totfact>
</mgrwt>
</event>
<event>
 6    1  0.2238133E-007  0.2279736E+04  0.7818608E-02  0.8485954E-01
         -2   -1    0    0    0  501 -0.00000000000E+00  0.00000000000E+00  0.72784410415E+03  0.72784410415E+03  0.00000000000E+00 0.  1.
          2   -1    0    0  501    0  0.00000000000E+00 -0.00000000000E+00 -0.17851335458E+04  0.17851335458E+04  0.00000000000E+00 0. -1.
         23    2    1    2    0    0 -0.18196011381E+03 -0.95589811716E+03  0.12093358372E+03  0.98488727600E+03  0.92343496534E+02 0.  0.
         11    1    3    3    0    0 -0.16427930309E+03 -0.80018861271E+03  0.68960753729E+02  0.81978356345E+03  0.00000000000E+00 0. -1.
        -11    1    3    3    0    0 -0.17680810720E+02 -0.15570950445E+03  0.51972829993E+02  0.16510371256E+03  0.00000000000E+00 0.  1.
         22    1    1    2    0    0  0.18196011381E+03  0.95589811716E+03 -0.11782230253E+04  0.15280903739E+04  0.00000000000E+00 0. -1.
<mgrwt>
<rscale>  0 0.22797359E+04</rscale>
<asrwt>0</asrwt>
<pdfrwt beam="1">  1        2 0.27463592E+00 0.22797359E+04</pdfrwt>
<pdfrwt beam="2">  1       -2 0.11197602E+00 0.22797359E+04</pdfrwt>
<totfact> 0.50254409E+00</totfact>
</mgrwt>
</event>
<event>
 6    1  0.2238133E-007  0.4751206E+04  0.7818608E-02  0.7868076E-01
          2   -1    0    0  501    0  0.00000000000E+00  0.00000000000E+00  0.21700553285E+04  0.21700553285E+04  0.00000000000E+00 0. -1.
         -2   -1    0    0    0  501 -0.00000000000E+00 -0.00000000000E+00 -0.26006206925E+04  0.26006206925E+04  0.00000000000E+00 0.  1.
         23    2    1    2    0    0  0.16988773891E+04 -0.16308592902E+04 -0.52311387430E+03  0.24138876058E+04  0.85550220455E+02 0.  0.
         13    1    3    3    0    0  0.96111843469E+03 -0.98013719621E+03 -0.31261477086E+03  0.14078869144E+04  0.00000000000E+00 0.  1.
        -13    1    3    3    0    0  0.73775895442E+03 -0.65072209394E+03 -0.21049910344E+03  0.10060006913E+04  0.00000000000E+00 0. -1.
         22    1    1    2    0    0 -0.16988773891E+04  0.16308592902E+04  0.92548510347E+02  0.23567884153E+04  0.00000000000E+00 0. -1.
<mgrwt>
<rscale>  0 0.47512065E+04</rscale>
<asrwt>0</asrwt>
<pdfrwt beam="1">  1        2 0.33385467E+00 0.47512065E+04</pdfrwt>
<pdfrwt beam="2">  1       -2 0.40009549E+00 0.47512065E+04</pdfrwt>
<totfact> 0.29555386E-02</totfact>
</mgrwt>
</event>
<event>
 6    1  0.2238133E-007  0.4148605E+04  0.7818608E-02  0.7975221E-01
          2   -1    0    0  501    0  0.00000000000E+00  0.00000000000E+00  0.27184643634E+04  0.27184643634E+04  0.00000000000E+00 0. -1.
         -2   -1    0    0    0  501 -0.00000000000E+00 -0.00000000000E+00 -0.15827802828E+04  0.15827802828E+04  0.00000000000E+00 0.  1.
         23    2    1    2    0    0 -0.61644799204E+03 -0.17988052886E+04 -0.28868726631E+03  0.19254200889E+04  0.90518438345E+02 0.  0.
         11    1    3    3    0    0 -0.27660978977E+03 -0.94126311626E+03 -0.16142859148E+03  0.99425772312E+03  0.00000000000E+00 0.  1.
        -11    1    3    3    0    0 -0.33983820227E+03 -0.85754217236E+03 -0.12725867483E+03  0.93116236576E+03  0.00000000000E+00 0. -1.
         22    1    1    2    0    0  0.61644799204E+03  0.17988052886E+04  0.14243713469E+04  0.23758245573E+04  0.00000000000E+00 0. -1.
<mgrwt>
<rscale>  0 0.41486054E+04</rscale>
<asrwt>0</asrwt>
<pdfrwt beam="1">  1        2 0.41822529E+00 0.41486054E+04</pdfrwt>
<pdfrwt beam="2">  1       -2 0.24350466E+00 0.41486054E+04</pdfrwt>
<totfact> 0.14218702E-01</totfact>
</mgrwt>
</event>
<event>
 6    1  0.2238133E-007  0.3349851E+04  0.7818608E-02  0.8150325E-01
         -2   -1    0    0    0  501 -0.00000000000E+00  0.00000000000E+00  0.13366827452E+04  0.13366827452E+04  0.00000000000E+00 0.  1.
          2   -1    0    0  501    0  0.00000000000E+00 -0.00000000000E+00 -0.20987593155E+04  0.20987593155E+04  0.00000000000E+00 0. -1.
         23    2    1    2    0    0 -0.47421809733E+03 -0.77995398970E+03  0.10574192773E+04  0.13998153343E+04  0.90202062897E+02 0.  0.
         11    1    3    3    0    0 -0.23775060767E+03 -0.34304830626E+03  0.54013776019E+03  0.68260991193E+03  0.00000000000E+00 0. -1.
        -11    1    3    3    0    0 -0.23646748966E+03 -0.43690568344E+03  0.51728151709E+03  0.71720542233E+03  0.00000000000E+00 0.  1.
         22    1    1    2    0    0  0.47421809733E+03  0.77995398970E+03 -0.18194958476E+04  0.20356267264E+04  0.00000000000E+00 0. -1.
<mgrwt>
<rscale>  0 0.33498510E+04</rscale>
<asrwt>0</asrwt>
<pdfrwt beam="1">  1        2 0.32288605E+00 0.33498510E+04</pdfrwt>
<pdfrwt beam="2">  1       -2 0.20564350E+00 0.33498510E+04</pdfrwt>
<totfact> 0.59815688E-01</totfact>
</mgrwt>
</event>
<event>
 6    1  0.2238133E-007  0.3938053E+04  0.7818608E-02  0.8017161E-01
          2   -1    0    0  501    0  0.00000000000E+00  0.00000000000E+00  0.23786708079E+04  0.23786708079E+04  0.00000000000E+00 0. -1.
         -2   -1    0    0    0  501 -0.00000000000E+00 -0.00000000000E+00 -0.16299297534E+04  0.16299297534E+04  0.00000000000E+00 0.  1.
         23    2    1    2    0    0  0.16126156704E+04  0.96114145016E+03  0.97563711021E+03  0.21176209190E+04  0.90157628358E+02 0.  0.
         11    1    3    3    0    0  0.10620881310E+04  0.61306815778E+03  0.59258250774E+03  0.13619977212E+04  0.00000000000E+00 0. -1.
        -11    1    3    3    0    0  0.55052753943E+03  0.34807329238E+03  0.38305460248E+03  0.75562319777E+03  0.00000000000E+00 0.  1.
         22    1    1    2    0    0 -0.16126156704E+04 -0.96114145016E+03 -0.22689605567E+03  0.18909796423E+04  0.00000000000E+00 0.  1.
<mgrwt>
<rscale>  0 0.39380535E+04</rscale>
<asrwt>0</asrwt>
<pdfrwt beam="1">  1        2 0.36594935E+00 0.39380535E+04</pdfrwt>
<pdfrwt beam="2">  1       -2 0.25075842E+00 0.39380535E+04</pdfrwt>
<totfact> 0.20610853E-01</totfact>
</mgrwt>
</event>
<event>
 6    1  0.2238133E-007  0.2684034E+04  0.7818608E-02  0.8340204E-01
         -2   -1    0    0    0  501 -0.00000000000E+00  0.00000000000E+00  0.73714467691E+03  0.73714467691E+03  0.00000000000E+00 0.  1.
          2   -1    0    0  501    0  0.00000000000E+00 -0.00000000000E+00 -0.24432245554E+04  0.24432245554E+04  0.00000000000E+00 0. -1.
         23    2    1    2    0    0  0.74215973201E+03  0.75339899943E+03  0.12188895004E+03  0.10685261609E+04  0.92087568338E+02 0.  0.
         11    1    3    3    0    0  0.21342324794E+03  0.20333962730E+03  0.74677097886E+02  0.30409399162E+03  0.00000000000E+00 0. -1.
        -11    1    3    3    0    0  0.52873648407E+03  0.55005937213E+03  0.47211852152E+02  0.76443216928E+03  0.00000000000E+00 0.  1.
         22    1    1    2    0    0 -0.74215973201E+03 -0.75339899943E+03 -0.18279688285E+04  0.21118430714E+04  0.00000000000E+00 0. -1.
<mgrwt>
<rscale>  0 0.26840343E+04</rscale>
<asrwt>0</asrwt>
<pdfrwt beam="1">  1        2 0.37588070E+00 0.26840343E+04</pdfrwt>
<pdfrwt beam="2">  1       -2 0.11340687E+00 0.26840343E+04</pdfrwt>
<totfact> 0.20116030E+00</totfact>
</mgrwt>
</event>
<event>
 6    1  0.2238133E-007  0.6496355E+03  0.7818608E-02  0.9807463E-01
          2   -1    0    0  501    0  0.00000000000E+00  0.00000000000E+00  0.13831344704E+04  0.13831344704E+04  0.00000000000E+00 0. -1.
         -2   -1    0    0    0  501 -0.00000000000E+00 -0.00000000000E+00 -0.76280775245E+02  0.76280775245E+02  0.00000000000E+00 0.  1.
         23    2    1    2    0    0 -0.24662865006E+03 -0.44789979028E+02  0.21935221490E+03  0.34339942909E+03  0.83522095667E+02 0.  0.
         13    1    3    3    0    0 -0.31331984468E+02  0.74818263217E+01  0.84557000951E+00  0.32223996717E+02  0.00000000000E+00 0.  1.
        -13    1    3    3    0    0 -0.21529666559E+03 -0.52271805350E+02  0.21850664489E+03  0.31117543237E+03  0.00000000000E+00 0. -1.
         22    1    1    2    0    0  0.24662865006E+03  0.44789979028E+02  0.10875014803E+04  0.11160158166E+04  0.00000000000E+00 0. -1.
<mgrwt>
<rscale>  0 0.64963550E+03</rscale>
<asrwt>0</asrwt>
<pdfrwt beam="1">  1        2 0.21278990E+00 0.64963550E+03</pdfrwt>
<pdfrwt beam="2">  1       -2 0.11735505E-01 0.64963550E+03</pdfrwt>
<totfact> 0.79261931E+02</totfact>
</mgrwt>
</event>
<event>
 6    1  0.2238133E-007  0.3530360E+04  0.7818608E-02  0.8106632E-01
         -2   -1    0    0    0  501 -0.00000000000E+00  0.00000000000E+00  0.95404086331E+03  0.95404086331E+03  0.00000000000E+00 0.  1.
          2   -1    0    0  501    0  0.00000000000E+00 -0.00000000000E+00 -0.32659615384E+04  0.32659615384E+04  0.00000000000E+00 0. -1.
         23    2    1    2    0    0  0.79802785322E+03  0.29508419300E+03 -0.30038691471E+04  0.31233183891E+04  0.89245566082E+02 0.  0.
         13    1    3    3    0    0  0.39172491680E+03  0.10050342489E+03 -0.14794523237E+04  0.15337302654E+04  0.00000000000E+00 0. -1.
        -13    1    3    3    0    0  0.40630293642E+03  0.19458076811E+03 -0.15244168234E+04  0.15895881237E+04  0.00000000000E+00 0.  1.
         22    1    1    2    0    0 -0.79802785322E+03 -0.29508419300E+03  0.69194847207E+03  0.10966840126E+04  0.00000000000E+00 0.  1.
<mgrwt>
<rscale>  0 0.35303602E+04</rscale>
<asrwt>0</asrwt>
<pdfrwt beam="1">  1        2 0.50245562E+00 0.35303602E+04</pdfrwt>
<pdfrwt beam="2">  1       -2 0.14677552E+00 0.35303602E+04</pdfrwt>
<totfact> 0.30488678E-01</totfact>
</mgrwt>
</event>
<event>
 6    1  0.2238133E-007  0.3948510E+04  0.7818608E-02  0.8015015E-01
         -2   -1    0    0    0  501 -0.00000000000E+00  0.00000000000E+00  0.15014593729E+04  0.15014593729E+04  0.00000000000E+00 0.  1.
          2   -1    0    0  501    0  0.00000000000E+00 -0.00000000000E+00 -0.25959293838E+04  0.25959293838E+04  0.00000000000E+00 0. -1.
         23    2    1    2    0    0 -0.13893864730E+04 -0.13532091048E+04 -0.17379576299E+03  0.19504815105E+04  0.11226532380E+03 0.  0.
         13    1    3    3    0    0 -0.92900640307E+03 -0.93572082816E+03 -0.16571019466E+03  0.13289417722E+04  0.00000000000E+00 0. -1.
        -13    1    3    3    0    0 -0.46038006993E+03 -0.41748827668E+03 -0.80855683280E+01  0.62153973837E+03  0.00000000000E+00 0.  1.
         22    1    1    2    0    0  0.13893864730E+04  0.13532091048E+04 -0.92067424790E+03  0.21469072461E+04  0.00000000000E+00 0.  1.
<mgrwt>
<rscale>  0 0.39485098E+04</rscale>
<asrwt>0</asrwt>
<pdfrwt beam="1">  1        2 0.39937375E+00 0.39485098E+04</pdfrwt>
<pdfrwt beam="2">  1       -2 0.23099375E+00 0.39485098E+04</pdfrwt>
<totfact> 0.20429127E-01</totfact>
</mgrwt>
</event>
<event>
 6    1  0.2238133E-007  0.6904754E+03  0.7818608E-02  0.9733661E-01
         -2   -1    0    0    0  501 -0.00000000000E+00  0.00000000000E+00  0.21034870243E+03  0.21034870243E+03  0.00000000000E+00 0.  1.
          2   -1    0    0  501    0  0.00000000000E+00 -0.00000000000E+00 -0.56662617079E+03  0.56662617079E+03  0.00000000000E+00 0. -1.
         23    2    1    2    0    0  0.14351457032E+03  0.21523042044E+03  0.66565020450E+02  0.28127704579E+03  0.88120989365E+02 0.  0.
         13    1    3    3    0    0  0.12975830377E+03  0.13842544339E+03  0.72293614984E+02  0.20303986688E+03  0.00000000000E+00 0. -1.
        -13    1    3    3    0    0  0.13756266546E+02  0.76804977053E+02 -0.57285945341E+01  0.78237178916E+02  0.00000000000E+00 0.  1.
         22    1    1    2    0    0 -0.14351457032E+03 -0.21523042044E+03 -0.42284248881E+03  0.49569782743E+03  0.00000000000E+00 0. -1.
<mgrwt>
<rscale>  0 0.69047543E+03</rscale>
<asrwt>0</asrwt>
<pdfrwt beam="1">  1        2 0.87173258E-01 0.69047543E+03</pdfrwt>
<pdfrwt beam="2">  1       -2 0.32361338E-01 0.69047543E+03</pdfrwt>
<totfact> 0.47562789E+02</totfact>
</mgrwt>
</event>
<event>
 6    1  0.2238133E-007  0.1278392E+04  0.7818608E-02  0.9046878E-01
         -1   -1    0    0    0  501 -0.00000000000E+00  0.00000000000E+00  0.36073422644E+03  0.36073422644E+03  0.00000000000E+00 0.  1.
          1   -1    0    0  501    0  0.00000000000E+00 -0.00000000000E+00 -0.11326111003E+04  0.11326111003E+04  0.00000000000E+00 0. -1.
         23    2    1    2    0    0  0.56109690062E+03 -0.28866853831E+03 -0.29504667176E+03  0.70244312132E+03  0.90634117631E+02 0.  0.
         11    1    3    3    0    0  0.38571886886E+03 -0.15289324270E+03 -0.17577021011E+03  0.45061131391E+03  0.00000000000E+00 0.  1.
        -11    1    3    3    0    0  0.17537803176E+03 -0.13577529561E+03 -0.11927646165E+03  0.25183180741E+03  0.00000000000E+00 0. -1.
         22    1    1    2    0    0 -0.56109690062E+03  0.28866853831E+03 -0.47683020206E+03  0.79090220539E+03  0.00000000000E+00 0. -1.
<mgrwt>
<rscale>  0 0.12783921E+04</rscale>
<asrwt>0</asrwt>
<pdfrwt beam="1">  1        1 0.17424786E+00 0.12783921E+04</pdfrwt>
<pdfrwt beam="2">  1       -1 0.55497574E-01 0.12783921E+04</pdfrwt>
<totfact> 0.38714652E+01</totfact>
</mgrwt>
</event>
<event>
 6    1  0.2238133E-007  0.1633070E+04  0.7818608E-02  0.8800485E-01
          2   -1    0    0  501    0  0.00000000000E+00  0.00000000000E+00  0.10432225647E+04  0.10432225647E+04  0.00000000000E+00 0. -1.
         -2   -1    0    0    0  501 -0.00000000000E+00 -0.00000000000E+00 -0.63910591928E+03  0.63910591928E+03  0.00000000000E+00 0.  1.
         23    2    1    2    0    0  0.43081926482E+03 -0.66089747953E+03 -0.40514550755E+01  0.79407631502E+03  0.90277696066E+02 0.  0.
         13    1    3    3    0    0  0.28710404347E+03 -0.50477362018E+03  0.16000490884E+02  0.58093128261E+03  0.00000000000E+00 0.  1.
        -13    1    3    3    0    0  0.14371522136E+03 -0.15612385935E+03 -0.20051945960E+02  0.21314503242E+03  0.00000000000E+00 0. -1.
         22    1    1    2    0    0 -0.43081926482E+03  0.66089747953E+03  0.40816810049E+03  0.88825216895E+03  0.00000000000E+00 0.  1.
<mgrwt>
<rscale>  0 0.16330704E+04</rscale>
<asrwt>0</asrwt>
<pdfrwt beam="1">  1        2 0.16049578E+00 0.16330704E+04</pdfrwt>
<pdfrwt beam="2">  1       -2 0.98323987E-01 0.16330704E+04</pdfrwt>
<totfact> 0.19442619E+01</totfact>
</mgrwt>
</event>
<event>
 6    1  0.2238133E-007  0.2261509E+03  0.7818608E-02  0.1129379E+00
         -2   -1    0    0    0  501 -0.00000000000E+00  0.00000000000E+00  0.30298007170E+02  0.30298007170E+02  0.00000000000E+00 0.  1.
          2   -1    0    0  501    0  0.00000000000E+00 -0.00000000000E+00 -0.42200978891E+03  0.42200978891E+03  0.00000000000E+00 0. -1.
         23    2    1    2    0    0  0.83155396691E+02 -0.36993494742E+02 -0.27953640851E+03  0.30785485215E+03  0.91381987582E+02 0.  0.
         11    1    3    3    0    0  0.76819976976E+02  0.13573923407E+02 -0.16930451869E+03  0.18641239312E+03  0.00000000000E+00 0.  1.
        -11    1    3    3    0    0  0.63354197157E+01 -0.50567418149E+02 -0.11023188982E+03  0.12144245903E+03  0.00000000000E+00 0. -1.
         22    1    1    2    0    0 -0.83155396691E+02  0.36993494742E+02 -0.11217537323E+03  0.14445294393E+03  0.00000000000E+00 0.  1.
<mgrwt>
<rscale>  0 0.22615088E+03</rscale>
<asrwt>0</asrwt>
<pdfrwt beam="1">  1        2 0.64924577E-01 0.22615088E+03</pdfrwt>
<pdfrwt beam="2">  1       -2 0.46612323E-02 0.22615088E+03</pdfrwt>
<totfact> 0.16068707E+04</totfact>
</mgrwt>
</event>
<event>
 6    1  0.2238133E-007  0.1711572E+04  0.7818608E-02  0.8754792E-01
         -2   -1    0    0    0  501 -0.00000000000E+00  0.00000000000E+00  0.35343198517E+03  0.35343198517E+03  0.00000000000E+00 0.  1.
          2   -1    0    0  501    0  0.00000000000E+00 -0.00000000000E+00 -0.20721657265E+04  0.20721657265E+04  0.00000000000E+00 0. -1.
         23    2    1    2    0    0 -0.19569550229E+03  0.72054572769E+03 -0.27525366650E+03  0.80044614896E+03  0.86409381187E+02 0.  0.
         13    1    3    3    0    0 -0.61742870462E+02  0.18241130585E+03 -0.11005975756E+03  0.22180896463E+03  0.00000000000E+00 0.  1.
        -13    1    3    3    0    0 -0.13395263183E+03  0.53813442184E+03 -0.16519390894E+03  0.57863718433E+03  0.00000000000E+00 0. -1.
         22    1    1    2    0    0  0.19569550229E+03 -0.72054572769E+03 -0.14434800748E+04  0.16251515627E+04  0.00000000000E+00 0. -1.
<mgrwt>
<rscale>  0 0.17115720E+04</rscale>
<asrwt>0</asrwt>
<pdfrwt beam="1">  1        2 0.31879473E+00 0.17115720E+04</pdfrwt>
<pdfrwt beam="2">  1       -2 0.54374152E-01 0.17115720E+04</pdfrwt>
<totfact> 0.18437664E+01</totfact>
</mgrwt>
</event>
<event>
 6    1  0.2238133E-007  0.1183181E+04  0.7818608E-02  0.9127707E-01
         -2   -1    0    0    0  501 -0.00000000000E+00  0.00000000000E+00  0.55656733315E+03  0.55656733315E+03  0.00000000000E+00 0.  1.
          2   -1    0    0  501    0  0.00000000000E+00 -0.00000000000E+00 -0.62881766110E+03  0.62881766110E+03  0.00000000000E+00 0. -1.
         23    2    1    2    0    0  0.36695673724E+03  0.43492719280E+03 -0.18696103883E+03  0.60488739974E+03  0.84352986227E+02 0.  0.
         13    1    3    3    0    0  0.32282233890E+03  0.33529571018E+03 -0.16426914080E+03  0.49358061791E+03  0.00000000000E+00 0. -1.
        -13    1    3    3    0    0  0.44134398337E+02  0.99631482618E+02 -0.22691898036E+02  0.11130678183E+03  0.00000000000E+00 0.  1.
         22    1    1    2    0    0 -0.36695673724E+03 -0.43492719280E+03  0.11471071089E+03  0.58049759451E+03  0.00000000000E+00 0. -1.
<mgrwt>
<rscale>  0 0.11831811E+04</rscale>
<asrwt>0</asrwt>
<pdfrwt beam="1">  1        2 0.96741179E-01 0.11831811E+04</pdfrwt>
<pdfrwt beam="2">  1       -2 0.85625743E-01 0.11831811E+04</pdfrwt>
<totfact> 0.54849564E+01</totfact>
</mgrwt>
</event>
<event>
 6    1  0.2238133E-007  0.1008818E+04  0.7818608E-02  0.9298926E-01
         -2   -1    0    0    0  501 -0.00000000000E+00  0.00000000000E+00  0.64291485992E+03  0.64291485992E+03  0.00000000000E+00 0.  1.
          2   -1    0    0  501    0  0.00000000000E+00 -0.00000000000E+00 -0.39574193071E+03  0.39574193071E+03  0.00000000000E+00 0. -1.
         23    2    1    2    0    0 -0.37269363013E+03 -0.32862809569E+03  0.64491489953E+02  0.50925195927E+03  0.91002409466E+02 0.  0.
         13    1    3    3    0    0 -0.75829627342E+02 -0.83161043725E+02 -0.21470644850E+02  0.11457259780E+03  0.00000000000E+00 0. -1.
        -13    1    3    3    0    0 -0.29686400278E+03 -0.24546705196E+03  0.85962134803E+02  0.39467936147E+03  0.00000000000E+00 0.  1.
         22    1    1    2    0    0  0.37269363013E+03  0.32862809569E+03  0.18268143926E+03  0.52940483135E+03  0.00000000000E+00 0.  1.
<mgrwt>
<rscale>  0 0.10088179E+04</rscale>
<asrwt>0</asrwt>
<pdfrwt beam="1">  1        2 0.60883374E-01 0.10088179E+04</pdfrwt>
<pdfrwt beam="2">  1       -2 0.98909978E-01 0.10088179E+04</pdfrwt>
<totfact> 0.68107459E+01</totfact>
</mgrwt>
</event>
<event>
 6    1  0.2238133E-007  0.2847284E+04  0.7818608E-02  0.8288737E-01
          2   -1    0    0  501    0  0.00000000000E+00  0.00000000000E+00  0.25452669101E+04  0.25452669101E+04  0.00000000000E+00 0. -1.
         -2   -1    0    0    0  501 -0.00000000000E+00 -0.00000000000E+00 -0.79628428512E+03  0.79628428512E+03  0.00000000000E+00 0.  1.
         23    2    1    2    0    0  0.95358519016E+03  0.96366425885E+03  0.13789952365E+04  0.19362525841E+04  0.97327737516E+02 0.  0.
         13    1    3    3    0    0  0.75892266181E+03  0.72236630269E+03  0.10260417976E+04  0.14664714291E+04  0.00000000000E+00 0.  1.
        -13    1    3    3    0    0  0.19466252834E+03  0.24129795616E+03  0.35295343890E+03  0.46978115503E+03  0.00000000000E+00 0. -1.
         22    1    1    2    0    0 -0.95358519016E+03 -0.96366425885E+03  0.36998738842E+03  0.14052986111E+04  0.00000000000E+00 0.  1.
<mgrwt>
<rscale>  0 0.28472836E+04</rscale>
<asrwt>0</asrwt>
<pdfrwt beam="1">  1        2 0.39157952E+00 0.28472836E+04</pdfrwt>
<pdfrwt beam="2">  1       -2 0.12250528E+00 0.28472836E+04</pdfrwt>
<totfact> 0.14318751E+00</totfact>
</mgrwt>
</event>
<event>
 6    1  0.2238133E-007  0.2816747E+04  0.7818608E-02  0.8298088E-01
         -2   -1    0    0    0  501 -0.00000000000E+00  0.00000000000E+00  0.19681930617E+04  0.19681930617E+04  0.00000000000E+00 0.  1.
          2   -1    0    0  501    0  0.00000000000E+00 -0.00000000000E+00 -0.10077850737E+04  0.10077850737E+04  0.00000000000E+00 0. -1.
         23    2    1    2    0    0 -0.85275813615E+03 -0.71889245651E+03 -0.42529054679E+03  0.11971686368E+04  0.91312063409E+02 0.  0.
         11    1    3    3    0    0 -0.33465044262E+03 -0.24518491034E+03 -0.12191610034E+03  0.43240038683E+03  0.00000000000E+00 0. -1.
        -11    1    3    3    0    0 -0.51810769353E+03 -0.47370754617E+03 -0.30337444645E+03  0.76476824996E+03  0.00000000000E+00 0.  1.
         22    1    1    2    0    0  0.85275813615E+03  0.71889245651E+03  0.13856985348E+04  0.17788094986E+04  0.00000000000E+00 0.  1.
<mgrwt>
<rscale>  0 0.28167468E+04</rscale>
<asrwt>0</asrwt>
<pdfrwt beam="1">  1        2 0.15504386E+00 0.28167468E+04</pdfrwt>
<pdfrwt beam="2">  1       -2 0.30279893E+00 0.28167468E+04</pdfrwt>
<totfact> 0.66107455E-01</totfact>
</mgrwt>
</event>
<event>
 6    1  0.2238133E-007  0.1561247E+04  0.7818608E-02  0.8844715E-01
          2   -1    0    0  501    0  0.00000000000E+00  0.00000000000E+00  0.29446652434E+04  0.29446652434E+04  0.00000000000E+00 0. -1.
         -2   -1    0    0    0  501 -0.00000000000E+00 -0.00000000000E+00 -0.20694144588E+03  0.20694144588E+03  0.00000000000E+00 0.  1.
         23    2    1    2    0    0  0.65039204165E+03  0.41115266501E+03  0.11401300397E+04  0.13783717537E+04  0.89195639810E+02 0.  0.
         13    1    3    3    0    0  0.10795381334E+03  0.35516565933E+02  0.19539037524E+03  0.22603727791E+03  0.00000000000E+00 0. -1.
        -13    1    3    3    0    0  0.54243822832E+03  0.37563609907E+03  0.94473966450E+03  0.11523344758E+04  0.00000000000E+00 0.  1.
         22    1    1    2    0    0 -0.65039204165E+03 -0.41115266501E+03  0.15975937577E+04  0.17732349355E+04  0.00000000000E+00 0. -1.
<mgrwt>
<rscale>  0 0.15612473E+04</rscale>
<asrwt>0</asrwt>
<pdfrwt beam="1">  1        2 0.45302539E+00 0.15612473E+04</pdfrwt>
<pdfrwt beam="2">  1       -2 0.31837148E-01 0.15612473E+04</pdfrwt>
<totfact> 0.16728680E+01</totfact>
</mgrwt>
</event>
<event>
 6    1  0.2238133E-007  0.3206485E+04  0.7818608E-02  0.8187107E-01
          2   -1    0    0  501    0  0.00000000000E+00  0.00000000000E+00  0.32972426977E+04  0.32972426977E+04  0.00000000000E+00 0. -1.
         -2   -1    0    0    0  501 -0.00000000000E+00 -0.00000000000E+00 -0.77955616053E+03  0.77955616053E+03  0.00000000000E+00 0.  1.
         23    2    1    2    0    0  0.12049126663E+04 -0.16043722631E+03 -0.66608557062E+02  0.12209039423E+04  0.92817559719E+02 0.  0.
         11    1    3    3    0    0  0.56739476397E+03 -0.11145216245E+03 -0.18955225843E+01  0.57824043071E+03  0.00000000000E+00 0. -1.
        -11    1    3    3    0    0  0.63751790232E+03 -0.48985063858E+02 -0.64713034477E+02  0.64266351156E+03  0.00000000000E+00 0.  1.
         22    1    1    2    0    0 -0.12049126663E+04  0.16043722631E+03  0.25842950942E+04  0.28558949160E+04  0.00000000000E+00 0. -1.
<mgrwt>
<rscale>  0 0.32064846E+04</rscale>
<asrwt>0</asrwt>
<pdfrwt beam="1">  1        2 0.50726810E+00 0.32064846E+04</pdfrwt>
<pdfrwt beam="2">  1       -2 0.11993172E+00 0.32064846E+04</pdfrwt>
<totfact> 0.50007125E-01</totfact>
</mgrwt>
</event>
<event>
 6    1  0.2238133E-007  0.1355703E+04  0.7818608E-02  0.8986522E-01
          2   -1    0    0  501    0  0.00000000000E+00  0.00000000000E+00  0.64715921635E+03  0.64715921635E+03  0.00000000000E+00 0. -1.
         -2   -1    0    0    0  501 -0.00000000000E+00 -0.00000000000E+00 -0.70999942392E+03  0.70999942392E+03  0.00000000000E+00 0.  1.
         23    2    1    2    0    0 -0.68954072805E+02  0.47143766716E+03 -0.50975737666E+03  0.70390287550E+03  0.92836075452E+02 0.  0.
         11    1    3    3    0    0 -0.52293649837E+02  0.11185560844E+03 -0.10354278600E+03  0.16114407059E+03  0.00000000000E+00 0.  1.
        -11    1    3    3    0    0 -0.16660422968E+02  0.35958205872E+03 -0.40621459066E+03  0.54275880491E+03  0.00000000000E+00 0. -1.
         22    1    1    2    0    0  0.68954072805E+02 -0.47143766716E+03  0.44691716909E+03  0.65325576477E+03  0.00000000000E+00 0. -1.
<mgrwt>
<rscale>  0 0.13557030E+04</rscale>
<asrwt>0</asrwt>
<pdfrwt beam="1">  1        2 0.99562957E-01 0.13557030E+04</pdfrwt>
<pdfrwt beam="2">  1       -2 0.10923068E+00 0.13557030E+04</pdfrwt>
<totfact> 0.29499505E+01</totfact>
</mgrwt>
</event>
<event>
 6    1  0.2238133E-007  0.1013579E+04  0.7818608E-02  0.9293776E-01
          1   -1    0    0  501    0  0.00000000000E+00  0.00000000000E+00  0.65182512254E+03  0.65182512254E+03  0.00000000000E+00 0. -1.
         -1   -1    0    0    0  501 -0.00000000000E+00 -0.00000000000E+00 -0.39402542261E+03  0.39402542261E+03  0.00000000000E+00 0.  1.
         23    2    1    2    0    0 -0.10902085648E+03 -0.47931993274E+03  0.23863112407E+03  0.55391500123E+03  0.90795760563E+02 0.  0.
         13    1    3    3    0    0 -0.35196631111E+02 -0.29170305546E+03  0.10492961551E+03  0.31199310829E+03  0.00000000000E+00 0.  1.
        -13    1    3    3    0    0 -0.73824225365E+02 -0.18761687728E+03  0.13370150857E+03  0.24192189294E+03  0.00000000000E+00 0. -1.
         22    1    1    2    0    0  0.10902085648E+03  0.47931993274E+03  0.19168575855E+02  0.49193554392E+03  0.00000000000E+00 0.  1.
<mgrwt>
<rscale>  0 0.10135791E+04</rscale>
<asrwt>0</asrwt>
<pdfrwt beam="1">  1        1 0.10028079E+00 0.10135791E+04</pdfrwt>
<pdfrwt beam="2">  1       -1 0.60619296E-01 0.10135791E+04</pdfrwt>
<totfact> 0.83868651E+01</totfact>
</mgrwt>
</event>
<event>
 6    1  0.2238133E-007  0.3099613E+04  0.7818608E-02  0.8215844E-01
         -2   -1    0    0    0  501 -0.00000000000E+00  0.00000000000E+00  0.11673701100E+04  0.11673701100E+04  0.00000000000E+00 0.  1.
          2   -1    0    0  501    0  0.00000000000E+00 -0.00000000000E+00 -0.20575304872E+04  0.20575304872E+04  0.00000000000E+00 0. -1.
         23    2    1    2    0    0  0.43683979385E+03  0.51102103368E+03 -0.18967841022E+04  0.20144201860E+04  0.90151278138E+02 0.  0.
         13    1    3    3    0    0  0.35100797250E+03  0.45672844166E+03 -0.16441594047E+04  0.17421445446E+04  0.00000000000E+00 0.  1.
        -13    1    3    3    0    0  0.85831821349E+02  0.54292592025E+02 -0.25262469744E+03  0.27227564133E+03  0.00000000000E+00 0. -1.
         22    1    1    2    0    0 -0.43683979385E+03 -0.51102103368E+03  0.10066237249E+04  0.12104804112E+04  0.00000000000E+00 0.  1.
<mgrwt>
<rscale>  0 0.30996126E+04</rscale>
<asrwt>0</asrwt>
<pdfrwt beam="1">  1        2 0.31654315E+00 0.30996126E+04</pdfrwt>
<pdfrwt beam="2">  1       -2 0.17959540E+00 0.30996126E+04</pdfrwt>
<totfact> 0.96164775E-01</totfact>
</mgrwt>
</event>
<event>
 6    1  0.2238133E-007  0.4217580E+04  0.7818608E-02  0.7962037E-01
         -2   -1    0    0    0  501 -0.00000000000E+00  0.00000000000E+00  0.18301795445E+04  0.18301795445E+04  0.00000000000E+00 0.  1.
          2   -1    0    0  501    0  0.00000000000E+00 -0.00000000000E+00 -0.24298132069E+04  0.24298132069E+04  0.00000000000E+00 0. -1.
         23    2    1    2    0    0  0.62773358216E+03  0.18945110242E+04  0.38496547295E+03  0.20345361851E+04  0.88980907471E+02 0.  0.
         13    1    3    3    0    0  0.17026883782E+03  0.46407127236E+03  0.13121659250E+03  0.51144053135E+03  0.00000000000E+00 0. -1.
        -13    1    3    3    0    0  0.45746474434E+03  0.14304397519E+04  0.25374888045E+03  0.15230956537E+04  0.00000000000E+00 0.  1.
         22    1    1    2    0    0 -0.62773358216E+03 -0.18945110242E+04 -0.98459913530E+03  0.22254565663E+04  0.00000000000E+00 0. -1.
<mgrwt>
<rscale>  0 0.42175796E+04</rscale>
<asrwt>0</asrwt>
<pdfrwt beam="1">  1        2 0.37381742E+00 0.42175796E+04</pdfrwt>
<pdfrwt beam="2">  1       -2 0.28156608E+00 0.42175796E+04</pdfrwt>
<totfact> 0.12204877E-01</totfact>
</mgrwt>
</event>
<event>
 6    1  0.2238133E-007  0.3925943E+04  0.7818608E-02  0.8019655E-01
         -2   -1    0    0    0  501 -0.00000000000E+00  0.00000000000E+00  0.18509072560E+04  0.18509072560E+04  0.00000000000E+00 0.  1.
          2   -1    0    0  501    0  0.00000000000E+00 -0.00000000000E+00 -0.20818205817E+04  0.20818205817E+04  0.00000000000E+00 0. -1.
         23    2    1    2    0    0 -0.12125943007E+04  0.11307558801E+03  0.14251588921E+04  0.18770658477E+04  0.95536914438E+02 0.  0.
         11    1    3    3    0    0 -0.90791821425E+03  0.55884445413E+02  0.10154637733E+04  0.13633067263E+04  0.00000000000E+00 0. -1.
        -11    1    3    3    0    0 -0.30467608649E+03  0.57191142600E+02  0.40969511876E+03  0.51375912139E+03  0.00000000000E+00 0.  1.
         22    1    1    2    0    0  0.12125943007E+04 -0.11307558801E+03 -0.16560722178E+04  0.20556619900E+04  0.00000000000E+00 0. -1.
<mgrwt>
<rscale>  0 0.39259429E+04</rscale>
<asrwt>0</asrwt>
<pdfrwt beam="1">  1        2 0.32028009E+00 0.39259429E+04</pdfrwt>
<pdfrwt beam="2">  1       -2 0.28475496E+00 0.39259429E+04</pdfrwt>
<totfact> 0.18804514E-01</totfact>
</mgrwt>
</event>
<event>
 6    1  0.2238133E-007  0.2376622E+04  0.7818608E-02  0.8448308E-01
          1   -1    0    0  501    0  0.00000000000E+00  0.00000000000E+00  0.31717573891E+04  0.31717573891E+04  0.00000000000E+00 0. -1.
         -1   -1    0    0    0  501 -0.00000000000E+00 -0.00000000000E+00 -0.44520535272E+03  0.44520535272E+03  0.00000000000E+00 0.  1.
         23    2    1    2    0    0  0.85050704160E+03 -0.72414683408E+03  0.19743355728E+04  0.22702703221E+04  0.91517847600E+02 0.  0.
         11    1    3    3    0    0  0.62382486288E+03 -0.53059394527E+03  0.13623577856E+04  0.15895616158E+04  0.00000000000E+00 0.  1.
        -11    1    3    3    0    0  0.22668217872E+03 -0.19355288881E+03  0.61197778715E+03  0.68070870634E+03  0.00000000000E+00 0. -1.
         22    1    1    2    0    0 -0.85050704160E+03  0.72414683408E+03  0.75221646355E+03  0.13466924197E+04  0.00000000000E+00 0.  1.
<mgrwt>
<rscale>  0 0.23766223E+04</rscale>
<asrwt>0</asrwt>
<pdfrwt beam="1">  1        1 0.48796266E+00 0.23766223E+04</pdfrwt>
<pdfrwt beam="2">  1       -1 0.68493133E-01 0.23766223E+04</pdfrwt>
<totfact> 0.86516345E-01</totfact>
</mgrwt>
</event>
<event>
 6    1  0.2238133E-007  0.2894822E+04  0.7818608E-02  0.8274420E-01
         -2   -1    0    0    0  501 -0.00000000000E+00  0.00000000000E+00  0.20190331751E+04  0.20190331751E+04  0.00000000000E+00 0.  1.
          2   -1    0    0  501    0  0.00000000000E+00 -0.00000000000E+00 -0.10376247630E+04  0.10376247630E+04  0.00000000000E+00 0. -1.
         23    2    1    2    0    0 -0.89180435703E+03  0.64046372558E+03  0.14847696257E+04  0.18488163482E+04  0.89845716618E+02 0.  0.
         13    1    3    3    0    0 -0.67894730123E+03  0.45891432561E+03  0.10525285872E+04  0.13339371135E+04  0.00000000000E+00 0.  1.
        -13    1    3    3    0    0 -0.21285705580E+03  0.18154939997E+03  0.43224103857E+03  0.51487923464E+03  0.00000000000E+00 0. -1.
         22    1    1    2    0    0  0.89180435703E+03 -0.64046372558E+03 -0.50336121365E+03  0.12078415899E+04  0.00000000000E+00 0. -1.
<mgrwt>
<rscale>  0 0.28948221E+04</rscale>
<asrwt>0</asrwt>
<pdfrwt beam="1">  1        2 0.15963458E+00 0.28948221E+04</pdfrwt>
<pdfrwt beam="2">  1       -2 0.31062049E+00 0.28948221E+04</pdfrwt>
<totfact> 0.56286799E-01</totfact>
</mgrwt>
</event>
<event>
 6    1  0.2262495E-007  0.2857142E+04  0.7818608E-02  0.8285744E-01
         -2   -1    0    0    0  501 -0.00000000000E+00  0.00000000000E+00  0.19458921626E+04  0.19458921626E+04  0.00000000000E+00 0.  1.
          2   -1    0    0  501    0  0.00000000000E+00 -0.00000000000E+00 -0.10487810373E+04  0.10487810373E+04  0.00000000000E+00 0. -1.
         23    2    1    2    0    0  0.67635400054E+02 -0.56288166314E+03  0.18216869770E+04  0.19101222239E+04  0.92807079212E+02 0.  0.
         11    1    3    3    0    0 -0.10803990637E+02 -0.70612358790E+02  0.31949102531E+03  0.32737951476E+03  0.00000000000E+00 0. -1.
        -11    1    3    3    0    0  0.78439390691E+02 -0.49226930435E+03  0.15021959517E+04  0.15827427092E+04  0.00000000000E+00 0.  1.
         22    1    1    2    0    0 -0.67635400054E+02  0.56288166314E+03 -0.92457585167E+03  0.10845509760E+04  0.00000000000E+00 0. -1.
<mgrwt>
<rscale>  0 0.28571418E+04</rscale>
<asrwt>0</asrwt>
<pdfrwt beam="1">  1        2 0.16135093E+00 0.28571418E+04</pdfrwt>
<pdfrwt beam="2">  1       -2 0.29936802E+00 0.28571418E+04</pdfrwt>
<totfact> 0.65127559E-01</totfact>
</mgrwt>
</event>
<event>
 6    1  0.2238133E-007  0.2099101E+04  0.7818608E-02  0.8561639E-01
         -2   -1    0    0    0  501 -0.00000000000E+00  0.00000000000E+00  0.53019466141E+03  0.53019466141E+03  0.00000000000E+00 0.  1.
          2   -1    0    0  501    0  0.00000000000E+00 -0.00000000000E+00 -0.20776450366E+04  0.20776450366E+04  0.00000000000E+00 0. -1.
         23    2    1    2    0    0 -0.65426753311E+03  0.74050259928E+02  0.23516836550E+03  0.70750314346E+03  0.10819931603E+03 0.  0.
         11    1    3    3    0    0 -0.29260874443E+03 -0.11479958983E+02  0.13594154939E+03  0.32284945660E+03  0.00000000000E+00 0. -1.
        -11    1    3    3    0    0 -0.36165878868E+03  0.85530218911E+02  0.99226816106E+02  0.38465368686E+03  0.00000000000E+00 0.  1.
         22    1    1    2    0    0  0.65426753311E+03 -0.74050259928E+02 -0.17826187407E+04  0.19003365546E+04  0.00000000000E+00 0. -1.
<mgrwt>
<rscale>  0 0.20991011E+04</rscale>
<asrwt>0</asrwt>
<pdfrwt beam="1">  1        2 0.31963770E+00 0.20991011E+04</pdfrwt>
<pdfrwt beam="2">  1       -2 0.81568410E-01 0.20991011E+04</pdfrwt>
<totfact> 0.73731786E+00</totfact>
</mgrwt>
</event>
<event>
 6    1  0.2238133E-007  0.2598579E+04  0.7818608E-02  0.8368684E-01
         -2   -1    0    0    0  501 -0.00000000000E+00  0.00000000000E+00  0.52996590593E+03  0.52996590593E+03  0.00000000000E+00 0.  1.
          2   -1    0    0  501    0  0.00000000000E+00 -0.00000000000E+00 -0.31854007131E+04  0.31854007131E+04  0.00000000000E+00 0. -1.
         23    2    1    2    0    0 -0.28757535453E+03 -0.53462246083E+03  0.31052800013E+03  0.68791618436E+03  0.90996031109E+02 0.  0.
         13    1    3    3    0    0 -0.22642909910E+03 -0.38766783283E+03  0.26918462563E+03  0.52346618631E+03  0.00000000000E+00 0. -1.
        -13    1    3    3    0    0 -0.61146255436E+02 -0.14695462800E+03  0.41343374498E+02  0.16444999805E+03  0.00000000000E+00 0.  1.
         22    1    1    2    0    0  0.28757535453E+03  0.53462246083E+03 -0.29659628073E+04  0.30274504347E+04  0.00000000000E+00 0. -1.
<mgrwt>
<rscale>  0 0.25985794E+04</rscale>
<asrwt>0</asrwt>
<pdfrwt beam="1">  1        2 0.49006165E+00 0.25985794E+04</pdfrwt>
<pdfrwt beam="2">  1       -2 0.81533216E-01 0.25985794E+04</pdfrwt>
<totfact> 0.15531702E+00</totfact>
</mgrwt>
</event>
<event>
 6    1  0.2238133E-007  0.2631277E+04  0.7818608E-02  0.8357654E-01
          2   -1    0    0  501    0  0.00000000000E+00  0.00000000000E+00  0.10854433447E+04  0.10854433447E+04  0.00000000000E+00 0. -1.
         -2   -1    0    0    0  501 -0.00000000000E+00 -0.00000000000E+00 -0.15946522033E+04  0.15946522033E+04  0.00000000000E+00 0.  1.
         23    2    1    2    0    0  0.64594217658E+03  0.84592006112E+03 -0.10397717530E+04  0.14908440900E+04  0.93106159540E+02 0.  0.
         13    1    3    3    0    0  0.37325545468E+03  0.54230226604E+03 -0.59743690984E+03  0.88901194786E+03  0.00000000000E+00 0. -1.
        -13    1    3    3    0    0  0.27268672190E+03  0.30361779508E+03 -0.44233484318E+03  0.60183214211E+03  0.00000000000E+00 0.  1.
         22    1    1    2    0    0 -0.64594217658E+03 -0.84592006112E+03  0.53056289445E+03  0.11892514580E+04  0.00000000000E+00 0.  1.
<mgrwt>
<rscale>  0 0.26312770E+04</rscale>
<asrwt>0</asrwt>
<pdfrwt beam="1">  1        2 0.16699128E+00 0.26312770E+04</pdfrwt>
<pdfrwt beam="2">  1       -2 0.24533111E+00 0.26312770E+04</pdfrwt>
<totfact> 0.13474067E+00</totfact>
</mgrwt>
</event>
<event>
 6    1  0.2238133E-007  0.4913289E+04  0.7818608E-02  0.7842024E-01
         -2   -1    0    0    0  501 -0.00000000000E+00  0.00000000000E+00  0.19521733731E+04  0.19521733731E+04  0.00000000000E+00 0.  1.
          2   -1    0    0  501    0  0.00000000000E+00 -0.00000000000E+00 -0.30914786015E+04  0.30914786015E+04  0.00000000000E+00 0. -1.
         23    2    1    2    0    0 -0.10641506685E+04 -0.62566213267E+03 -0.27491551493E+04  0.30149857829E+04  0.91735961848E+02 0.  0.
         13    1    3    3    0    0 -0.79167138947E+03 -0.49882288637E+03 -0.21443998599E+04  0.23396620739E+04  0.00000000000E+00 0.  1.
        -13    1    3    3    0    0 -0.27247927903E+03 -0.12683924630E+03 -0.60475528940E+03  0.67532370902E+03  0.00000000000E+00 0. -1.
         22    1    1    2    0    0  0.10641506685E+04  0.62566213267E+03  0.16098499209E+04  0.20286661917E+04  0.00000000000E+00 0.  1.
<mgrwt>
<rscale>  0 0.49132890E+04</rscale>
<asrwt>0</asrwt>
<pdfrwt beam="1">  1        2 0.47561209E+00 0.49132890E+04</pdfrwt>
<pdfrwt beam="2">  1       -2 0.30033437E+00 0.49132890E+04</pdfrwt>
<totfact> 0.35312466E-02</totfact>
</mgrwt>
</event>
<event>
 6    1  0.2238133E-007  0.2079609E+04  0.7818608E-02  0.8570279E-01
          1   -1    0    0  501    0  0.00000000000E+00  0.00000000000E+00  0.32320873081E+04  0.32320873081E+04  0.00000000000E+00 0. -1.
         -1   -1    0    0    0  501 -0.00000000000E+00 -0.00000000000E+00 -0.33451854375E+03  0.33451854375E+03  0.00000000000E+00 0.  1.
         23    2    1    2    0    0 -0.28310065696E+03 -0.29762219079E+03  0.30861044241E+04  0.31146427501E+04  0.90741356100E+02 0.  0.
         13    1    3    3    0    0 -0.83009046091E+02 -0.12906403997E+03  0.90711811559E+03  0.92000614334E+03  0.00000000000E+00 0.  1.
        -13    1    3    3    0    0 -0.20009161087E+03 -0.16855815082E+03  0.21789863085E+04  0.21946366067E+04  0.00000000000E+00 0. -1.
         22    1    1    2    0    0  0.28310065696E+03  0.29762219079E+03 -0.18853565970E+03  0.45196310182E+03  0.00000000000E+00 0.  1.
<mgrwt>
<rscale>  0 0.20796088E+04</rscale>
<asrwt>0</asrwt>
<pdfrwt beam="1">  1        1 0.49724418E+00 0.20796088E+04</pdfrwt>
<pdfrwt beam="2">  1       -1 0.51464394E-01 0.20796088E+04</pdfrwt>
<totfact> 0.14104162E+00</totfact>
</mgrwt>
</event>
<event>
 6    1  0.2238133E-007  0.8267365E+03  0.7818608E-02  0.9522104E-01
          2   -1    0    0  501    0  0.00000000000E+00  0.00000000000E+00  0.20845080451E+04  0.20845080451E+04  0.00000000000E+00 0. -1.
         -2   -1    0    0    0  501 -0.00000000000E+00 -0.00000000000E+00 -0.81972967251E+02  0.81972967251E+02  0.00000000000E+00 0.  1.
         23    2    1    2    0    0 -0.35938307707E+03  0.18537169553E+03  0.86693546294E+03  0.96103281895E+03  0.92130996993E+02 0.  0.
         11    1    3    3    0    0 -0.22737879487E+03  0.16536638817E+03  0.59614008730E+03  0.65911316356E+03  0.00000000000E+00 0. -1.
        -11    1    3    3    0    0 -0.13200428220E+03  0.20005307359E+02  0.27079537564E+03  0.30191965539E+03  0.00000000000E+00 0.  1.
         22    1    1    2    0    0  0.35938307707E+03 -0.18537169553E+03  0.11355996149E+04  0.12054481934E+04  0.00000000000E+00 0. -1.
<mgrwt>
<rscale>  0 0.82673650E+03</rscale>
<asrwt>0</asrwt>
<pdfrwt beam="1">  1        2 0.32069351E+00 0.82673650E+03</pdfrwt>
<pdfrwt beam="2">  1       -2 0.12611227E-01 0.82673650E+03</pdfrwt>
<totfact> 0.28643912E+02</totfact>
</mgrwt>
</event>
<event>
 6    1  0.2238133E-007  0.2428432E+04  0.7818608E-02  0.8428935E-01
         -2   -1    0    0    0  501 -0.00000000000E+00  0.00000000000E+00  0.83518940362E+03  0.83518940362E+03  0.00000000000E+00 0.  1.
          2   -1    0    0  501    0  0.00000000000E+00 -0.00000000000E+00 -0.17652535680E+04  0.17652535680E+04  0.00000000000E+00 0. -1.
         23    2    1    2    0    0  0.43712455721E+03  0.11132078616E+04 -0.67952127537E+03  0.13785258874E+04  0.90966130504E+02 0.  0.
         11    1    3    3    0    0  0.19506181184E+03  0.61239142366E+03 -0.34530223298E+03  0.72959303609E+03  0.00000000000E+00 0. -1.
        -11    1    3    3    0    0  0.24206274537E+03  0.50081643790E+03 -0.33421904239E+03  0.64893285127E+03  0.00000000000E+00 0.  1.
         22    1    1    2    0    0 -0.43712455721E+03 -0.11132078616E+04 -0.25054288900E+03  0.12219170843E+04  0.00000000000E+00 0.  1.
<mgrwt>
<rscale>  0 0.24284325E+04</rscale>
<asrwt>0</asrwt>
<pdfrwt beam="1">  1        2 0.27157747E+00 0.24284325E+04</pdfrwt>
<pdfrwt beam="2">  1       -2 0.12849068E+00 0.24284325E+04</pdfrwt>
<totfact> 0.36206303E+00</totfact>
</mgrwt>
</event>
<event>
 6    1  0.2238133E-007  0.4413718E+04  0.7818608E-02  0.7925919E-01
         -2   -1    0    0    0  501 -0.00000000000E+00  0.00000000000E+00  0.18998064196E+04  0.18998064196E+04  0.00000000000E+00 0.  1.
          2   -1    0    0  501    0  0.00000000000E+00 -0.00000000000E+00 -0.25635386812E+04  0.25635386812E+04  0.00000000000E+00 0. -1.
         23    2    1    2    0    0  0.67956703201E+03  0.18812296596E+04 -0.12726246379E+04  0.23725112220E+04  0.91649586148E+02 0.  0.
         13    1    3    3    0    0  0.23812779082E+03  0.74688489408E+03 -0.45915017043E+03  0.90849368120E+03  0.00000000000E+00 0.  1.
        -13    1    3    3    0    0  0.44143924119E+03  0.11343447655E+04 -0.81347446743E+03  0.14640175408E+04  0.00000000000E+00 0. -1.
         22    1    1    2    0    0 -0.67956703201E+03 -0.18812296596E+04  0.60889237629E+03  0.20908338788E+04  0.00000000000E+00 0.  1.
<mgrwt>
<rscale>  0 0.44137183E+04</rscale>
<asrwt>0</asrwt>
<pdfrwt beam="1">  1        2 0.39439057E+00 0.44137183E+04</pdfrwt>
<pdfrwt beam="2">  1       -2 0.29227791E+00 0.44137183E+04</pdfrwt>
<totfact> 0.86430421E-02</totfact>
</mgrwt>
</event>
<event>
 6    1  0.2238133E-007  0.2803607E+04  0.7818608E-02  0.8302149E-01
          2   -1    0    0  501    0  0.00000000000E+00  0.00000000000E+00  0.11439556696E+04  0.11439556696E+04  0.00000000000E+00 0. -1.
         -2   -1    0    0    0  501 -0.00000000000E+00 -0.00000000000E+00 -0.17177708078E+04  0.17177708078E+04  0.00000000000E+00 0.  1.
         23    2    1    2    0    0  0.51859371721E+03  0.12052534660E+04  0.21238681688E+03  0.13321223212E+04  0.88692489880E+02 0.  0.
         11    1    3    3    0    0  0.16373517484E+03  0.29042499000E+03  0.68890033102E+02  0.34044341521E+03  0.00000000000E+00 0. -1.
        -11    1    3    3    0    0  0.35485854236E+03  0.91482847599E+03  0.14349678378E+03  0.99167890596E+03  0.00000000000E+00 0.  1.
         22    1    1    2    0    0 -0.51859371721E+03 -0.12052534660E+04 -0.78620195508E+03  0.15296041563E+04  0.00000000000E+00 0.  1.
<mgrwt>
<rscale>  0 0.28036074E+04</rscale>
<asrwt>0</asrwt>
<pdfrwt beam="1">  1        2 0.17599318E+00 0.28036074E+04</pdfrwt>
<pdfrwt beam="2">  1       -2 0.26427243E+00 0.28036074E+04</pdfrwt>
<totfact> 0.93568652E-01</totfact>
</mgrwt>
</event>
<event>
 6    1  0.2238133E-007  0.3000559E+04  0.7818608E-02  0.8243571E-01
          2   -1    0    0  501    0  0.00000000000E+00  0.00000000000E+00  0.28641710331E+04  0.28641710331E+04  0.00000000000E+00 0. -1.
         -2   -1    0    0    0  501 -0.00000000000E+00 -0.00000000000E+00 -0.78586019294E+03  0.78586019294E+03  0.00000000000E+00 0.  1.
         23    2    1    2    0    0  0.64453899567E+03  0.70950022240E+03  0.24422460259E+04  0.26247166880E+04  0.75835077496E+02 0.  0.
         11    1    3    3    0    0  0.48806679126E+03  0.48657399008E+03  0.17562030986E+04  0.18865875978E+04  0.00000000000E+00 0. -1.
        -11    1    3    3    0    0  0.15647220441E+03  0.22292623232E+03  0.68604292724E+03  0.73812909022E+03  0.00000000000E+00 0.  1.
         22    1    1    2    0    0 -0.64453899567E+03 -0.70950022240E+03 -0.36393518569E+03  0.10253145380E+04  0.00000000000E+00 0.  1.
<mgrwt>
<rscale>  0 0.30005586E+04</rscale>
<asrwt>0</asrwt>
<pdfrwt beam="1">  1        2 0.44064169E+00 0.30005586E+04</pdfrwt>
<pdfrwt beam="2">  1       -2 0.12090157E+00 0.30005586E+04</pdfrwt>
<totfact> 0.94241725E-01</totfact>
</mgrwt>
</event>
<event>
 6    1  0.2238133E-007  0.1320390E+04  0.7818608E-02  0.9013550E-01
         -2   -1    0    0    0  501 -0.00000000000E+00  0.00000000000E+00  0.41583465441E+03  0.41583465441E+03  0.00000000000E+00 0.  1.
          2   -1    0    0  501    0  0.00000000000E+00 -0.00000000000E+00 -0.10481515826E+04  0.10481515826E+04  0.00000000000E+00 0. -1.
         23    2    1    2    0    0 -0.29045988379E+03 -0.57332680502E+03 -0.16709581348E+03  0.67057508570E+03  0.93163110914E+02 0.  0.
         13    1    3    3    0    0 -0.14685871976E+02 -0.74006612478E+02 -0.42914304066E+02  0.86800293891E+02  0.00000000000E+00 0. -1.
        -13    1    3    3    0    0 -0.27577401182E+03 -0.49932019254E+03 -0.12418150941E+03  0.58377479181E+03  0.00000000000E+00 0.  1.
         22    1    1    2    0    0  0.29045988379E+03  0.57332680502E+03 -0.46522111470E+03  0.79341115130E+03  0.00000000000E+00 0. -1.
<mgrwt>
<rscale>  0 0.13203905E+04</rscale>
<asrwt>0</asrwt>
<pdfrwt beam="1">  1        2 0.16125409E+00 0.13203905E+04</pdfrwt>
<pdfrwt beam="2">  1       -2 0.63974562E-01 0.13203905E+04</pdfrwt>
<totfact> 0.51905773E+01</totfact>
</mgrwt>
</event>
<event>
 6    1  0.2238133E-007  0.3041666E+04  0.7818608E-02  0.8231932E-01
          2   -1    0    0  501    0  0.00000000000E+00  0.00000000000E+00  0.36630444683E+04  0.36630444683E+04  0.00000000000E+00 0. -1.
         -2   -1    0    0    0  501 -0.00000000000E+00 -0.00000000000E+00 -0.63142385041E+03  0.63142385041E+03  0.00000000000E+00 0.  1.
         23    2    1    2    0    0 -0.12019381421E+03  0.12190639174E+04  0.27865090596E+04  0.30452113140E+04  0.90087844654E+02 0.  0.
         13    1    3    3    0    0 -0.97722328581E+02  0.79185107804E+03  0.19069186283E+04  0.20671033932E+04  0.00000000000E+00 0. -1.
        -13    1    3    3    0    0 -0.22471485632E+02  0.42721283939E+03  0.87959043132E+03  0.97810792077E+03  0.00000000000E+00 0.  1.
         22    1    1    2    0    0  0.12019381421E+03 -0.12190639174E+04  0.24511155822E+03  0.12492570047E+04  0.00000000000E+00 0.  1.
<mgrwt>
<rscale>  0 0.30416664E+04</rscale>
<asrwt>0</asrwt>
<pdfrwt beam="1">  1        2 0.56354529E+00 0.30416664E+04</pdfrwt>
<pdfrwt beam="2">  1       -2 0.97142133E-01 0.30416664E+04</pdfrwt>
<totfact> 0.46845865E-01</totfact>
</mgrwt>
</event>
<event>
 6    1  0.2238133E-007  0.1203221E+04  0.7818608E-02  0.9110042E-01
          2   -1    0    0  501    0  0.00000000000E+00  0.00000000000E+00  0.23349792625E+04  0.23349792625E+04  0.00000000000E+00 0. -1.
         -2   -1    0    0    0  501 -0.00000000000E+00 -0.00000000000E+00 -0.15500566060E+03  0.15500566060E+03  0.00000000000E+00 0.  1.
         23    2    1    2    0    0 -0.41959735979E+01 -0.22099913833E+03  0.22464737087E+04  0.22591592539E+04  0.91094377309E+02 0.  0.
         13    1    3    3    0    0  0.24034425900E+02 -0.13251614056E+03  0.96910681732E+03  0.97842025966E+03  0.00000000000E+00 0. -1.
        -13    1    3    3    0    0 -0.28230399498E+02 -0.88482997770E+02  0.12773668913E+04  0.12807389943E+04  0.00000000000E+00 0.  1.
         22    1    1    2    0    0  0.41959735979E+01  0.22099913833E+03 -0.66500106781E+02  0.23082566915E+03  0.00000000000E+00 0.  1.
<mgrwt>
<rscale>  0 0.12032207E+04</rscale>
<asrwt>0</asrwt>
<pdfrwt beam="1">  1        2 0.35922755E+00 0.12032207E+04</pdfrwt>
<pdfrwt beam="2">  1       -2 0.23847026E-01 0.12032207E+04</pdfrwt>
<totfact> 0.67048535E+01</totfact>
</mgrwt>
</event>
<event>
 6    1  0.2238133E-007  0.2241405E+04  0.7818608E-02  0.8501389E-01
         -2   -1    0    0    0  501 -0.00000000000E+00  0.00000000000E+00  0.64537697665E+03  0.64537697665E+03  0.00000000000E+00 0.  1.
          2   -1    0    0  501    0  0.00000000000E+00 -0.00000000000E+00 -0.19461095208E+04  0.19461095208E+04  0.00000000000E+00 0. -1.
         23    2    1    2    0    0  0.67726754612E+02 -0.11132422130E+04 -0.75451882823E+03  0.13496151025E+04  0.90923730164E+02 0.  0.
         11    1    3    3    0    0 -0.45469452456E+01 -0.11120315731E+03 -0.46857502467E+02  0.12075778420E+03  0.00000000000E+00 0.  1.
        -11    1    3    3    0    0  0.72273699858E+02 -0.10020390557E+04 -0.70766132577E+03  0.12288573183E+04  0.00000000000E+00 0. -1.
         22    1    1    2    0    0 -0.67726754612E+02  0.11132422130E+04 -0.54621371590E+03  0.12418713949E+04  0.00000000000E+00 0.  1.
<mgrwt>
<rscale>  0 0.22414052E+04</rscale>
<asrwt>0</asrwt>
<pdfrwt beam="1">  1        2 0.29940146E+00 0.22414052E+04</pdfrwt>
<pdfrwt beam="2">  1       -2 0.99288766E-01 0.22414052E+04</pdfrwt>
<totfact> 0.54780304E+00</totfact>
</mgrwt>
</event>
<event>
 6    1  0.2238133E-007  0.2028256E+04  0.7818608E-02  0.8593523E-01
         -2   -1    0    0    0  501 -0.00000000000E+00  0.00000000000E+00  0.77098162830E+03  0.77098162830E+03  0.00000000000E+00 0.  1.
          2   -1    0    0  501    0  0.00000000000E+00 -0.00000000000E+00 -0.13339557272E+04  0.13339557272E+04  0.00000000000E+00 0. -1.
         23    2    1    2    0    0  0.21353883224E+03  0.36673829943E+03  0.67146283120E+03  0.79959052514E+03  0.91579807109E+02 0.  0.
         13    1    3    3    0    0  0.14780452233E+02  0.52888796022E+02  0.14670611104E+03  0.15664727744E+03  0.00000000000E+00 0. -1.
        -13    1    3    3    0    0  0.19875838000E+03  0.31384950341E+03  0.52475672016E+03  0.64294324770E+03  0.00000000000E+00 0.  1.
         22    1    1    2    0    0 -0.21353883224E+03 -0.36673829943E+03 -0.12344369301E+04  0.13053468303E+04  0.00000000000E+00 0. -1.
<mgrwt>
<rscale>  0 0.20282558E+04</rscale>
<asrwt>0</asrwt>
<pdfrwt beam="1">  1        2 0.20522396E+00 0.20282558E+04</pdfrwt>
<pdfrwt beam="2">  1       -2 0.11861256E+00 0.20282558E+04</pdfrwt>
<totfact> 0.80043299E+00</totfact>
</mgrwt>
</event>
<event>
 6    1  0.2238133E-007  0.1834422E+04  0.7818608E-02  0.8688206E-01
          2   -1    0    0  501    0  0.00000000000E+00  0.00000000000E+00  0.16090595173E+04  0.16090595173E+04  0.00000000000E+00 0. -1.
         -2   -1    0    0    0  501 -0.00000000000E+00 -0.00000000000E+00 -0.52283687709E+03  0.52283687709E+03  0.00000000000E+00 0.  1.
         23    2    1    2    0    0 -0.89941007543E+03  0.33125420418E+02  0.73370089174E+03  0.11653006359E+04  0.97840667352E+02 0.  0.
         13    1    3    3    0    0 -0.51501897253E+03 -0.29440391898E+02  0.42116473726E+03  0.66595121042E+03  0.00000000000E+00 0.  1.
        -13    1    3    3    0    0 -0.38439110289E+03  0.62565812316E+02  0.31253615448E+03  0.49934942546E+03  0.00000000000E+00 0. -1.
         22    1    1    2    0    0  0.89941007543E+03 -0.33125420418E+02  0.35252174848E+03  0.96659575853E+03  0.00000000000E+00 0.  1.
<mgrwt>
<rscale>  0 0.18344216E+04</rscale>
<asrwt>0</asrwt>
<pdfrwt beam="1">  1        2 0.24754762E+00 0.18344216E+04</pdfrwt>
<pdfrwt beam="2">  1       -2 0.80436443E-01 0.18344216E+04</pdfrwt>
<totfact> 0.14169241E+01</totfact>
</mgrwt>
</event>
<event>
 6    1  0.2238133E-007  0.5064213E+04  0.7818608E-02  0.7818677E-01
          2   -1    0    0  501    0  0.00000000000E+00  0.00000000000E+00  0.19690560091E+04  0.19690560091E+04  0.00000000000E+00 0. -1.
         -2   -1    0    0    0  501 -0.00000000000E+00 -0.00000000000E+00 -0.32561615868E+04  0.32561615868E+04  0.00000000000E+00 0.  1.
         23    2    1    2    0    0 -0.16490324295E+04  0.70171524226E+03 -0.24882509170E+04  0.30677972935E+04  0.90969079519E+02 0.  0.
         11    1    3    3    0    0 -0.10586206613E+04  0.43777201337E+03 -0.15176002469E+04  0.19014290809E+04  0.00000000000E+00 0. -1.
        -11    1    3    3    0    0 -0.59041176824E+03  0.26394322889E+03 -0.97065067005E+03  0.11663682126E+04  0.00000000000E+00 0.  1.
         22    1    1    2    0    0  0.16490324295E+04 -0.70171524226E+03  0.12011453393E+04  0.21574203023E+04  0.00000000000E+00 0.  1.
<mgrwt>
<rscale>  0 0.50642135E+04</rscale>
<asrwt>0</asrwt>
<pdfrwt beam="1">  1        2 0.30293170E+00 0.50642135E+04</pdfrwt>
<pdfrwt beam="2">  1       -2 0.50094793E+00 0.50642135E+04</pdfrwt>
<totfact> 0.82533241E-03</totfact>
</mgrwt>
</event>
<event>
 6    1  0.2238133E-007  0.3250778E+04  0.7818608E-02  0.8175534E-01
          2   -1    0    0  501    0  0.00000000000E+00  0.00000000000E+00  0.19968355063E+04  0.19968355063E+04  0.00000000000E+00 0. -1.
         -2   -1    0    0    0  501 -0.00000000000E+00 -0.00000000000E+00 -0.13230379586E+04  0.13230379586E+04  0.00000000000E+00 0.  1.
         23    2    1    2    0    0  0.12689375603E+03 -0.12039520880E+04 -0.76854699844E+03  0.14368013884E+04  0.90172530404E+02 0.  0.
         13    1    3    3    0    0  0.55810610238E+02 -0.68739631325E+03 -0.48648339726E+03  0.84397548038E+03  0.00000000000E+00 0.  1.
        -13    1    3    3    0    0  0.71083145789E+02 -0.51655577477E+03 -0.28206360118E+03  0.59282590799E+03  0.00000000000E+00 0. -1.
         22    1    1    2    0    0 -0.12689375603E+03  0.12039520880E+04  0.14423445461E+04  0.18830720765E+04  0.00000000000E+00 0. -1.
<mgrwt>
<rscale>  0 0.32507779E+04</rscale>
<asrwt>0</asrwt>
<pdfrwt beam="1">  1        2 0.30720546E+00 0.32507779E+04</pdfrwt>
<pdfrwt beam="2">  1       -2 0.20354430E+00 0.32507779E+04</pdfrwt>
<totfact> 0.70930586E-01</totfact>
</mgrwt>
</event>
<event>
 6    1  0.2238133E-007  0.1728430E+04  0.7818608E-02  0.8745314E-01
         -2   -1    0    0    0  501 -0.00000000000E+00  0.00000000000E+00  0.78842024062E+03  0.78842024062E+03  0.00000000000E+00 0.  1.
          2   -1    0    0  501    0  0.00000000000E+00 -0.00000000000E+00 -0.94729655790E+03  0.94729655790E+03  0.00000000000E+00 0. -1.
         23    2    1    2    0    0  0.92332752769E+01 -0.48559953767E+03  0.63534823326E+03  0.80475772260E+03  0.89863508853E+02 0.  0.
         13    1    3    3    0    0 -0.28402614676E+02 -0.37848917752E+03  0.50832437560E+03  0.63439296722E+03  0.00000000000E+00 0. -1.
        -13    1    3    3    0    0  0.37635889953E+02 -0.10711036015E+03  0.12702385766E+03  0.17036475539E+03  0.00000000000E+00 0.  1.
         22    1    1    2    0    0 -0.92332752769E+01  0.48559953767E+03 -0.79422455054E+03  0.93095907592E+03  0.00000000000E+00 0. -1.
<mgrwt>
<rscale>  0 0.17284302E+04</rscale>
<asrwt>0</asrwt>
<pdfrwt beam="1">  1        2 0.14573793E+00 0.17284302E+04</pdfrwt>
<pdfrwt beam="2">  1       -2 0.12129542E+00 0.17284302E+04</pdfrwt>
<totfact> 0.13381516E+01</totfact>
</mgrwt>
</event>
<event>
 6    1  0.2238133E-007  0.2065473E+04  0.7818608E-02  0.8576607E-01
          2   -1    0    0  501    0  0.00000000000E+00  0.00000000000E+00  0.34545713241E+04  0.34545713241E+04  0.00000000000E+00 0. -1.
         -2   -1    0    0    0  501 -0.00000000000E+00 -0.00000000000E+00 -0.30873425753E+03  0.30873425753E+03  0.00000000000E+00 0.  1.
         23    2    1    2    0    0  0.47969434162E+03 -0.23387505149E+03  0.31826415749E+04  0.32283674796E+04  0.91350905953E+02 0.  0.
         13    1    3    3    0    0  0.22047326999E+03 -0.92018554309E+02  0.11693088270E+04  0.11934651272E+04  0.00000000000E+00 0.  1.
        -13    1    3    3    0    0  0.25922107163E+03 -0.14185649718E+03  0.20133327480E+04  0.20349023524E+04  0.00000000000E+00 0. -1.
         22    1    1    2    0    0 -0.47969434162E+03  0.23387505149E+03 -0.36804508393E+02  0.53493810196E+03  0.00000000000E+00 0.  1.
<mgrwt>
<rscale>  0 0.20654728E+04</rscale>
<asrwt>0</asrwt>
<pdfrwt beam="1">  1        2 0.53147248E+00 0.20654728E+04</pdfrwt>
<pdfrwt beam="2">  1       -2 0.47497581E-01 0.20654728E+04</pdfrwt>
<totfact> 0.34101529E+00</totfact>
</mgrwt>
</event>
<event>
 6    1  0.2238133E-007  0.1489526E+04  0.7818608E-02  0.8891448E-01
         -1   -1    0    0    0  501 -0.00000000000E+00  0.00000000000E+00  0.87782178326E+03  0.87782178326E+03  0.00000000000E+00 0.  1.
          1   -1    0    0  501    0  0.00000000000E+00 -0.00000000000E+00 -0.63187269776E+03  0.63187269776E+03  0.00000000000E+00 0. -1.
         23    2    1    2    0    0 -0.45035416483E+03  0.58514699030E+03  0.49425406859E+02  0.74560192752E+03  0.90903737285E+02 0.  0.
         13    1    3    3    0    0 -0.31191297130E+03  0.33354374737E+03  0.36934744486E+02  0.45815424087E+03  0.00000000000E+00 0. -1.
        -13    1    3    3    0    0 -0.13844119353E+03  0.25160324293E+03  0.12490662373E+02  0.28744768666E+03  0.00000000000E+00 0.  1.
         22    1    1    2    0    0  0.45035416483E+03 -0.58514699030E+03  0.19652367865E+03  0.76409255349E+03  0.00000000000E+00 0. -1.
<mgrwt>
<rscale>  0 0.14895256E+04</rscale>
<asrwt>0</asrwt>
<pdfrwt beam="1">  1        1 0.97211184E-01 0.14895256E+04</pdfrwt>
<pdfrwt beam="2">  1       -1 0.13504950E+00 0.14895256E+04</pdfrwt>
<totfact> 0.14152311E+01</totfact>
</mgrwt>
</event>
<event>
 6    1  0.2238133E-007  0.1917075E+04  0.7818608E-02  0.8646403E-01
         -2   -1    0    0    0  501 -0.00000000000E+00  0.00000000000E+00  0.51341604436E+03  0.51341604436E+03  0.00000000000E+00 0.  1.
          2   -1    0    0  501    0  0.00000000000E+00 -0.00000000000E+00 -0.17895710086E+04  0.17895710086E+04  0.00000000000E+00 0. -1.
         23    2    1    2    0    0 -0.52680077773E+02  0.73602302986E+03  0.90996530245E+02  0.74940786285E+03  0.93950440732E+02 0.  0.
         11    1    3    3    0    0 -0.69404857067E+02  0.58426960900E+03  0.45660392782E+02  0.59014649169E+03  0.00000000000E+00 0.  1.
        -11    1    3    3    0    0  0.16724779294E+02  0.15175342086E+03  0.45336137463E+02  0.15926137116E+03  0.00000000000E+00 0. -1.
         22    1    1    2    0    0  0.52680077773E+02 -0.73602302986E+03 -0.13671514945E+04  0.15535791901E+04  0.00000000000E+00 0. -1.
<mgrwt>
<rscale>  0 0.19170753E+04</rscale>
<asrwt>0</asrwt>
<pdfrwt beam="1">  1        2 0.27531862E+00 0.19170753E+04</pdfrwt>
<pdfrwt beam="2">  1       -2 0.78987083E-01 0.19170753E+04</pdfrwt>
<totfact> 0.11632966E+01</totfact>
</mgrwt>
</event>
<event>
 6    1  0.2238133E-007  0.2627358E+04  0.7818608E-02  0.8358967E-01
         -2   -1    0    0    0  501 -0.00000000000E+00  0.00000000000E+00  0.18606892090E+04  0.18606892090E+04  0.00000000000E+00 0.  1.
          2   -1    0    0  501    0  0.00000000000E+00 -0.00000000000E+00 -0.92748033245E+03  0.92748033245E+03  0.00000000000E+00 0. -1.
         23    2    1    2    0    0 -0.64389114520E+03  0.29470821144E+03  0.16394307225E+04  0.17880705301E+04  0.89523126037E+02 0.  0.
         13    1    3    3    0    0 -0.12343740924E+03  0.20092798237E+02  0.26992268105E+03  0.29748742542E+03  0.00000000000E+00 0.  1.
        -13    1    3    3    0    0 -0.52045373596E+03  0.27461541321E+03  0.13695080414E+04  0.14905831047E+04  0.00000000000E+00 0. -1.
         22    1    1    2    0    0  0.64389114520E+03 -0.29470821144E+03 -0.70622184595E+03  0.10000990113E+04  0.00000000000E+00 0. -1.
<mgrwt>
<rscale>  0 0.26273581E+04</rscale>
<asrwt>0</asrwt>
<pdfrwt beam="1">  1        2 0.14268928E+00 0.26273581E+04</pdfrwt>
<pdfrwt beam="2">  1       -2 0.28625988E+00 0.26273581E+04</pdfrwt>
<totfact> 0.95646186E-01</totfact>
</mgrwt>
</event>
<event>
 6    1  0.2238133E-007  0.1448079E+04  0.7818608E-02  0.8919733E-01
          3   -1    0    0  501    0  0.00000000000E+00  0.00000000000E+00  0.39574918050E+03  0.39574918050E+03  0.00000000000E+00 0. -1.
         -3   -1    0    0    0  501 -0.00000000000E+00 -0.00000000000E+00 -0.13246607522E+04  0.13246607522E+04  0.00000000000E+00 0.  1.
         23    2    1    2    0    0 -0.47970886956E+03  0.48295091382E+03 -0.18012882798E+03  0.70846241331E+03  0.78169122434E+02 0.  0.
         13    1    3    3    0    0 -0.33596651171E+03  0.35808024910E+03 -0.96058223992E+02  0.50032204047E+03  0.00000000000E+00 0.  1.
        -13    1    3    3    0    0 -0.14374235785E+03  0.12487066472E+03 -0.84070603991E+02  0.20814037284E+03  0.00000000000E+00 0. -1.
         22    1    1    2    0    0  0.47970886956E+03 -0.48295091382E+03 -0.74878274368E+03  0.10119475194E+04  0.00000000000E+00 0.  1.
<mgrwt>
<rscale>  0 0.14480793E+04</rscale>
<asrwt>0</asrwt>
<pdfrwt beam="1">  1        3 0.60884489E-01 0.14480793E+04</pdfrwt>
<pdfrwt beam="2">  1       -3 0.20379396E+00 0.14480793E+04</pdfrwt>
<totfact> 0.92743065E-01</totfact>
</mgrwt>
</event>
<event>
 6    1  0.2238133E-007  0.3107723E+04  0.7818608E-02  0.8213621E-01
          2   -1    0    0  501    0  0.00000000000E+00  0.00000000000E+00  0.40024735209E+04  0.40024735209E+04  0.00000000000E+00 0. -1.
         -2   -1    0    0    0  501 -0.00000000000E+00 -0.00000000000E+00 -0.60324850406E+03  0.60324850406E+03  0.00000000000E+00 0.  1.
         23    2    1    2    0    0  0.16062397156E+03 -0.14219868159E+04  0.25936030159E+04  0.29635060303E+04  0.88004672107E+02 0.  0.
         13    1    3    3    0    0  0.12111322075E+03 -0.75377631063E+03  0.14345446434E+04  0.16250432218E+04  0.00000000000E+00 0.  1.
        -13    1    3    3    0    0  0.39510750811E+02 -0.66821050529E+03  0.11590583725E+04  0.13384628085E+04  0.00000000000E+00 0. -1.
         22    1    1    2    0    0 -0.16062397156E+03  0.14219868159E+04  0.80562200090E+03  0.16422159947E+04  0.00000000000E+00 0.  1.
<mgrwt>
<rscale>  0 0.31077234E+04</rscale>
<asrwt>0</asrwt>
<pdfrwt beam="1">  1        2 0.61576514E+00 0.31077234E+04</pdfrwt>
<pdfrwt beam="2">  1       -2 0.92807465E-01 0.31077234E+04</pdfrwt>
<totfact> 0.28403220E-01</totfact>
</mgrwt>
</event>
<event>
 6    1  0.2238133E-007  0.8662966E+03  0.7818608E-02  0.9468722E-01
         -2   -1    0    0    0  501 -0.00000000000E+00  0.00000000000E+00  0.60591043791E+02  0.60591043791E+02  0.00000000000E+00 0.  1.
          2   -1    0    0  501    0  0.00000000000E+00 -0.00000000000E+00 -0.30964548291E+04  0.30964548291E+04  0.00000000000E+00 0. -1.
         23    2    1    2    0    0 -0.17395349836E+03  0.38668184344E+03 -0.17582998753E+04  0.18109581300E+04  0.90378256142E+02 0.  0.
         13    1    3    3    0    0 -0.16692062228E+03  0.33117565761E+03 -0.13987136014E+04  0.14470451096E+04  0.00000000000E+00 0.  1.
        -13    1    3    3    0    0 -0.70328760739E+01  0.55506185831E+02 -0.35958627392E+03  0.36391302039E+03  0.00000000000E+00 0. -1.
         22    1    1    2    0    0  0.17395349836E+03 -0.38668184344E+03 -0.12775639100E+04  0.13460877430E+04  0.00000000000E+00 0.  1.
<mgrwt>
<rscale>  0 0.86629655E+03</rscale>
<asrwt>0</asrwt>
<pdfrwt beam="1">  1        2 0.47637781E+00 0.86629655E+03</pdfrwt>
<pdfrwt beam="2">  1       -2 0.93216962E-02 0.86629655E+03</pdfrwt>
<totfact> 0.12155959E+02</totfact>
</mgrwt>
</event>
<event>
 6    1  0.2238133E-007  0.2263853E+04  0.7818608E-02  0.8492311E-01
         -2   -1    0    0    0  501 -0.00000000000E+00  0.00000000000E+00  0.64030253541E+03  0.64030253541E+03  0.00000000000E+00 0.  1.
          2   -1    0    0  501    0  0.00000000000E+00 -0.00000000000E+00 -0.20010190641E+04  0.20010190641E+04  0.00000000000E+00 0. -1.
         23    2    1    2    0    0  0.45822735005E+03 -0.12782038715E+03  0.51404266766E+03  0.70714673669E+03  0.97500191419E+02 0.  0.
         11    1    3    3    0    0  0.41824780907E+03 -0.93759433532E+02  0.42401436931E+03  0.60291810932E+03  0.00000000000E+00 0. -1.
        -11    1    3    3    0    0  0.39979540980E+02 -0.34060953619E+02  0.90028298351E+02  0.10422862736E+03  0.00000000000E+00 0.  1.
         22    1    1    2    0    0 -0.45822735005E+03  0.12782038715E+03 -0.18747591964E+04  0.19341748628E+04  0.00000000000E+00 0. -1.
<mgrwt>
<rscale>  0 0.22638530E+04</rscale>
<asrwt>0</asrwt>
<pdfrwt beam="1">  1        2 0.30784909E+00 0.22638530E+04</pdfrwt>
<pdfrwt beam="2">  1       -2 0.98508082E-01 0.22638530E+04</pdfrwt>
<totfact> 0.51925541E+00</totfact>
</mgrwt>
</event>
<event>
 6    1  0.2238133E-007  0.2594541E+04  0.7818608E-02  0.8370058E-01
          2   -1    0    0  501    0  0.00000000000E+00  0.00000000000E+00  0.56577690330E+03  0.56577690330E+03  0.00000000000E+00 0. -1.
         -2   -1    0    0    0  501 -0.00000000000E+00 -0.00000000000E+00 -0.29745132760E+04  0.29745132760E+04  0.00000000000E+00 0.  1.
         23    2    1    2    0    0  0.83808726991E+03 -0.68692771394E+03 -0.21750729776E+04  0.24317512587E+04  0.90618819802E+02 0.  0.
         11    1    3    3    0    0  0.42506565831E+03 -0.39185925813E+03 -0.12255972128E+04  0.13551099660E+04  0.00000000000E+00 0.  1.
        -11    1    3    3    0    0  0.41302161160E+03 -0.29506845581E+03 -0.94947576477E+03  0.10766412927E+04  0.00000000000E+00 0. -1.
         22    1    1    2    0    0 -0.83808726991E+03  0.68692771394E+03 -0.23366339512E+03  0.11085389206E+04  0.00000000000E+00 0. -1.
<mgrwt>
<rscale>  0 0.25945411E+04</rscale>
<asrwt>0</asrwt>
<pdfrwt beam="1">  1        2 0.87042600E-01 0.25945411E+04</pdfrwt>
<pdfrwt beam="2">  1       -2 0.45761743E+00 0.25945411E+04</pdfrwt>
<totfact> 0.14541175E-01</totfact>
</mgrwt>
</event>
<event>
 6    1  0.2238133E-007  0.1315025E+04  0.7818608E-02  0.9017734E-01
         -2   -1    0    0    0  501 -0.00000000000E+00  0.00000000000E+00  0.44510332718E+03  0.44510332718E+03  0.00000000000E+00 0.  1.
          2   -1    0    0  501    0  0.00000000000E+00 -0.00000000000E+00 -0.97128621881E+03  0.97128621881E+03  0.00000000000E+00 0. -1.
         23    2    1    2    0    0  0.57290985601E+03 -0.15516780033E+03 -0.56156188971E+03  0.82178512045E+03  0.87614375806E+02 0.  0.
         11    1    3    3    0    0  0.32481489994E+03 -0.13268081353E+03 -0.32938004463E+03  0.48124851304E+03  0.00000000000E+00 0. -1.
        -11    1    3    3    0    0  0.24809495607E+03 -0.22486986800E+02 -0.23218184509E+03  0.34053660741E+03  0.00000000000E+00 0.  1.
         22    1    1    2    0    0 -0.57290985601E+03  0.15516780033E+03  0.35378998077E+02  0.59460442554E+03  0.00000000000E+00 0.  1.
<mgrwt>
<rscale>  0 0.13150251E+04</rscale>
<asrwt>0</asrwt>
<pdfrwt beam="1">  1        2 0.14942865E+00 0.13150251E+04</pdfrwt>
<pdfrwt beam="2">  1       -2 0.68477435E-01 0.13150251E+04</pdfrwt>
<totfact> 0.50218848E+01</totfact>
</mgrwt>
</event>
<event>
 6    1  0.2238133E-007  0.2000584E+04  0.7818608E-02  0.8606348E-01
         -2   -1    0    0    0  501 -0.00000000000E+00  0.00000000000E+00  0.70553870675E+03  0.70553870675E+03  0.00000000000E+00 0.  1.
          2   -1    0    0  501    0  0.00000000000E+00 -0.00000000000E+00 -0.14181841215E+04  0.14181841215E+04  0.00000000000E+00 0. -1.
         23    2    1    2    0    0  0.90013571182E+03 -0.43092780345E+03 -0.32607528910E+03  0.10534987706E+04  0.87129180064E+02 0.  0.
         13    1    3    3    0    0  0.33057454502E+03 -0.11374438676E+03 -0.12496364865E+03  0.37125897810E+03  0.00000000000E+00 0. -1.
        -13    1    3    3    0    0  0.56956116679E+03 -0.31718341670E+03 -0.20111164044E+03  0.68223979250E+03  0.00000000000E+00 0.  1.
         22    1    1    2    0    0 -0.90013571182E+03  0.43092780345E+03 -0.38657012562E+03  0.10702240576E+04  0.00000000000E+00 0. -1.
<mgrwt>
<rscale>  0 0.20005837E+04</rscale>
<asrwt>0</asrwt>
<pdfrwt beam="1">  1        2 0.21818217E+00 0.20005837E+04</pdfrwt>
<pdfrwt beam="2">  1       -2 0.10854442E+00 0.20005837E+04</pdfrwt>
<totfact> 0.89075261E+00</totfact>
</mgrwt>
</event>
<event>
 6    1  0.2238133E-007  0.2672184E+04  0.7818608E-02  0.8344087E-01
         -1   -1    0    0    0  501 -0.00000000000E+00  0.00000000000E+00  0.10248984239E+04  0.10248984239E+04  0.00000000000E+00 0.  1.
          1   -1    0    0  501    0  0.00000000000E+00 -0.00000000000E+00 -0.17417738214E+04  0.17417738214E+04  0.00000000000E+00 0. -1.
         23    2    1    2    0    0  0.29534587392E+03  0.12928371844E+04 -0.51327045023E+03  0.14249896654E+04  0.92151076575E+02 0.  0.
         11    1    3    3    0    0  0.10651828739E+03  0.61670689710E+03 -0.20816095062E+03  0.65954872742E+03  0.00000000000E+00 0. -1.
        -11    1    3    3    0    0  0.18882758653E+03  0.67613028729E+03 -0.30510949961E+03  0.76544093800E+03  0.00000000000E+00 0.  1.
         22    1    1    2    0    0 -0.29534587392E+03 -0.12928371844E+04 -0.20360494734E+03  0.13416825799E+04  0.00000000000E+00 0.  1.
<mgrwt>
<rscale>  0 0.26721836E+04</rscale>
<asrwt>0</asrwt>
<pdfrwt beam="1">  1        1 0.26796520E+00 0.26721836E+04</pdfrwt>
<pdfrwt beam="2">  1       -1 0.15767668E+00 0.26721836E+04</pdfrwt>
<totfact> 0.11890865E+00</totfact>
</mgrwt>
</event>
<event>
 6    1  0.2238133E-007  0.5487446E+04  0.7818608E-02  0.7757419E-01
          2   -1    0    0  501    0  0.00000000000E+00  0.00000000000E+00  0.20569540249E+04  0.20569540249E+04  0.00000000000E+00 0. -1.
         -2   -1    0    0    0  501 -0.00000000000E+00 -0.00000000000E+00 -0.36597884337E+04  0.36597884337E+04  0.00000000000E+00 0.  1.
         23    2    1    2    0    0 -0.87900375831E+03  0.24269967137E+04  0.16498219407E+03  0.25881427404E+04  0.91121155047E+02 0.  0.
         11    1    3    3    0    0 -0.22310765440E+03  0.73447600125E+03  0.59386459306E+02  0.76990828896E+03  0.00000000000E+00 0. -1.
        -11    1    3    3    0    0 -0.65589610391E+03  0.16925207124E+04  0.10559573476E+03  0.18182344514E+04  0.00000000000E+00 0.  1.
         22    1    1    2    0    0  0.87900375831E+03 -0.24269967137E+04 -0.17678166029E+04  0.31285997182E+04  0.00000000000E+00 0.  1.
<mgrwt>
<rscale>  0 0.54874462E+04</rscale>
<asrwt>0</asrwt>
<pdfrwt beam="1">  1        2 0.31645447E+00 0.54874462E+04</pdfrwt>
<pdfrwt beam="2">  1       -2 0.56304437E+00 0.54874462E+04</pdfrwt>
<totfact> 0.32465851E-03</totfact>
</mgrwt>
</event>
<event>
 6    1  0.2238133E-007  0.2612790E+04  0.7818608E-02  0.8363870E-01
         -2   -1    0    0    0  501 -0.00000000000E+00  0.00000000000E+00  0.27556294571E+04  0.27556294571E+04  0.00000000000E+00 0.  1.
          2   -1    0    0  501    0  0.00000000000E+00 -0.00000000000E+00 -0.61933882175E+03  0.61933882175E+03  0.00000000000E+00 0. -1.
         23    2    1    2    0    0 -0.24690771168E+03 -0.12353304898E+04  0.63046825912E+03  0.14116787266E+04  0.91333258554E+02 0.  0.
         11    1    3    3    0    0 -0.20444530667E+03 -0.81149894444E+03  0.43132558049E+03  0.94147234513E+03  0.00000000000E+00 0.  1.
        -11    1    3    3    0    0 -0.42462405012E+02 -0.42383154540E+03  0.19914267863E+03  0.47020638146E+03  0.00000000000E+00 0. -1.
         22    1    1    2    0    0  0.24690771168E+03  0.12353304898E+04  0.15058223762E+04  0.19632895522E+04  0.00000000000E+00 0.  1.
<mgrwt>
<rscale>  0 0.26127903E+04</rscale>
<asrwt>0</asrwt>
<pdfrwt beam="1">  1        2 0.95282898E-01 0.26127903E+04</pdfrwt>
<pdfrwt beam="2">  1       -2 0.42394298E+00 0.26127903E+04</pdfrwt>
<totfact> 0.21763208E-01</totfact>
</mgrwt>
</event>
<event>
 6    1  0.2238133E-007  0.3493207E+04  0.7818608E-02  0.8115402E-01
         -2   -1    0    0    0  501 -0.00000000000E+00  0.00000000000E+00  0.10026620846E+04  0.10026620846E+04  0.00000000000E+00 0.  1.
          2   -1    0    0  501    0  0.00000000000E+00 -0.00000000000E+00 -0.30425246477E+04  0.30425246477E+04  0.00000000000E+00 0. -1.
         23    2    1    2    0    0 -0.30650492507E+02  0.96848255853E+03 -0.27018189278E+04  0.28716944453E+04  0.88913156271E+02 0.  0.
         13    1    3    3    0    0  0.26041371299E+02  0.41261058613E+03 -0.12087020177E+04  0.12774530192E+04  0.00000000000E+00 0.  1.
        -13    1    3    3    0    0 -0.56691863806E+02  0.55587197239E+03 -0.14931169102E+04  0.15942414261E+04  0.00000000000E+00 0. -1.
         22    1    1    2    0    0  0.30650492507E+02 -0.96848255853E+03  0.66195636480E+03  0.11734922870E+04  0.00000000000E+00 0.  1.
<mgrwt>
<rscale>  0 0.34932072E+04</rscale>
<asrwt>0</asrwt>
<pdfrwt beam="1">  1        2 0.46808070E+00 0.34932072E+04</pdfrwt>
<pdfrwt beam="2">  1       -2 0.15425571E+00 0.34932072E+04</pdfrwt>
<totfact> 0.37398634E-01</totfact>
</mgrwt>
</event>
<event>
 6    1  0.2238133E-007  0.1681052E+04  0.7818608E-02  0.8772245E-01
          2   -1    0    0  501    0  0.00000000000E+00  0.00000000000E+00  0.27700263878E+04  0.27700263878E+04  0.00000000000E+00 0. -1.
         -2   -1    0    0    0  501 -0.00000000000E+00 -0.00000000000E+00 -0.25504605758E+03  0.25504605758E+03  0.00000000000E+00 0.  1.
         23    2    1    2    0    0  0.39777189992E+03  0.56282626523E+03  0.40308795705E+03  0.80356726082E+03  0.90799517308E+02 0.  0.
         13    1    3    3    0    0  0.30843049635E+03  0.36628344090E+03  0.29056635429E+03  0.56010868267E+03  0.00000000000E+00 0.  1.
        -13    1    3    3    0    0  0.89341403576E+02  0.19654282433E+03  0.11252160276E+03  0.24345857815E+03  0.00000000000E+00 0. -1.
         22    1    1    2    0    0 -0.39777189992E+03 -0.56282626523E+03  0.21118923732E+04  0.22215051845E+04  0.00000000000E+00 0. -1.
<mgrwt>
<rscale>  0 0.16810524E+04</rscale>
<asrwt>0</asrwt>
<pdfrwt beam="1">  1        2 0.42615789E+00 0.16810524E+04</pdfrwt>
<pdfrwt beam="2">  1       -2 0.39237857E-01 0.16810524E+04</pdfrwt>
<totfact> 0.14155741E+01</totfact>
</mgrwt>
</event>
<event>
 6    1  0.2238133E-007  0.1567231E+04  0.7818608E-02  0.8840936E-01
          2   -1    0    0  501    0  0.00000000000E+00  0.00000000000E+00  0.19233085060E+04  0.19233085060E+04  0.00000000000E+00 0. -1.
         -2   -1    0    0    0  501 -0.00000000000E+00 -0.00000000000E+00 -0.31926937979E+03  0.31926937979E+03  0.00000000000E+00 0.  1.
         23    2    1    2    0    0  0.53504173094E+03  0.13610342040E+03  0.15952173573E+04  0.16904260783E+04  0.89599745328E+02 0.  0.
         13    1    3    3    0    0  0.44996338603E+03  0.13450285522E+03  0.14198518714E+04  0.14955057350E+04  0.00000000000E+00 0. -1.
        -13    1    3    3    0    0  0.85078344907E+02  0.16005651784E+01  0.17536548594E+03  0.19492034332E+03  0.00000000000E+00 0.  1.
         22    1    1    2    0    0 -0.53504173094E+03 -0.13610342040E+03  0.88217689099E+01  0.55215180747E+03  0.00000000000E+00 0.  1.
<mgrwt>
<rscale>  0 0.15672313E+04</rscale>
<asrwt>0</asrwt>
<pdfrwt beam="1">  1        2 0.29589361E+00 0.15672313E+04</pdfrwt>
<pdfrwt beam="2">  1       -2 0.49118367E-01 0.15672313E+04</pdfrwt>
<totfact> 0.27806948E+01</totfact>
</mgrwt>
</event>
<event>
 6    1  0.2238133E-007  0.3664442E+04  0.7818608E-02  0.8075888E-01
          2   -1    0    0  501    0  0.00000000000E+00  0.00000000000E+00  0.21390042463E+04  0.21390042463E+04  0.00000000000E+00 0. -1.
         -2   -1    0    0    0  501 -0.00000000000E+00 -0.00000000000E+00 -0.15694374708E+04  0.15694374708E+04  0.00000000000E+00 0.  1.
         23    2    1    2    0    0  0.24456629926E+03  0.44245342091E+03 -0.14960935838E+04  0.15818175321E+04  0.90955972292E+02 0.  0.
         13    1    3    3    0    0  0.53738223596E+02  0.76050879585E+02 -0.39358941816E+03  0.40445539067E+03  0.00000000000E+00 0. -1.
        -13    1    3    3    0    0  0.19082807566E+03  0.36640254133E+03 -0.11025041657E+04  0.11773621414E+04  0.00000000000E+00 0.  1.
         22    1    1    2    0    0 -0.24456629926E+03 -0.44245342091E+03  0.20656603593E+04  0.21266241850E+04  0.00000000000E+00 0. -1.
<mgrwt>
<rscale>  0 0.36644418E+04</rscale>
<asrwt>0</asrwt>
<pdfrwt beam="1">  1        2 0.32907758E+00 0.36644418E+04</pdfrwt>
<pdfrwt beam="2">  1       -2 0.24145192E+00 0.36644418E+04</pdfrwt>
<totfact> 0.32872663E-01</totfact>
</mgrwt>
</event>
<event>
 6    1  0.2238133E-007  0.3176035E+04  0.7818608E-02  0.8195175E-01
          2   -1    0    0  501    0  0.00000000000E+00  0.00000000000E+00  0.20145702359E+04  0.20145702359E+04  0.00000000000E+00 0. -1.
         -2   -1    0    0    0  501 -0.00000000000E+00 -0.00000000000E+00 -0.12517801823E+04  0.12517801823E+04  0.00000000000E+00 0.  1.
         23    2    1    2    0    0 -0.14614935653E+04 -0.40839307937E+03  0.85735077836E+03  0.17459261092E+04  0.10227058727E+03 0.  0.
         13    1    3    3    0    0 -0.82207491859E+03 -0.26679808987E+03  0.52884701366E+03  0.10132460493E+04  0.00000000000E+00 0.  1.
        -13    1    3    3    0    0 -0.63941864667E+03 -0.14159498950E+03  0.32850376471E+03  0.73268005991E+03  0.00000000000E+00 0. -1.
         22    1    1    2    0    0  0.14614935653E+04  0.40839307937E+03 -0.94560724727E+02  0.15204243090E+04  0.00000000000E+00 0.  1.
<mgrwt>
<rscale>  0 0.31760347E+04</rscale>
<asrwt>0</asrwt>
<pdfrwt beam="1">  1        2 0.30993388E+00 0.31760347E+04</pdfrwt>
<pdfrwt beam="2">  1       -2 0.19258157E+00 0.31760347E+04</pdfrwt>
<totfact> 0.82416865E-01</totfact>
</mgrwt>
</event>
<event>
 6    1  0.2238133E-007  0.1260841E+04  0.7818608E-02  0.9061208E-01
          2   -1    0    0  501    0  0.00000000000E+00  0.00000000000E+00  0.53659289040E+03  0.53659289040E+03  0.00000000000E+00 0. -1.
         -2   -1    0    0    0  501 -0.00000000000E+00 -0.00000000000E+00 -0.74065447726E+03  0.74065447726E+03  0.00000000000E+00 0.  1.
         23    2    1    2    0    0 -0.28447039786E+02  0.40043827516E+03 -0.59066875437E+03  0.71990981443E+03  0.90667068100E+02 0.  0.
         11    1    3    3    0    0 -0.40884869355E+02  0.71337963334E+02 -0.11820605788E+03  0.14399079719E+03  0.00000000000E+00 0.  1.
        -11    1    3    3    0    0  0.12437829569E+02  0.32910031182E+03 -0.47246269648E+03  0.57591901724E+03  0.00000000000E+00 0. -1.
         22    1    1    2    0    0  0.28447039786E+02 -0.40043827516E+03  0.38660716750E+03  0.55733755324E+03  0.00000000000E+00 0. -1.
<mgrwt>
<rscale>  0 0.12608409E+04</rscale>
<asrwt>0</asrwt>
<pdfrwt beam="1">  1        2 0.82552752E-01 0.12608409E+04</pdfrwt>
<pdfrwt beam="2">  1       -2 0.11394684E+00 0.12608409E+04</pdfrwt>
<totfact> 0.33591080E+01</totfact>
</mgrwt>
</event>
<event>
 6    1  0.2238133E-007  0.2124825E+04  0.7818608E-02  0.8550386E-01
          2   -1    0    0  501    0  0.00000000000E+00  0.00000000000E+00  0.29923338254E+04  0.29923338254E+04  0.00000000000E+00 0. -1.
         -2   -1    0    0    0  501 -0.00000000000E+00 -0.00000000000E+00 -0.37720416058E+03  0.37720416058E+03  0.00000000000E+00 0.  1.
         23    2    1    2    0    0 -0.57696778905E+03  0.88870446454E+03  0.13384303862E+04  0.17104272293E+04  0.10713520975E+03 0.  0.
         11    1    3    3    0    0 -0.35347204742E+02  0.11599848503E+03  0.15927636760E+03  0.20018500116E+03  0.00000000000E+00 0. -1.
        -11    1    3    3    0    0 -0.54162058431E+03  0.77270597951E+03  0.11791540186E+04  0.15102422281E+04  0.00000000000E+00 0.  1.
         22    1    1    2    0    0  0.57696778905E+03 -0.88870446454E+03  0.12766992787E+04  0.16591107567E+04  0.00000000000E+00 0.  1.
<mgrwt>
<rscale>  0 0.21248254E+04</rscale>
<asrwt>0</asrwt>
<pdfrwt beam="1">  1        2 0.46035903E+00 0.21248254E+04</pdfrwt>
<pdfrwt beam="2">  1       -2 0.58031411E-01 0.21248254E+04</pdfrwt>
<totfact> 0.45065383E+00</totfact>
</mgrwt>
</event>
<event>
 6    1  0.2238133E-007  0.1198406E+04  0.7818608E-02  0.9114252E-01
         -2   -1    0    0    0  501 -0.00000000000E+00  0.00000000000E+00  0.25212041428E+03  0.25212041428E+03  0.00000000000E+00 0.  1.
          2   -1    0    0  501    0  0.00000000000E+00 -0.00000000000E+00 -0.14240993573E+04  0.14240993573E+04  0.00000000000E+00 0. -1.
         23    2    1    2    0    0  0.37257647749E+03 -0.46404219801E+03 -0.62779802975E+03  0.86981958589E+03  0.91144680186E+02 0.  0.
         11    1    3    3    0    0  0.34410743235E+03 -0.39140124222E+03 -0.57253461515E+03  0.77420975385E+03  0.00000000000E+00 0. -1.
        -11    1    3    3    0    0  0.28469045136E+02 -0.72640955795E+02 -0.55263414601E+02  0.95609832042E+02  0.00000000000E+00 0.  1.
         22    1    1    2    0    0 -0.37257647749E+03  0.46404219801E+03 -0.54418091329E+03  0.80640018570E+03  0.00000000000E+00 0. -1.
<mgrwt>
<rscale>  0 0.11984065E+04</rscale>
<asrwt>0</asrwt>
<pdfrwt beam="1">  1        2 0.21909221E+00 0.11984065E+04</pdfrwt>
<pdfrwt beam="2">  1       -2 0.38787757E-01 0.11984065E+04</pdfrwt>
<totfact> 0.86839378E+01</totfact>
</mgrwt>
</event>
<event>
 6    1  0.2238133E-007  0.1450853E+04  0.7818608E-02  0.8917809E-01
         -2   -1    0    0    0  501 -0.00000000000E+00  0.00000000000E+00  0.15399556083E+03  0.15399556083E+03  0.00000000000E+00 0.  1.
          2   -1    0    0  501    0  0.00000000000E+00 -0.00000000000E+00 -0.34172647638E+04  0.34172647638E+04  0.00000000000E+00 0. -1.
         23    2    1    2    0    0 -0.29294465936E+03  0.59619303033E+03 -0.23379597442E+04  0.24321991773E+04  0.90963562366E+02 0.  0.
         11    1    3    3    0    0 -0.20963976273E+03  0.35635168895E+03 -0.13317571499E+04  0.13944577666E+04  0.00000000000E+00 0. -1.
        -11    1    3    3    0    0 -0.83304896630E+02  0.23984134139E+03 -0.10062025943E+04  0.10377414107E+04  0.00000000000E+00 0.  1.
         22    1    1    2    0    0  0.29294465936E+03 -0.59619303033E+03 -0.92530945879E+03  0.11390611473E+04  0.00000000000E+00 0.  1.
<mgrwt>
<rscale>  0 0.14508530E+04</rscale>
<asrwt>0</asrwt>
<pdfrwt beam="1">  1        2 0.52573305E+00 0.14508530E+04</pdfrwt>
<pdfrwt beam="2">  1       -2 0.23691624E-01 0.14508530E+04</pdfrwt>
<totfact> 0.14428621E+01</totfact>
</mgrwt>
</event>
<event>
 6    1  0.2238133E-007  0.4471824E+04  0.7818608E-02  0.7915588E-01
          2   -1    0    0  501    0  0.00000000000E+00  0.00000000000E+00  0.18619287110E+04  0.18619287110E+04  0.00000000000E+00 0. -1.
         -2   -1    0    0    0  501 -0.00000000000E+00 -0.00000000000E+00 -0.26850128954E+04  0.26850128954E+04  0.00000000000E+00 0.  1.
         23    2    1    2    0    0  0.48325701292E+03  0.10191745586E+04 -0.23734536798E+04  0.26296780112E+04  0.98335910625E+02 0.  0.
         13    1    3    3    0    0  0.45589956804E+01  0.47572689959E+02 -0.12833554505E+03  0.13694508897E+03  0.00000000000E+00 0.  1.
        -13    1    3    3    0    0  0.47869801724E+03  0.97160186868E+03 -0.22451181347E+04  0.24927329223E+04  0.00000000000E+00 0. -1.
         22    1    1    2    0    0 -0.48325701292E+03 -0.10191745586E+04  0.15503694953E+04  0.19172635952E+04  0.00000000000E+00 0. -1.
<mgrwt>
<rscale>  0 0.44718241E+04</rscale>
<asrwt>0</asrwt>
<pdfrwt beam="1">  1        2 0.28645057E+00 0.44718241E+04</pdfrwt>
<pdfrwt beam="2">  1       -2 0.41307891E+00 0.44718241E+04</pdfrwt>
<totfact> 0.36885319E-02</totfact>
</mgrwt>
</event>
<event>
 6    1  0.2238133E-007  0.1802397E+04  0.7818608E-02  0.8705026E-01
          2   -1    0    0  501    0  0.00000000000E+00  0.00000000000E+00  0.21791260610E+04  0.21791260610E+04  0.00000000000E+00 0. -1.
         -2   -1    0    0    0  501 -0.00000000000E+00 -0.00000000000E+00 -0.37269908840E+03  0.37269908840E+03  0.00000000000E+00 0.  1.
         23    2    1    2    0    0  0.84848398730E+03 -0.90711461465E+02  0.13055513317E+04  0.15623656739E+04  0.91479907812E+02 0.  0.
         11    1    3    3    0    0  0.74349599939E+03 -0.86447918433E+02  0.11931656791E+04  0.14085112287E+04  0.00000000000E+00 0. -1.
        -11    1    3    3    0    0  0.10498798791E+03 -0.42635430323E+01  0.11238565260E+03  0.15385444522E+03  0.00000000000E+00 0.  1.
         22    1    1    2    0    0 -0.84848398730E+03  0.90711461465E+02  0.50087564096E+03  0.98945947550E+03  0.00000000000E+00 0.  1.
<mgrwt>
<rscale>  0 0.18023965E+04</rscale>
<asrwt>0</asrwt>
<pdfrwt beam="1">  1        2 0.33525016E+00 0.18023965E+04</pdfrwt>
<pdfrwt beam="2">  1       -2 0.57338322E-01 0.18023965E+04</pdfrwt>
<totfact> 0.14274539E+01</totfact>
</mgrwt>
</event>
<event>
 6    1  0.2238133E-007  0.2350614E+04  0.7818608E-02  0.8458228E-01
         -2   -1    0    0    0  501 -0.00000000000E+00  0.00000000000E+00  0.44408767368E+03  0.44408767368E+03  0.00000000000E+00 0.  1.
          2   -1    0    0  501    0  0.00000000000E+00 -0.00000000000E+00 -0.31105274782E+04  0.31105274782E+04  0.00000000000E+00 0. -1.
         23    2    1    2    0    0  0.98824912060E+03  0.50006927054E+03 -0.74916629809E+03  0.13404238101E+04  0.93702981250E+02 0.  0.
         11    1    3    3    0    0  0.28003802101E+03  0.17681274663E+03 -0.25938897068E+03  0.42067407656E+03  0.00000000000E+00 0.  1.
        -11    1    3    3    0    0  0.70821109960E+03  0.32325652391E+03 -0.48977732741E+03  0.91974973351E+03  0.00000000000E+00 0. -1.
         22    1    1    2    0    0 -0.98824912060E+03 -0.50006927054E+03 -0.19172735064E+04  0.22141913418E+04  0.00000000000E+00 0. -1.
<mgrwt>
<rscale>  0 0.23506143E+04</rscale>
<asrwt>0</asrwt>
<pdfrwt beam="1">  1        2 0.47854266E+00 0.23506143E+04</pdfrwt>
<pdfrwt beam="2">  1       -2 0.68321185E-01 0.23506143E+04</pdfrwt>
<totfact> 0.26243840E+00</totfact>
</mgrwt>
</event>
<event>
 6    1  0.2238133E-007  0.7455579E+03  0.7818608E-02  0.9642345E-01
          2   -1    0    0  501    0  0.00000000000E+00  0.00000000000E+00  0.73060113052E+03  0.73060113052E+03  0.00000000000E+00 0. -1.
         -2   -1    0    0    0  501 -0.00000000000E+00 -0.00000000000E+00 -0.19020522141E+03  0.19020522141E+03  0.00000000000E+00 0.  1.
         23    2    1    2    0    0  0.33708999450E+03  0.13791161869E+03  0.33136833119E+03  0.50087563467E+03  0.91772280819E+02 0.  0.
         13    1    3    3    0    0  0.17689754369E+03  0.24554590061E+02  0.17379792303E+03  0.24920149860E+03  0.00000000000E+00 0.  1.
        -13    1    3    3    0    0  0.16019245082E+03  0.11335702863E+03  0.15757040816E+03  0.25167413607E+03  0.00000000000E+00 0. -1.
         22    1    1    2    0    0 -0.33708999450E+03 -0.13791161869E+03  0.20902757793E+03  0.41993071726E+03  0.00000000000E+00 0.  1.
<mgrwt>
<rscale>  0 0.74555791E+03</rscale>
<asrwt>0</asrwt>
<pdfrwt beam="1">  1        2 0.11240017E+00 0.74555791E+03</pdfrwt>
<pdfrwt beam="2">  1       -2 0.29262342E-01 0.74555791E+03</pdfrwt>
<totfact> 0.41891408E+02</totfact>
</mgrwt>
</event>
<event>
 6    1  0.2238133E-007  0.3032838E+04  0.7818608E-02  0.8234416E-01
         -2   -1    0    0    0  501 -0.00000000000E+00  0.00000000000E+00  0.19097734722E+04  0.19097734722E+04  0.00000000000E+00 0.  1.
          2   -1    0    0  501    0  0.00000000000E+00 -0.00000000000E+00 -0.12040830998E+04  0.12040830998E+04  0.00000000000E+00 0. -1.
         23    2    1    2    0    0  0.98126135630E+03 -0.10280670898E+04  0.89173190529E+03  0.16805362162E+04  0.96022874435E+02 0.  0.
         13    1    3    3    0    0  0.42874831868E+03 -0.38267699901E+03  0.34749536444E+03  0.67158010293E+03  0.00000000000E+00 0. -1.
        -13    1    3    3    0    0  0.55251303762E+03 -0.64539009079E+03  0.54423654085E+03  0.10089561132E+04  0.00000000000E+00 0.  1.
         22    1    1    2    0    0 -0.98126135630E+03  0.10280670898E+04 -0.18604153283E+03  0.14333203558E+04  0.00000000000E+00 0.  1.
<mgrwt>
<rscale>  0 0.30328376E+04</rscale>
<asrwt>0</asrwt>
<pdfrwt beam="1">  1        2 0.18524355E+00 0.30328376E+04</pdfrwt>
<pdfrwt beam="2">  1       -2 0.29381130E+00 0.30328376E+04</pdfrwt>
<totfact> 0.55757851E-01</totfact>
</mgrwt>
</event>
<event>
 6    1  0.2238133E-007  0.1537318E+04  0.7818608E-02  0.8860009E-01
         -2   -1    0    0    0  501 -0.00000000000E+00  0.00000000000E+00  0.11410616592E+04  0.11410616592E+04  0.00000000000E+00 0.  1.
          2   -1    0    0  501    0  0.00000000000E+00 -0.00000000000E+00 -0.51779573290E+03  0.51779573290E+03  0.00000000000E+00 0. -1.
         23    2    1    2    0    0 -0.66120687093E+03 -0.11854563902E+03 -0.84759567575E+02  0.68287189288E+03  0.88781997578E+02 0.  0.
         13    1    3    3    0    0 -0.34761033989E+03 -0.24821790943E+02 -0.68513643689E+02  0.35516642447E+03  0.00000000000E+00 0. -1.
        -13    1    3    3    0    0 -0.31359653105E+03 -0.93723848072E+02 -0.16245923886E+02  0.32770546841E+03  0.00000000000E+00 0.  1.
         22    1    1    2    0    0  0.66120687093E+03  0.11854563902E+03  0.70802549385E+03  0.97598549920E+03  0.00000000000E+00 0.  1.
<mgrwt>
<rscale>  0 0.15373183E+04</rscale>
<asrwt>0</asrwt>
<pdfrwt beam="1">  1        2 0.79660882E-01 0.15373183E+04</pdfrwt>
<pdfrwt beam="2">  1       -2 0.17554795E+00 0.15373183E+04</pdfrwt>
<totfact> 0.11080123E+01</totfact>
</mgrwt>
</event>
<event>
 6    1  0.2238133E-007  0.1016136E+04  0.7818608E-02  0.9291022E-01
          2   -1    0    0  501    0  0.00000000000E+00  0.00000000000E+00  0.42001989612E+03  0.42001989612E+03  0.00000000000E+00 0. -1.
         -2   -1    0    0    0  501 -0.00000000000E+00 -0.00000000000E+00 -0.61457318454E+03  0.61457318454E+03  0.00000000000E+00 0.  1.
         23    2    1    2    0    0  0.92827539487E+01  0.40053396766E+03 -0.40938698959E+03  0.57998649478E+03  0.90956022993E+02 0.  0.
         13    1    3    3    0    0  0.36379621241E+02  0.15840354224E+03 -0.20746758662E+03  0.26354877829E+03  0.00000000000E+00 0.  1.
        -13    1    3    3    0    0 -0.27096867292E+02  0.24213042541E+03 -0.20191940296E+03  0.31643771650E+03  0.00000000000E+00 0. -1.
         22    1    1    2    0    0 -0.92827539487E+01 -0.40053396766E+03  0.21483370117E+03  0.45460658588E+03  0.00000000000E+00 0. -1.
<mgrwt>
<rscale>  0 0.10161357E+04</rscale>
<asrwt>0</asrwt>
<pdfrwt beam="1">  1        2 0.64618446E-01 0.10161357E+04</pdfrwt>
<pdfrwt beam="2">  1       -2 0.94549720E-01 0.10161357E+04</pdfrwt>
<totfact> 0.70761727E+01</totfact>
</mgrwt>
</event>
<event>
 6    1  0.2238133E-007  0.1417462E+04  0.7818608E-02  0.8941275E-01
         -2   -1    0    0    0  501 -0.00000000000E+00  0.00000000000E+00  0.21661371313E+04  0.21661371313E+04  0.00000000000E+00 0.  1.
          2   -1    0    0  501    0  0.00000000000E+00 -0.00000000000E+00 -0.23188726748E+03  0.23188726748E+03  0.00000000000E+00 0. -1.
         23    2    1    2    0    0  0.17056040656E+03 -0.68141846310E+03  0.10882585886E+04  0.12984230110E+04  0.90407885983E+02 0.  0.
         13    1    3    3    0    0  0.11999376437E+03 -0.47805484460E+03  0.83597755710E+03  0.97046041336E+03  0.00000000000E+00 0.  1.
        -13    1    3    3    0    0  0.50566642196E+02 -0.20336361850E+03  0.25228103149E+03  0.32796259769E+03  0.00000000000E+00 0. -1.
         22    1    1    2    0    0 -0.17056040656E+03  0.68141846310E+03  0.84599127529E+03  0.10996013878E+04  0.00000000000E+00 0. -1.
<mgrwt>
<rscale>  0 0.14174620E+04</rscale>
<asrwt>0</asrwt>
<pdfrwt beam="1">  1        2 0.35674966E-01 0.14174620E+04</pdfrwt>
<pdfrwt beam="2">  1       -2 0.33325185E+00 0.14174620E+04</pdfrwt>
<totfact> 0.28413648E+00</totfact>
</mgrwt>
</event>
<event>
 6    1  0.2238133E-007  0.2355933E+04  0.7818608E-02  0.8456188E-01
          1   -1    0    0  501    0  0.00000000000E+00  0.00000000000E+00  0.98058506962E+03  0.98058506962E+03  0.00000000000E+00 0. -1.
         -1   -1    0    0    0  501 -0.00000000000E+00 -0.00000000000E+00 -0.14150789349E+04  0.14150789349E+04  0.00000000000E+00 0.  1.
         23    2    1    2    0    0 -0.11755295962E+04  0.35068141235E+02 -0.23733432307E+03  0.12031995434E+04  0.90895293252E+02 0.  0.
         13    1    3    3    0    0 -0.31315419992E+03 -0.34705890572E+01 -0.24607805672E+02  0.31413873053E+03  0.00000000000E+00 0.  1.
        -13    1    3    3    0    0 -0.86237539626E+03  0.38538730292E+02 -0.21272651740E+03  0.88906081289E+03  0.00000000000E+00 0. -1.
         22    1    1    2    0    0  0.11755295962E+04 -0.35068141235E+02 -0.19715954226E+03  0.11924644612E+04  0.00000000000E+00 0. -1.
<mgrwt>
<rscale>  0 0.23559332E+04</rscale>
<asrwt>0</asrwt>
<pdfrwt beam="1">  1        1 0.15085924E+00 0.23559332E+04</pdfrwt>
<pdfrwt beam="2">  1       -1 0.21770445E+00 0.23559332E+04</pdfrwt>
<totfact> 0.16074453E+00</totfact>
</mgrwt>
</event>
<event>
 6    1  0.2238133E-007  0.2325511E+04  0.7818608E-02  0.8467930E-01
          2   -1    0    0  501    0  0.00000000000E+00  0.00000000000E+00  0.24880273343E+04  0.24880273343E+04  0.00000000000E+00 0. -1.
         -2   -1    0    0    0  501 -0.00000000000E+00 -0.00000000000E+00 -0.54340232483E+03  0.54340232483E+03  0.00000000000E+00 0.  1.
         23    2    1    2    0    0 -0.10712954479E+04  0.44158376480E+03  0.10679253357E+04  0.15784078162E+04  0.90755460282E+02 0.  0.
         13    1    3    3    0    0 -0.52550798818E+03  0.16782246477E+03  0.51281566388E+03  0.75319514764E+03  0.00000000000E+00 0. -1.
        -13    1    3    3    0    0 -0.54578745972E+03  0.27376130002E+03  0.55510967187E+03  0.82521266858E+03  0.00000000000E+00 0.  1.
         22    1    1    2    0    0  0.10712954479E+04 -0.44158376480E+03  0.87669967368E+03  0.14530218429E+04  0.00000000000E+00 0. -1.
<mgrwt>
<rscale>  0 0.23255106E+04</rscale>
<asrwt>0</asrwt>
<pdfrwt beam="1">  1        2 0.38277343E+00 0.23255106E+04</pdfrwt>
<pdfrwt beam="2">  1       -2 0.83600359E-01 0.23255106E+04</pdfrwt>
<totfact> 0.40041760E+00</totfact>
</mgrwt>
</event>
<event>
 6    1  0.2238133E-007  0.2478456E+04  0.7818608E-02  0.8410701E-01
         -2   -1    0    0    0  501 -0.00000000000E+00  0.00000000000E+00  0.16032689893E+04  0.16032689893E+04  0.00000000000E+00 0.  1.
          2   -1    0    0  501    0  0.00000000000E+00 -0.00000000000E+00 -0.95784669295E+03  0.95784669295E+03  0.00000000000E+00 0. -1.
         23    2    1    2    0    0 -0.27779310294E+03  0.11918625779E+04  0.51322746422E+03  0.13301888419E+04  0.91074214018E+02 0.  0.
         11    1    3    3    0    0 -0.21258690818E+03  0.10354336699E+04  0.45744759148E+03  0.11517701061E+04  0.00000000000E+00 0.  1.
        -11    1    3    3    0    0 -0.65206194758E+02  0.15642890798E+03  0.55779872745E+02  0.17841873582E+03  0.00000000000E+00 0. -1.
         22    1    1    2    0    0  0.27779310294E+03 -0.11918625779E+04  0.13219483208E+03  0.12309268403E+04  0.00000000000E+00 0. -1.
<mgrwt>
<rscale>  0 0.24784559E+04</rscale>
<asrwt>0</asrwt>
<pdfrwt beam="1">  1        2 0.14736103E+00 0.24784559E+04</pdfrwt>
<pdfrwt beam="2">  1       -2 0.24665677E+00 0.24784559E+04</pdfrwt>
<totfact> 0.16150002E+00</totfact>
</mgrwt>
</event>
<event>
 6    1  0.2238133E-007  0.1226538E+04  0.7818608E-02  0.9089940E-01
         -1   -1    0    0    0  501 -0.00000000000E+00  0.00000000000E+00  0.16593388993E+03  0.16593388993E+03  0.00000000000E+00 0.  1.
          1   -1    0    0  501    0  0.00000000000E+00 -0.00000000000E+00 -0.22665594325E+04  0.22665594325E+04  0.00000000000E+00 0. -1.
         23    2    1    2    0    0  0.30592112511E+03  0.31822059318E+03 -0.18906642307E+04  0.19436826912E+04  0.91864520543E+02 0.  0.
         11    1    3    3    0    0  0.71426564609E+02  0.13528417456E+03 -0.68552130378E+03  0.70238381242E+03  0.00000000000E+00 0. -1.
        -11    1    3    3    0    0  0.23449456050E+03  0.18293641862E+03 -0.12051429269E+04  0.12412988788E+04  0.00000000000E+00 0.  1.
         22    1    1    2    0    0 -0.30592112511E+03 -0.31822059318E+03 -0.20996131188E+03  0.48881063123E+03  0.00000000000E+00 0.  1.
<mgrwt>
<rscale>  0 0.12265383E+04</rscale>
<asrwt>0</asrwt>
<pdfrwt beam="1">  1        1 0.34870142E+00 0.12265383E+04</pdfrwt>
<pdfrwt beam="2">  1       -1 0.25528293E-01 0.12265383E+04</pdfrwt>
<totfact> 0.26283138E+01</totfact>
</mgrwt>
</event>
<event>
 6    1  0.2238133E-007  0.2116750E+04  0.7818608E-02  0.8553901E-01
         -2   -1    0    0    0  501 -0.00000000000E+00  0.00000000000E+00  0.11318711863E+04  0.11318711863E+04  0.00000000000E+00 0.  1.
          2   -1    0    0  501    0  0.00000000000E+00 -0.00000000000E+00 -0.98965095687E+03  0.98965095687E+03  0.00000000000E+00 0. -1.
         23    2    1    2    0    0 -0.31884614677E+03  0.72788981528E+03 -0.62654582291E+03  0.10158604898E+04  0.89030433131E+02 0.  0.
         11    1    3    3    0    0 -0.29618116258E+03  0.59507848576E+03 -0.51256747211E+03  0.83938495266E+03  0.00000000000E+00 0. -1.
        -11    1    3    3    0    0 -0.22664984189E+02  0.13281132952E+03 -0.11397835080E+03  0.17647553714E+03  0.00000000000E+00 0.  1.
         22    1    1    2    0    0  0.31884614677E+03 -0.72788981528E+03  0.76876605233E+03  0.11056616534E+04  0.00000000000E+00 0.  1.
<mgrwt>
<rscale>  0 0.21167498E+04</rscale>
<asrwt>0</asrwt>
<pdfrwt beam="1">  1        2 0.15225399E+00 0.21167498E+04</pdfrwt>
<pdfrwt beam="2">  1       -2 0.17413403E+00 0.21167498E+04</pdfrwt>
<totfact> 0.46894344E+00</totfact>
</mgrwt>
</event>
<event>
 6    1  0.2238133E-007  0.1730054E+04  0.7818608E-02  0.8744406E-01
         -2   -1    0    0    0  501 -0.00000000000E+00  0.00000000000E+00  0.10776051662E+04  0.10776051662E+04  0.00000000000E+00 0.  1.
          2   -1    0    0  501    0  0.00000000000E+00 -0.00000000000E+00 -0.69438426618E+03  0.69438426618E+03  0.00000000000E+00 0. -1.
         23    2    1    2    0    0  0.21390339044E+03  0.65057567358E+03  0.72935425435E+03  0.10046487868E+04  0.91423131469E+02 0.  0.
         13    1    3    3    0    0  0.15464281395E+03  0.40046329385E+03  0.51098104633E+03  0.66737311853E+03  0.00000000000E+00 0. -1.
        -13    1    3    3    0    0  0.59260576492E+02  0.25011237973E+03  0.21837320802E+03  0.33727566826E+03  0.00000000000E+00 0.  1.
         22    1    1    2    0    0 -0.21390339044E+03 -0.65057567358E+03 -0.34613335428E+03  0.76734064563E+03  0.00000000000E+00 0. -1.
<mgrwt>
<rscale>  0 0.17300544E+04</rscale>
<asrwt>0</asrwt>
<pdfrwt beam="1">  1        2 0.10682835E+00 0.17300544E+04</pdfrwt>
<pdfrwt beam="2">  1       -2 0.16578541E+00 0.17300544E+04</pdfrwt>
<totfact> 0.89729426E+00</totfact>
</mgrwt>
</event>
<event>
 6    1  0.2238133E-007  0.3499110E+04  0.7818608E-02  0.8114001E-01
         -2   -1    0    0    0  501 -0.00000000000E+00  0.00000000000E+00  0.13399564004E+04  0.13399564004E+04  0.00000000000E+00 0.  1.
          2   -1    0    0  501    0  0.00000000000E+00 -0.00000000000E+00 -0.22843595812E+04  0.22843595812E+04  0.00000000000E+00 0. -1.
         23    2    1    2    0    0  0.74341938265E+03  0.73743402115E+03 -0.19227213462E+04  0.21912815275E+04  0.91520727008E+02 0.  0.
         11    1    3    3    0    0  0.21659759948E+03  0.17556663086E+03 -0.57383285828E+03  0.63798300229E+03  0.00000000000E+00 0. -1.
        -11    1    3    3    0    0  0.52682178317E+03  0.56186739028E+03 -0.13488884879E+04  0.15532985252E+04  0.00000000000E+00 0.  1.
         22    1    1    2    0    0 -0.74341938265E+03 -0.73743402115E+03  0.97831816543E+03  0.14330344542E+04  0.00000000000E+00 0.  1.
<mgrwt>
<rscale>  0 0.34991097E+04</rscale>
<asrwt>0</asrwt>
<pdfrwt beam="1">  1        2 0.35143993E+00 0.34991097E+04</pdfrwt>
<pdfrwt beam="2">  1       -2 0.20614714E+00 0.34991097E+04</pdfrwt>
<totfact> 0.46110187E-01</totfact>
</mgrwt>
</event>
<event>
 6    1  0.2238133E-007  0.4065424E+04  0.7818608E-02  0.7991477E-01
         -2   -1    0    0    0  501 -0.00000000000E+00  0.00000000000E+00  0.14234020726E+04  0.14234020726E+04  0.00000000000E+00 0.  1.
          2   -1    0    0  501    0  0.00000000000E+00 -0.00000000000E+00 -0.29028461719E+04  0.29028461719E+04  0.00000000000E+00 0. -1.
         23    2    1    2    0    0  0.24548612203E+03  0.16417135009E+04 -0.19866428962E+04  0.25905243970E+04  0.92628287156E+02 0.  0.
         11    1    3    3    0    0  0.14483546826E+03  0.72238069991E+03 -0.92486113856E+03  0.11824463261E+04  0.00000000000E+00 0. -1.
        -11    1    3    3    0    0  0.10065065377E+03  0.91933280096E+03 -0.10617817576E+04  0.14080780710E+04  0.00000000000E+00 0.  1.
         22    1    1    2    0    0 -0.24548612203E+03 -0.16417135009E+04  0.50719879696E+03  0.17357238475E+04  0.00000000000E+00 0.  1.
<mgrwt>
<rscale>  0 0.40654236E+04</rscale>
<asrwt>0</asrwt>
<pdfrwt beam="1">  1        2 0.44659172E+00 0.40654236E+04</pdfrwt>
<pdfrwt beam="2">  1       -2 0.21898494E+00 0.40654236E+04</pdfrwt>
<totfact> 0.15744599E-01</totfact>
</mgrwt>
</event>
<event>
 6    1  0.2238133E-007  0.8591006E+03  0.7818608E-02  0.9478203E-01
          2   -1    0    0  501    0  0.00000000000E+00  0.00000000000E+00  0.33156055801E+03  0.33156055801E+03  0.00000000000E+00 0. -1.
         -2   -1    0    0    0  501 -0.00000000000E+00 -0.00000000000E+00 -0.55649996655E+03  0.55649996655E+03  0.00000000000E+00 0.  1.
         23    2    1    2    0    0  0.54949667280E+02  0.13604239382E+03  0.29868726905E+03  0.34426654121E+03  0.88195055745E+02 0.  0.
         11    1    3    3    0    0  0.18372519401E+02  0.12914020117E+03  0.19984501894E+03  0.23864780038E+03  0.00000000000E+00 0. -1.
        -11    1    3    3    0    0  0.36577147879E+02  0.69021926447E+01  0.98842250103E+02  0.10561874084E+03  0.00000000000E+00 0.  1.
         22    1    1    2    0    0 -0.54949667280E+02 -0.13604239382E+03 -0.52362667759E+03  0.54379398335E+03  0.00000000000E+00 0.  1.
<mgrwt>
<rscale>  0 0.85910055E+03</rscale>
<asrwt>0</asrwt>
<pdfrwt beam="1">  1        2 0.51009317E-01 0.85910055E+03</pdfrwt>
<pdfrwt beam="2">  1       -2 0.85615379E-01 0.85910055E+03</pdfrwt>
<totfact> 0.11700738E+02</totfact>
</mgrwt>
</event>
<event>
 6    1  0.2238133E-007  0.2326407E+04  0.7818608E-02  0.8467581E-01
         -2   -1    0    0    0  501 -0.00000000000E+00  0.00000000000E+00  0.45779355894E+03  0.45779355894E+03  0.00000000000E+00 0.  1.
          2   -1    0    0  501    0  0.00000000000E+00 -0.00000000000E+00 -0.29555732019E+04  0.29555732019E+04  0.00000000000E+00 0. -1.
         23    2    1    2    0    0 -0.19972943492E+03  0.88026385629E+03 -0.17860478614E+03  0.92472690735E+03  0.91999346078E+02 0.  0.
         13    1    3    3    0    0 -0.52714272080E+02  0.39968775407E+03 -0.52206574712E+02  0.40651521703E+03  0.00000000000E+00 0.  1.
        -13    1    3    3    0    0 -0.14701516284E+03  0.48057610222E+03 -0.12639821143E+03  0.51821169032E+03  0.00000000000E+00 0. -1.
         22    1    1    2    0    0  0.19972943492E+03 -0.88026385629E+03 -0.23191748568E+04  0.24886398535E+04  0.00000000000E+00 0. -1.
<mgrwt>
<rscale>  0 0.23264070E+04</rscale>
<asrwt>0</asrwt>
<pdfrwt beam="1">  1        2 0.45470357E+00 0.23264070E+04</pdfrwt>
<pdfrwt beam="2">  1       -2 0.70429778E-01 0.23264070E+04</pdfrwt>
<totfact> 0.30816696E+00</totfact>
</mgrwt>
</event>
<event>
 6    1  0.2238133E-007  0.1808012E+04  0.7818608E-02  0.8702050E-01
         -1   -1    0    0    0  501 -0.00000000000E+00  0.00000000000E+00  0.11425253040E+04  0.11425253040E+04  0.00000000000E+00 0.  1.
          1   -1    0    0  501    0  0.00000000000E+00 -0.00000000000E+00 -0.71528149045E+03  0.71528149045E+03  0.00000000000E+00 0. -1.
         23    2    1    2    0    0 -0.57507685639E+03  0.52700355070E+03 -0.25072276636E+03  0.82432490459E+03  0.90573227540E+02 0.  0.
         13    1    3    3    0    0 -0.39283924839E+03  0.39863565047E+03 -0.20972051452E+03  0.59767528903E+03  0.00000000000E+00 0.  1.
        -13    1    3    3    0    0 -0.18223760799E+03  0.12836790023E+03 -0.41002251841E+02  0.22664961556E+03  0.00000000000E+00 0. -1.
         22    1    1    2    0    0  0.57507685639E+03 -0.52700355070E+03  0.67796657995E+03  0.10334818899E+04  0.00000000000E+00 0.  1.
<mgrwt>
<rscale>  0 0.18080124E+04</rscale>
<asrwt>0</asrwt>
<pdfrwt beam="1">  1        1 0.11004331E+00 0.18080124E+04</pdfrwt>
<pdfrwt beam="2">  1       -1 0.17577312E+00 0.18080124E+04</pdfrwt>
<totfact> 0.55492932E+00</totfact>
</mgrwt>
</event>
<event>
 6    1  0.2238133E-007  0.3409553E+04  0.7818608E-02  0.8135566E-01
         -2   -1    0    0    0  501 -0.00000000000E+00  0.00000000000E+00  0.66810310484E+03  0.66810310484E+03  0.00000000000E+00 0.  1.
          2   -1    0    0  501    0  0.00000000000E+00 -0.00000000000E+00 -0.43500221897E+04  0.43500221897E+04  0.00000000000E+00 0. -1.
         23    2    1    2    0    0 -0.37999617988E+03  0.14323156352E+04 -0.30790204457E+04  0.34183090724E+04  0.92438269494E+02 0.  0.
         13    1    3    3    0    0 -0.23418488770E+03  0.74553046085E+03 -0.15529372527E+04  0.17384683892E+04  0.00000000000E+00 0. -1.
        -13    1    3    3    0    0 -0.14581129218E+03  0.68678517435E+03 -0.15260831931E+04  0.16798406832E+04  0.00000000000E+00 0.  1.
         22    1    1    2    0    0  0.37999617988E+03 -0.14323156352E+04 -0.60289863914E+03  0.15998162221E+04  0.00000000000E+00 0.  1.
<mgrwt>
<rscale>  0 0.34095532E+04</rscale>
<asrwt>0</asrwt>
<pdfrwt beam="1">  1        2 0.66923418E+00 0.34095532E+04</pdfrwt>
<pdfrwt beam="2">  1       -2 0.10278509E+00 0.34095532E+04</pdfrwt>
<totfact> 0.10898654E-01</totfact>
</mgrwt>
</event>
<event>
 6    1  0.2238133E-007  0.4876668E+03  0.7818608E-02  0.1017049E+00
          2   -1    0    0  501    0  0.00000000000E+00  0.00000000000E+00  0.82057816496E+03  0.82057816496E+03  0.00000000000E+00 0. -1.
         -2   -1    0    0    0  501 -0.00000000000E+00 -0.00000000000E+00 -0.72454675193E+02  0.72454675193E+02  0.00000000000E+00 0.  1.
         23    2    1    2    0    0  0.15644637950E+03  0.83824913767E+02  0.10588560192E+03  0.22672090839E+03  0.93212251230E+02 0.  0.
         11    1    3    3    0    0  0.13868687626E+03  0.92827256931E+02  0.11709828038E+03  0.20386995007E+03  0.00000000000E+00 0. -1.
        -11    1    3    3    0    0  0.17759503245E+02 -0.90023431640E+01 -0.11212678454E+02  0.22850958318E+02  0.00000000000E+00 0.  1.
         22    1    1    2    0    0 -0.15644637950E+03 -0.83824913767E+02  0.64223788784E+03  0.66631193176E+03  0.00000000000E+00 0. -1.
<mgrwt>
<rscale>  0 0.48766679E+03</rscale>
<asrwt>0</asrwt>
<pdfrwt beam="1">  1        2 0.12624279E+00 0.48766679E+03</pdfrwt>
<pdfrwt beam="2">  1       -2 0.11146874E-01 0.48766679E+03</pdfrwt>
<totfact> 0.19174752E+03</totfact>
</mgrwt>
</event>
<event>
 6    1  0.2238133E-007  0.2401689E+04  0.7818608E-02  0.8438872E-01
          2   -1    0    0  501    0  0.00000000000E+00  0.00000000000E+00  0.29608187115E+04  0.29608187115E+04  0.00000000000E+00 0. -1.
         -2   -1    0    0    0  501 -0.00000000000E+00 -0.00000000000E+00 -0.48703670828E+03  0.48703670828E+03  0.00000000000E+00 0.  1.
         23    2    1    2    0    0  0.11278429246E+04  0.33449280575E+03  0.90526536802E+03  0.14872025860E+04  0.91384055938E+02 0.  0.
         13    1    3    3    0    0  0.61056857415E+03  0.14008051502E+03  0.51006986836E+03  0.80782906920E+03  0.00000000000E+00 0.  1.
        -13    1    3    3    0    0  0.51727435044E+03  0.19441229073E+03  0.39519549966E+03  0.67937351682E+03  0.00000000000E+00 0. -1.
         22    1    1    2    0    0 -0.11278429246E+04 -0.33449280575E+03  0.15685166352E+04  0.19606528338E+04  0.00000000000E+00 0. -1.
<mgrwt>
<rscale>  0 0.24016889E+04</rscale>
<asrwt>0</asrwt>
<pdfrwt beam="1">  1        2 0.45551056E+00 0.24016889E+04</pdfrwt>
<pdfrwt beam="2">  1       -2 0.74928726E-01 0.24016889E+04</pdfrwt>
<totfact> 0.26513884E+00</totfact>
</mgrwt>
</event>
<event>
 6    1  0.2238133E-007  0.3122374E+04  0.7818608E-02  0.8209624E-01
         -2   -1    0    0    0  501 -0.00000000000E+00  0.00000000000E+00  0.82391616935E+03  0.82391616935E+03  0.00000000000E+00 0.  1.
          2   -1    0    0  501    0  0.00000000000E+00 -0.00000000000E+00 -0.29581961163E+04  0.29581961163E+04  0.00000000000E+00 0. -1.
         23    2    1    2    0    0 -0.81814449447E+03 -0.60974053126E+03  0.36120014369E+03  0.10860846871E+04  0.89277513999E+02 0.  0.
         11    1    3    3    0    0 -0.34380322989E+03 -0.20897350891E+03  0.11920005930E+03  0.41961797202E+03  0.00000000000E+00 0. -1.
        -11    1    3    3    0    0 -0.47434126458E+03 -0.40076702235E+03  0.24200008439E+03  0.66646671510E+03  0.00000000000E+00 0.  1.
         22    1    1    2    0    0  0.81814449447E+03  0.60974053126E+03 -0.24954800906E+04  0.26960275985E+04  0.00000000000E+00 0. -1.
<mgrwt>
<rscale>  0 0.31223745E+04</rscale>
<asrwt>0</asrwt>
<pdfrwt beam="1">  1        2 0.45510710E+00 0.31223745E+04</pdfrwt>
<pdfrwt beam="2">  1       -2 0.12675633E+00 0.31223745E+04</pdfrwt>
<totfact> 0.72497926E-01</totfact>
</mgrwt>
</event>
<event>
 6    1  0.2238133E-007  0.4005613E+03  0.7818608E-02  0.1043586E+00
         -2   -1    0    0    0  501 -0.00000000000E+00  0.00000000000E+00  0.14331999991E+03  0.14331999991E+03  0.00000000000E+00 0.  1.
          2   -1    0    0  501    0  0.00000000000E+00 -0.00000000000E+00 -0.27987950561E+03  0.27987950561E+03  0.00000000000E+00 0. -1.
         23    2    1    2    0    0 -0.10909440595E+03  0.15200593291E+03 -0.10564443793E+03  0.23356002001E+03  0.91554042128E+02 0.  0.
         11    1    3    3    0    0  0.71859962408E+01 -0.73085748095E+01 -0.10139690938E+02  0.14417598275E+02  0.00000000000E+00 0. -1.
        -11    1    3    3    0    0 -0.11628040219E+03  0.15931450772E+03 -0.95504746995E+02  0.21914242173E+03  0.00000000000E+00 0.  1.
         22    1    1    2    0    0  0.10909440595E+03 -0.15200593291E+03 -0.30915067773E+02  0.18963948551E+03  0.00000000000E+00 0.  1.
<mgrwt>
<rscale>  0 0.40056126E+03</rscale>
<asrwt>0</asrwt>
<pdfrwt beam="1">  1        2 0.43058385E-01 0.40056126E+03</pdfrwt>
<pdfrwt beam="2">  1       -2 0.22049231E-01 0.40056126E+03</pdfrwt>
<totfact> 0.21058776E+03</totfact>
</mgrwt>
</event>
<event>
 6    1  0.2238133E-007  0.2651805E+04  0.7818608E-02  0.8350814E-01
          2   -1    0    0  501    0  0.00000000000E+00  0.00000000000E+00  0.34200211742E+04  0.34200211742E+04  0.00000000000E+00 0. -1.
         -2   -1    0    0    0  501 -0.00000000000E+00 -0.00000000000E+00 -0.51403712387E+03  0.51403712387E+03  0.00000000000E+00 0.  1.
         23    2    1    2    0    0 -0.83893021853E+03  0.74471968482E+03  0.24990975282E+04  0.27407570107E+04  0.88595799564E+02 0.  0.
         11    1    3    3    0    0 -0.66223355735E+03  0.55483496285E+03  0.18514989060E+04  0.20431454474E+04  0.00000000000E+00 0.  1.
        -11    1    3    3    0    0 -0.17669666118E+03  0.18988472197E+03  0.64759862225E+03  0.69761156330E+03  0.00000000000E+00 0. -1.
         22    1    1    2    0    0  0.83893021853E+03 -0.74471968482E+03  0.40688652209E+03  0.11933012873E+04  0.00000000000E+00 0.  1.
<mgrwt>
<rscale>  0 0.26518053E+04</rscale>
<asrwt>0</asrwt>
<pdfrwt beam="1">  1        2 0.52615709E+00 0.26518053E+04</pdfrwt>
<pdfrwt beam="2">  1       -2 0.79082637E-01 0.26518053E+04</pdfrwt>
<totfact> 0.11545556E+00</totfact>
</mgrwt>
</event>
<event>
 6    1  0.2238133E-007  0.1630728E+04  0.7818608E-02  0.8801890E-01
         -2   -1    0    0    0  501 -0.00000000000E+00  0.00000000000E+00  0.52012091849E+03  0.52012091849E+03  0.00000000000E+00 0.  1.
          2   -1    0    0  501    0  0.00000000000E+00 -0.00000000000E+00 -0.12781998480E+04  0.12781998480E+04  0.00000000000E+00 0. -1.
         23    2    1    2    0    0  0.57406498423E+03 -0.47632103593E+03 -0.24010690814E+02  0.75176044122E+03  0.90193748780E+02 0.  0.
         11    1    3    3    0    0  0.50270537218E+03 -0.41181182234E+03  0.94358853891E+01  0.64991592085E+03  0.00000000000E+00 0.  1.
        -11    1    3    3    0    0  0.71359612050E+02 -0.64509213593E+02 -0.33446576203E+02  0.10184452037E+03  0.00000000000E+00 0. -1.
         22    1    1    2    0    0 -0.57406498423E+03  0.47632103593E+03 -0.73406823873E+03  0.10465603253E+04  0.00000000000E+00 0. -1.
<mgrwt>
<rscale>  0 0.16307280E+04</rscale>
<asrwt>0</asrwt>
<pdfrwt beam="1">  1        2 0.19664613E+00 0.16307280E+04</pdfrwt>
<pdfrwt beam="2">  1       -2 0.80018604E-01 0.16307280E+04</pdfrwt>
<totfact> 0.22503416E+01</totfact>
</mgrwt>
</event>
<event>
 6    1  0.2238133E-007  0.3342079E+04  0.7818608E-02  0.8152270E-01
          2   -1    0    0  501    0  0.00000000000E+00  0.00000000000E+00  0.32310722767E+04  0.32310722767E+04  0.00000000000E+00 0. -1.
         -2   -1    0    0    0  501 -0.00000000000E+00 -0.00000000000E+00 -0.86422466541E+03  0.86422466541E+03  0.00000000000E+00 0.  1.
         23    2    1    2    0    0  0.14476924616E+04 -0.42254432965E+03  0.20625052702E+04  0.25567972072E+04  0.94481718088E+02 0.  0.
         13    1    3    3    0    0  0.11999230731E+04 -0.31527459615E+03  0.16706957814E+04  0.20809704098E+04  0.00000000000E+00 0.  1.
        -13    1    3    3    0    0  0.24776938844E+03 -0.10726973350E+03  0.39180948877E+03  0.47582679734E+03  0.00000000000E+00 0. -1.
         22    1    1    2    0    0 -0.14476924616E+04  0.42254432965E+03  0.30434234109E+03  0.15384997350E+04  0.00000000000E+00 0.  1.
<mgrwt>
<rscale>  0 0.33420786E+04</rscale>
<asrwt>0</asrwt>
<pdfrwt beam="1">  1        2 0.49708804E+00 0.33420786E+04</pdfrwt>
<pdfrwt beam="2">  1       -2 0.13295764E+00 0.33420786E+04</pdfrwt>
<totfact> 0.42199734E-01</totfact>
</mgrwt>
</event>
<event>
 6    1  0.2238133E-007  0.2586670E+04  0.7818608E-02  0.8372743E-01
          2   -1    0    0  501    0  0.00000000000E+00  0.00000000000E+00  0.11167358859E+04  0.11167358859E+04  0.00000000000E+00 0. -1.
         -2   -1    0    0    0  501 -0.00000000000E+00 -0.00000000000E+00 -0.14978607157E+04  0.14978607157E+04  0.00000000000E+00 0.  1.
         23    2    1    2    0    0  0.39290507812E+03 -0.51688221603E+03  0.93794529860E+03  0.11443967413E+04  0.91437916411E+02 0.  0.
         11    1    3    3    0    0  0.34124205269E+03 -0.39919044962E+03  0.71650482424E+03  0.88835708854E+03  0.00000000000E+00 0. -1.
        -11    1    3    3    0    0  0.51663025429E+02 -0.11769176641E+03  0.22144047436E+03  0.25603965272E+03  0.00000000000E+00 0.  1.
         22    1    1    2    0    0 -0.39290507812E+03  0.51688221603E+03 -0.13190701284E+04  0.14701998604E+04  0.00000000000E+00 0.  1.
<mgrwt>
<rscale>  0 0.25866695E+04</rscale>
<asrwt>0</asrwt>
<pdfrwt beam="1">  1        2 0.17180552E+00 0.25866695E+04</pdfrwt>
<pdfrwt beam="2">  1       -2 0.23044011E+00 0.25866695E+04</pdfrwt>
<totfact> 0.16004547E+00</totfact>
</mgrwt>
</event>
<event>
 6    1  0.2238133E-007  0.2690258E+04  0.7818608E-02  0.8338173E-01
         -2   -1    0    0    0  501 -0.00000000000E+00  0.00000000000E+00  0.10337653748E+04  0.10337653748E+04  0.00000000000E+00 0.  1.
          2   -1    0    0  501    0  0.00000000000E+00 -0.00000000000E+00 -0.17502735798E+04  0.17502735798E+04  0.00000000000E+00 0. -1.
         23    2    1    2    0    0 -0.86208953678E+03 -0.44692451482E+03  0.60211639072E+03  0.11464459906E+04  0.94097662326E+02 0.  0.
         13    1    3    3    0    0 -0.30466109974E+03 -0.19453768353E+03  0.26132847245E+03  0.44604469117E+03  0.00000000000E+00 0. -1.
        -13    1    3    3    0    0 -0.55742843703E+03 -0.25238683129E+03  0.34078791828E+03  0.70040129944E+03  0.00000000000E+00 0.  1.
         22    1    1    2    0    0  0.86208953678E+03  0.44692451482E+03 -0.13186245957E+04  0.16375929640E+04  0.00000000000E+00 0. -1.
<mgrwt>
<rscale>  0 0.26902581E+04</rscale>
<asrwt>0</asrwt>
<pdfrwt beam="1">  1        2 0.26927286E+00 0.26902581E+04</pdfrwt>
<pdfrwt beam="2">  1       -2 0.15904083E+00 0.26902581E+04</pdfrwt>
<totfact> 0.20675462E+00</totfact>
</mgrwt>
</event>
<event>
 6    1  0.2238133E-007  0.1270550E+04  0.7818608E-02  0.9053251E-01
          2   -1    0    0  501    0  0.00000000000E+00  0.00000000000E+00  0.16203412525E+04  0.16203412525E+04  0.00000000000E+00 0. -1.
         -2   -1    0    0    0  501 -0.00000000000E+00 -0.00000000000E+00 -0.24906754785E+03  0.24906754785E+03  0.00000000000E+00 0.  1.
         23    2    1    2    0    0 -0.61151391821E+03  0.15829645185E+03  0.71255771409E+03  0.95676769067E+03  0.93053098547E+02 0.  0.
         13    1    3    3    0    0 -0.14212314814E+03  0.74825452136E+02  0.15562412001E+03  0.22364414648E+03  0.00000000000E+00 0.  1.
        -13    1    3    3    0    0 -0.46939077007E+03  0.83470999710E+02  0.55693359409E+03  0.73312354419E+03  0.00000000000E+00 0. -1.
         22    1    1    2    0    0  0.61151391821E+03 -0.15829645185E+03  0.65871599052E+03  0.91264110964E+03  0.00000000000E+00 0.  1.
<mgrwt>
<rscale>  0 0.12705502E+04</rscale>
<asrwt>0</asrwt>
<pdfrwt beam="1">  1        2 0.24928326E+00 0.12705502E+04</pdfrwt>
<pdfrwt beam="2">  1       -2 0.38318085E-01 0.12705502E+04</pdfrwt>
<totfact> 0.68602185E+01</totfact>
</mgrwt>
</event>
<event>
 6    1  0.2238133E-007  0.8975067E+03  0.7818608E-02  0.9428704E-01
          2   -1    0    0  501    0  0.00000000000E+00  0.00000000000E+00  0.23699026777E+03  0.23699026777E+03  0.00000000000E+00 0. -1.
         -2   -1    0    0    0  501 -0.00000000000E+00 -0.00000000000E+00 -0.84973762504E+03  0.84973762504E+03  0.00000000000E+00 0.  1.
         23    2    1    2    0    0  0.36180635298E+03 -0.14792173657E+03 -0.57689003299E+02  0.40785054489E+03  0.10114034141E+03 0.  0.
         11    1    3    3    0    0  0.26573060319E+03 -0.10872534515E+03 -0.87038250743E+02  0.30001601831E+03  0.00000000000E+00 0.  1.
        -11    1    3    3    0    0  0.96075749792E+02 -0.39196391422E+02  0.29349247444E+02  0.10783452659E+03  0.00000000000E+00 0. -1.
         22    1    1    2    0    0 -0.36180635298E+03  0.14792173657E+03 -0.55505835397E+03  0.67887734792E+03  0.00000000000E+00 0.  1.
<mgrwt>
<rscale>  0 0.89750665E+03</rscale>
<asrwt>0</asrwt>
<pdfrwt beam="1">  1        2 0.36460041E-01 0.89750665E+03</pdfrwt>
<pdfrwt beam="2">  1       -2 0.13072886E+00 0.89750665E+03</pdfrwt>
<totfact> 0.61354881E+01</totfact>
</mgrwt>
</event>
<event>
 6    1  0.2238133E-007  0.3522318E+04  0.7818608E-02  0.8108521E-01
          2   -1    0    0  501    0  0.00000000000E+00  0.00000000000E+00  0.22358271085E+04  0.22358271085E+04  0.00000000000E+00 0. -1.
         -2   -1    0    0    0  501 -0.00000000000E+00 -0.00000000000E+00 -0.13872633965E+04  0.13872633965E+04  0.00000000000E+00 0.  1.
         23    2    1    2    0    0  0.16118131292E+04 -0.30862669533E+03 -0.22951708450E+03  0.16595604684E+04  0.90944245522E+02 0.  0.
         11    1    3    3    0    0  0.83613945787E+03 -0.18108598989E+03 -0.78719795815E+02  0.85913801860E+03  0.00000000000E+00 0.  1.
        -11    1    3    3    0    0  0.77567367134E+03 -0.12754070543E+03 -0.15079728868E+03  0.80042244985E+03  0.00000000000E+00 0. -1.
         22    1    1    2    0    0 -0.16118131292E+04  0.30862669533E+03  0.10780807965E+04  0.19635300365E+04  0.00000000000E+00 0.  1.
<mgrwt>
<rscale>  0 0.35223180E+04</rscale>
<asrwt>0</asrwt>
<pdfrwt beam="1">  1        2 0.34397340E+00 0.35223180E+04</pdfrwt>
<pdfrwt beam="2">  1       -2 0.21342514E+00 0.35223180E+04</pdfrwt>
<totfact> 0.44008333E-01</totfact>
</mgrwt>
</event>
<event>
 6    1  0.2238133E-007  0.2406045E+04  0.7818608E-02  0.8437244E-01
         -2   -1    0    0    0  501 -0.00000000000E+00  0.00000000000E+00  0.11637027250E+04  0.11637027250E+04  0.00000000000E+00 0.  1.
          2   -1    0    0  501    0  0.00000000000E+00 -0.00000000000E+00 -0.12436712045E+04  0.12436712045E+04  0.00000000000E+00 0. -1.
         23    2    1    2    0    0  0.14244893471E+03 -0.23377099105E+03 -0.12103818400E+04  0.12442853943E+04  0.91002025572E+02 0.  0.
         11    1    3    3    0    0  0.13253710337E+03 -0.15453954641E+03 -0.75560598945E+03  0.78255285219E+03  0.00000000000E+00 0. -1.
        -11    1    3    3    0    0  0.99118313425E+01 -0.79231444640E+02 -0.45477585054E+03  0.46173254212E+03  0.00000000000E+00 0.  1.
         22    1    1    2    0    0 -0.14244893471E+03  0.23377099105E+03  0.11304133605E+04  0.11630885352E+04  0.00000000000E+00 0.  1.
<mgrwt>
<rscale>  0 0.24060454E+04</rscale>
<asrwt>0</asrwt>
<pdfrwt beam="1">  1        2 0.19133403E+00 0.24060454E+04</pdfrwt>
<pdfrwt beam="2">  1       -2 0.17903119E+00 0.24060454E+04</pdfrwt>
<totfact> 0.29529614E+00</totfact>
</mgrwt>
</event>
<event>
 6    1  0.2238133E-007  0.2341957E+04  0.7818608E-02  0.8461559E-01
         -1   -1    0    0    0  501 -0.00000000000E+00  0.00000000000E+00  0.22511911338E+04  0.22511911338E+04  0.00000000000E+00 0.  1.
          1   -1    0    0  501    0  0.00000000000E+00 -0.00000000000E+00 -0.60909580078E+03  0.60909580078E+03  0.00000000000E+00 0. -1.
         23    2    1    2    0    0  0.10675414740E+04 -0.44133363009E+03  0.60167632525E+03  0.13056513234E+04  0.91053864823E+02 0.  0.
         11    1    3    3    0    0  0.54860292907E+03 -0.26636791486E+03  0.28653798449E+03  0.67381084616E+03  0.00000000000E+00 0.  1.
        -11    1    3    3    0    0  0.51893854492E+03 -0.17496571523E+03  0.31513834076E+03  0.63184047728E+03  0.00000000000E+00 0. -1.
         22    1    1    2    0    0 -0.10675414740E+04  0.44133363009E+03  0.10404190078E+04  0.15546356112E+04  0.00000000000E+00 0.  1.
<mgrwt>
<rscale>  0 0.23419574E+04</rscale>
<asrwt>0</asrwt>
<pdfrwt beam="1">  1        1 0.93707047E-01 0.23419574E+04</pdfrwt>
<pdfrwt beam="2">  1       -1 0.34633709E+00 0.23419574E+04</pdfrwt>
<totfact> 0.49613369E-01</totfact>
</mgrwt>
</event>
<event>
 6    1  0.2238133E-007  0.3457598E+04  0.7818608E-02  0.8123913E-01
         -2   -1    0    0    0  501 -0.00000000000E+00  0.00000000000E+00  0.10167977793E+04  0.10167977793E+04  0.00000000000E+00 0.  1.
          2   -1    0    0  501    0  0.00000000000E+00 -0.00000000000E+00 -0.29393713604E+04  0.29393713604E+04  0.00000000000E+00 0. -1.
         23    2    1    2    0    0  0.58478722317E+03  0.16240046188E+04 -0.87847944749E+03  0.19388690485E+04  0.90110761757E+02 0.  0.
         13    1    3    3    0    0  0.33370079302E+03  0.84355023135E+03 -0.42205251088E+03  0.10005306262E+04  0.00000000000E+00 0. -1.
        -13    1    3    3    0    0  0.25108643015E+03  0.78045438746E+03 -0.45642693661E+03  0.93833842230E+03  0.00000000000E+00 0.  1.
         22    1    1    2    0    0 -0.58478722317E+03 -0.16240046188E+04 -0.10440941336E+04  0.20173000912E+04  0.00000000000E+00 0. -1.
<mgrwt>
<rscale>  0 0.34575982E+04</rscale>
<asrwt>0</asrwt>
<pdfrwt beam="1">  1        2 0.45221098E+00 0.34575982E+04</pdfrwt>
<pdfrwt beam="2">  1       -2 0.15643043E+00 0.34575982E+04</pdfrwt>
<totfact> 0.41920014E-01</totfact>
</mgrwt>
</event>
<event>
 6    1  0.2238133E-007  0.1635456E+04  0.7818608E-02  0.8799057E-01
          2   -1    0    0  501    0  0.00000000000E+00  0.00000000000E+00  0.36237808677E+03  0.36237808677E+03  0.00000000000E+00 0. -1.
         -2   -1    0    0    0  501 -0.00000000000E+00 -0.00000000000E+00 -0.18452521886E+04  0.18452521886E+04  0.00000000000E+00 0.  1.
         23    2    1    2    0    0 -0.23829276146E+03  0.77334035603E+03 -0.60971971829E+03  0.10171525041E+04  0.89455772483E+02 0.  0.
         13    1    3    3    0    0 -0.26795002431E+02  0.21314042210E+03 -0.17746867336E+03  0.27864303636E+03  0.00000000000E+00 0.  1.
        -13    1    3    3    0    0 -0.21149775903E+03  0.56019993393E+03 -0.43225104494E+03  0.73850946771E+03  0.00000000000E+00 0. -1.
         22    1    1    2    0    0  0.23829276146E+03 -0.77334035603E+03 -0.87315438352E+03  0.11904777713E+04  0.00000000000E+00 0.  1.
<mgrwt>
<rscale>  0 0.16354558E+04</rscale>
<asrwt>0</asrwt>
<pdfrwt beam="1">  1        2 0.55750476E-01 0.16354558E+04</pdfrwt>
<pdfrwt beam="2">  1       -2 0.28388495E+00 0.16354558E+04</pdfrwt>
<totfact> 0.33952150E+00</totfact>
</mgrwt>
</event>
<event>
 6    1  0.2238133E-007  0.3232821E+04  0.7818608E-02  0.8180203E-01
          1   -1    0    0  501    0  0.00000000000E+00  0.00000000000E+00  0.21919041981E+04  0.21919041981E+04  0.00000000000E+00 0. -1.
         -1   -1    0    0    0  501 -0.00000000000E+00 -0.00000000000E+00 -0.11920151390E+04  0.11920151390E+04  0.00000000000E+00 0.  1.
         23    2    1    2    0    0  0.46206291590E+03 -0.29890695064E+03  0.20897992264E+04  0.21629559157E+04  0.90939448774E+02 0.  0.
         13    1    3    3    0    0  0.18380511949E+03 -0.16929742503E+03  0.87624681479E+03  0.91118297861E+03  0.00000000000E+00 0.  1.
        -13    1    3    3    0    0  0.27825779641E+03 -0.12960952560E+03  0.12135524116E+04  0.12517729371E+04  0.00000000000E+00 0. -1.
         22    1    1    2    0    0 -0.46206291590E+03  0.29890695064E+03 -0.10899101673E+04  0.12209634213E+04  0.00000000000E+00 0.  1.
<mgrwt>
<rscale>  0 0.32328211E+04</rscale>
<asrwt>0</asrwt>
<pdfrwt beam="1">  1        1 0.33721603E+00 0.32328211E+04</pdfrwt>
<pdfrwt beam="2">  1       -1 0.18338694E+00 0.32328211E+04</pdfrwt>
<totfact> 0.36227314E-01</totfact>
</mgrwt>
</event>
<event>
 6    1  0.2238133E-007  0.1868356E+04  0.7818608E-02  0.8670770E-01
          2   -1    0    0  501    0  0.00000000000E+00  0.00000000000E+00  0.39688804775E+04  0.39688804775E+04  0.00000000000E+00 0. -1.
         -2   -1    0    0    0  501 -0.00000000000E+00 -0.00000000000E+00 -0.21988271115E+03  0.21988271115E+03  0.00000000000E+00 0.  1.
         23    2    1    2    0    0  0.69337056738E+03  0.40733665255E+03  0.29353255246E+04  0.30447577650E+04  0.87909159688E+02 0.  0.
         13    1    3    3    0    0  0.63863482209E+03  0.34450774555E+03  0.26322363902E+04  0.27304227579E+04  0.00000000000E+00 0. -1.
        -13    1    3    3    0    0  0.54735745292E+02  0.62828907004E+02  0.30308913436E+03  0.31433500717E+03  0.00000000000E+00 0.  1.
         22    1    1    2    0    0 -0.69337056738E+03 -0.40733665255E+03  0.81367224178E+03  0.11440054236E+04  0.00000000000E+00 0.  1.
<mgrwt>
<rscale>  0 0.18683556E+04</rscale>
<asrwt>0</asrwt>
<pdfrwt beam="1">  1        2 0.61059694E+00 0.18683556E+04</pdfrwt>
<pdfrwt beam="2">  1       -2 0.33828112E-01 0.18683556E+04</pdfrwt>
<totfact> 0.28179720E+00</totfact>
</mgrwt>
</event>
<event>
 6    1  0.2238133E-007  0.1609507E+04  0.7818608E-02  0.8814729E-01
         -2   -1    0    0    0  501 -0.00000000000E+00  0.00000000000E+00  0.17591656840E+04  0.17591656840E+04  0.00000000000E+00 0.  1.
          2   -1    0    0  501    0  0.00000000000E+00 -0.00000000000E+00 -0.36814499818E+03  0.36814499818E+03  0.00000000000E+00 0. -1.
         23    2    1    2    0    0  0.71541047777E+03 -0.19319464626E+03  0.29104650997E+03  0.80100773392E+03  0.88141907156E+02 0.  0.
         13    1    3    3    0    0  0.28640738135E+03 -0.68434446081E+02  0.70644411750E+02  0.30282518788E+03  0.00000000000E+00 0.  1.
        -13    1    3    3    0    0  0.42900309642E+03 -0.12476020018E+03  0.22040209822E+03  0.49818254604E+03  0.00000000000E+00 0. -1.
         22    1    1    2    0    0 -0.71541047777E+03  0.19319464626E+03  0.10999741758E+04  0.13263029483E+04  0.00000000000E+00 0.  1.
<mgrwt>
<rscale>  0 0.16095068E+04</rscale>
<asrwt>0</asrwt>
<pdfrwt beam="1">  1        2 0.56637693E-01 0.16095068E+04</pdfrwt>
<pdfrwt beam="2">  1       -2 0.27064087E+00 0.16095068E+04</pdfrwt>
<totfact> 0.40234952E+00</totfact>
</mgrwt>
</event>
<event>
 6    1  0.2238133E-007  0.4794160E+03  0.7818608E-02  0.1019296E+00
          1   -1    0    0  501    0  0.00000000000E+00  0.00000000000E+00  0.84072494364E+03  0.84072494364E+03  0.00000000000E+00 0. -1.
         -1   -1    0    0    0  501 -0.00000000000E+00 -0.00000000000E+00 -0.68345683261E+02  0.68345683261E+02  0.00000000000E+00 0.  1.
         23    2    1    2    0    0  0.88239259906E+02 -0.21306562186E+03  0.37223790912E+03  0.44723058187E+03  0.90945072259E+02 0.  0.
         13    1    3    3    0    0  0.65712432188E+02 -0.12031370725E+03  0.29183735107E+03  0.32243224308E+03  0.00000000000E+00 0.  1.
        -13    1    3    3    0    0  0.22526827718E+02 -0.92751914610E+02  0.80400558047E+02  0.12479833879E+03  0.00000000000E+00 0. -1.
         22    1    1    2    0    0 -0.88239259906E+02  0.21306562186E+03  0.40014135126E+03  0.46184004503E+03  0.00000000000E+00 0. -1.
<mgrwt>
<rscale>  0 0.47941598E+03</rscale>
<asrwt>0</asrwt>
<pdfrwt beam="1">  1        1 0.12934229E+00 0.47941598E+03</pdfrwt>
<pdfrwt beam="2">  1       -1 0.10514721E-01 0.47941598E+03</pdfrwt>
<totfact> 0.11993033E+03</totfact>
</mgrwt>
</event>
<event>
 6    1  0.2238133E-007  0.1700898E+04  0.7818608E-02  0.8760852E-01
         -2   -1    0    0    0  501 -0.00000000000E+00  0.00000000000E+00  0.32142590297E+03  0.32142590297E+03  0.00000000000E+00 0.  1.
          2   -1    0    0  501    0  0.00000000000E+00 -0.00000000000E+00 -0.22501730291E+04  0.22501730291E+04  0.00000000000E+00 0. -1.
         23    2    1    2    0    0  0.37294279673E+03 -0.30730645446E+03 -0.20208160225E+04  0.20796637044E+04  0.88205100949E+02 0.  0.
         11    1    3    3    0    0  0.35362673735E+03 -0.28829015716E+03 -0.17887467727E+04  0.18460168203E+04  0.00000000000E+00 0. -1.
        -11    1    3    3    0    0  0.19316059373E+02 -0.19016297308E+02 -0.23206924984E+03  0.23364688406E+03  0.00000000000E+00 0.  1.
         22    1    1    2    0    0 -0.37294279673E+03  0.30730645446E+03  0.92068896377E+02  0.49193522771E+03  0.00000000000E+00 0.  1.
<mgrwt>
<rscale>  0 0.17008985E+04</rscale>
<asrwt>0</asrwt>
<pdfrwt beam="1">  1        2 0.34618047E+00 0.17008985E+04</pdfrwt>
<pdfrwt beam="2">  1       -2 0.49450139E-01 0.17008985E+04</pdfrwt>
<totfact> 0.17829479E+01</totfact>
</mgrwt>
</event>
<event>
 6    1  0.2238133E-007  0.1795754E+04  0.7818608E-02  0.8708561E-01
         -2   -1    0    0    0  501 -0.00000000000E+00  0.00000000000E+00  0.67287126562E+03  0.67287126562E+03  0.00000000000E+00 0.  1.
          2   -1    0    0  501    0  0.00000000000E+00 -0.00000000000E+00 -0.11981237992E+04  0.11981237992E+04  0.00000000000E+00 0. -1.
         23    2    1    2    0    0  0.26157891346E+03 -0.83501167972E+03 -0.46165784875E+03  0.99366256393E+03  0.92570451026E+02 0.  0.
         11    1    3    3    0    0  0.88311836668E+02 -0.42209312701E+03 -0.20431801734E+03  0.47718700797E+03  0.00000000000E+00 0.  1.
        -11    1    3    3    0    0  0.17326707679E+03 -0.41291855271E+03 -0.25733983141E+03  0.51647555596E+03  0.00000000000E+00 0. -1.
         22    1    1    2    0    0 -0.26157891346E+03  0.83501167972E+03 -0.63594684862E+02  0.87733250092E+03  0.00000000000E+00 0.  1.
<mgrwt>
<rscale>  0 0.17957540E+04</rscale>
<asrwt>0</asrwt>
<pdfrwt beam="1">  1        2 0.18432674E+00 0.17957540E+04</pdfrwt>
<pdfrwt beam="2">  1       -2 0.10351866E+00 0.17957540E+04</pdfrwt>
<totfact> 0.13642417E+01</totfact>
</mgrwt>
</event>
<event>
 6    1  0.2238133E-007  0.3168229E+04  0.7818608E-02  0.8197259E-01
          2   -1    0    0  501    0  0.00000000000E+00  0.00000000000E+00  0.16574451447E+04  0.16574451447E+04  0.00000000000E+00 0. -1.
         -2   -1    0    0    0  501 -0.00000000000E+00 -0.00000000000E+00 -0.15140279441E+04  0.15140279441E+04  0.00000000000E+00 0.  1.
         23    2    1    2    0    0  0.34282570219E+03  0.83529095986E+03  0.13730944721E+04  0.16459087205E+04  0.91578585690E+02 0.  0.
         13    1    3    3    0    0  0.15148634751E+03  0.35985395911E+03  0.67672389657E+03  0.78127985867E+03  0.00000000000E+00 0. -1.
        -13    1    3    3    0    0  0.19133935468E+03  0.47543700075E+03  0.69637057548E+03  0.86462886184E+03  0.00000000000E+00 0.  1.
         22    1    1    2    0    0 -0.34282570219E+03 -0.83529095986E+03 -0.12296772715E+04  0.15255643682E+04  0.00000000000E+00 0.  1.
<mgrwt>
<rscale>  0 0.31682287E+04</rscale>
<asrwt>0</asrwt>
<pdfrwt beam="1">  1        2 0.25499156E+00 0.31682287E+04</pdfrwt>
<pdfrwt beam="2">  1       -2 0.23292738E+00 0.31682287E+04</pdfrwt>
<totfact> 0.71681907E-01</totfact>
</mgrwt>
</event>
<event>
 6    1  0.2238133E-007  0.3390030E+04  0.7818608E-02  0.8140358E-01
         -2   -1    0    0    0  501 -0.00000000000E+00  0.00000000000E+00  0.24962461469E+04  0.24962461469E+04  0.00000000000E+00 0.  1.
          2   -1    0    0  501    0  0.00000000000E+00 -0.00000000000E+00 -0.11509585730E+04  0.11509585730E+04  0.00000000000E+00 0. -1.
         23    2    1    2    0    0 -0.35710769701E+03  0.82296120842E+03  0.22188204644E+04  0.23950662417E+04  0.91580517094E+02 0.  0.
         13    1    3    3    0    0 -0.54854796886E+02  0.13694224765E+03  0.46223885137E+03  0.48520818588E+03  0.00000000000E+00 0. -1.
        -13    1    3    3    0    0 -0.30225290013E+03  0.68601896077E+03  0.17565816131E+04  0.19098580559E+04  0.00000000000E+00 0.  1.
         22    1    1    2    0    0  0.35710769701E+03 -0.82296120842E+03 -0.87353289054E+03  0.12521384782E+04  0.00000000000E+00 0. -1.
<mgrwt>
<rscale>  0 0.33900300E+04</rscale>
<asrwt>0</asrwt>
<pdfrwt beam="1">  1        2 0.17707055E+00 0.33900300E+04</pdfrwt>
<pdfrwt beam="2">  1       -2 0.38403787E+00 0.33900300E+04</pdfrwt>
<totfact> 0.15837361E-01</totfact>
</mgrwt>
</event>
<event>
 6    1  0.2238133E-007  0.4089513E+04  0.7818608E-02  0.7986729E-01
         -2   -1    0    0    0  501 -0.00000000000E+00  0.00000000000E+00  0.18619185322E+04  0.18619185322E+04  0.00000000000E+00 0.  1.
          2   -1    0    0  501    0  0.00000000000E+00 -0.00000000000E+00 -0.22455485431E+04  0.22455485431E+04  0.00000000000E+00 0. -1.
         23    2    1    2    0    0 -0.37051054170E+01 -0.12121272649E+04  0.14608269419E+04  0.19003676926E+04  0.90087616517E+02 0.  0.
         11    1    3    3    0    0  0.15078302473E+02 -0.89643822775E+03  0.11336209452E+04  0.14453114885E+04  0.00000000000E+00 0. -1.
        -11    1    3    3    0    0 -0.18783407890E+02 -0.31568903714E+03  0.32720599670E+03  0.45505620406E+03  0.00000000000E+00 0.  1.
         22    1    1    2    0    0  0.37051054170E+01  0.12121272649E+04 -0.18444569528E+04  0.22070993827E+04  0.00000000000E+00 0. -1.
<mgrwt>
<rscale>  0 0.40895127E+04</rscale>
<asrwt>0</asrwt>
<pdfrwt beam="1">  1        2 0.34546901E+00 0.40895127E+04</pdfrwt>
<pdfrwt beam="2">  1       -2 0.28644901E+00 0.40895127E+04</pdfrwt>
<totfact> 0.14663517E-01</totfact>
</mgrwt>
</event>
<event>
 6    1  0.2238133E-007  0.2273971E+04  0.7818608E-02  0.8488255E-01
         -2   -1    0    0    0  501 -0.00000000000E+00  0.00000000000E+00  0.60963358614E+03  0.60963358614E+03  0.00000000000E+00 0.  1.
          2   -1    0    0  501    0  0.00000000000E+00 -0.00000000000E+00 -0.21205124211E+04  0.21205124211E+04  0.00000000000E+00 0. -1.
         23    2    1    2    0    0 -0.42738348037E+03 -0.90651918155E+03 -0.13969351968E+04  0.17214751895E+04  0.87265217743E+02 0.  0.
         11    1    3    3    0    0 -0.24266542510E+03 -0.59256302121E+03 -0.84598130893E+03  0.10609909602E+04  0.00000000000E+00 0. -1.
        -11    1    3    3    0    0 -0.18471805528E+03 -0.31395616034E+03 -0.55095388791E+03  0.66048422931E+03  0.00000000000E+00 0.  1.
         22    1    1    2    0    0  0.42738348037E+03  0.90651918155E+03 -0.11394363812E+03  0.10086708177E+04  0.00000000000E+00 0.  1.
<mgrwt>
<rscale>  0 0.22739706E+04</rscale>
<asrwt>0</asrwt>
<pdfrwt beam="1">  1        2 0.32623269E+00 0.22739706E+04</pdfrwt>
<pdfrwt beam="2">  1       -2 0.93789781E-01 0.22739706E+04</pdfrwt>
<totfact> 0.49924298E+00</totfact>
</mgrwt>
</event>
<event>
 6    1  0.2238133E-007  0.8621806E+03  0.7818608E-02  0.9474133E-01
          2   -1    0    0  501    0  0.00000000000E+00  0.00000000000E+00  0.12727951239E+04  0.12727951239E+04  0.00000000000E+00 0. -1.
         -2   -1    0    0    0  501 -0.00000000000E+00 -0.00000000000E+00 -0.14600843909E+03  0.14600843909E+03  0.00000000000E+00 0.  1.
         23    2    1    2    0    0  0.36166460855E+03  0.21956003775E+03  0.48507797176E+03  0.65016972843E+03  0.91717707222E+02 0.  0.
         11    1    3    3    0    0  0.47109728463E+02  0.62976361718E+02  0.11994407758E+03  0.14342918252E+03  0.00000000000E+00 0.  1.
        -11    1    3    3    0    0  0.31455488009E+03  0.15658367603E+03  0.36513389418E+03  0.50674054591E+03  0.00000000000E+00 0. -1.
         22    1    1    2    0    0 -0.36166460855E+03 -0.21956003775E+03  0.64170871309E+03  0.76863383461E+03  0.00000000000E+00 0.  1.
<mgrwt>
<rscale>  0 0.86218056E+03</rscale>
<asrwt>0</asrwt>
<pdfrwt beam="1">  1        2 0.19581463E+00 0.86218056E+03</pdfrwt>
<pdfrwt beam="2">  1       -2 0.22462838E-01 0.86218056E+03</pdfrwt>
<totfact> 0.29914901E+02</totfact>
</mgrwt>
</event>
<event>
 6    1  0.2238133E-007  0.3287823E+04  0.7818608E-02  0.8166001E-01
         -2   -1    0    0    0  501 -0.00000000000E+00  0.00000000000E+00  0.14387644080E+04  0.14387644080E+04  0.00000000000E+00 0.  1.
          2   -1    0    0  501    0  0.00000000000E+00 -0.00000000000E+00 -0.18783096649E+04  0.18783096649E+04  0.00000000000E+00 0. -1.
         23    2    1    2    0    0  0.11082228436E+04  0.11833872448E+04  0.46834562081E+02  0.16244050058E+04  0.89078080939E+02 0.  0.
         11    1    3    3    0    0  0.64220689606E+03  0.69937278269E+03 -0.15488614594E+02  0.94962723407E+03  0.00000000000E+00 0. -1.
        -11    1    3    3    0    0  0.46601594756E+03  0.48401446208E+03  0.62323176675E+02  0.67477777174E+03  0.00000000000E+00 0.  1.
         22    1    1    2    0    0 -0.11082228436E+04 -0.11833872448E+04 -0.48637981903E+03  0.16926690671E+04  0.00000000000E+00 0.  1.
<mgrwt>
<rscale>  0 0.32878230E+04</rscale>
<asrwt>0</asrwt>
<pdfrwt beam="1">  1        2 0.28897072E+00 0.32878230E+04</pdfrwt>
<pdfrwt beam="2">  1       -2 0.22134837E+00 0.32878230E+04</pdfrwt>
<totfact> 0.63257640E-01</totfact>
</mgrwt>
</event>
<event>
 6    1  0.2238133E-007  0.3084174E+04  0.7818608E-02  0.8220095E-01
         -1   -1    0    0    0  501 -0.00000000000E+00  0.00000000000E+00  0.61399855386E+03  0.61399855386E+03  0.00000000000E+00 0.  1.
          1   -1    0    0  501    0  0.00000000000E+00 -0.00000000000E+00 -0.38730265857E+04  0.38730265857E+04  0.00000000000E+00 0. -1.
         23    2    1    2    0    0  0.73593746863E+03  0.11522183763E+03  0.33114799075E+03  0.82038581959E+03  0.92162202717E+02 0.  0.
         11    1    3    3    0    0  0.33909912310E+03  0.92825578164E+02  0.18166551162E+03  0.39573622700E+03  0.00000000000E+00 0.  1.
        -11    1    3    3    0    0  0.39683834553E+03  0.22396259465E+02  0.14948247913E+03  0.42464959260E+03  0.00000000000E+00 0. -1.
         22    1    1    2    0    0 -0.73593746863E+03 -0.11522183763E+03 -0.35901760226E+04  0.36666393200E+04  0.00000000000E+00 0. -1.
<mgrwt>
<rscale>  0 0.30841743E+04</rscale>
<asrwt>0</asrwt>
<pdfrwt beam="1">  1        1 0.59585024E+00 0.30841743E+04</pdfrwt>
<pdfrwt beam="2">  1       -1 0.94461316E-01 0.30841743E+04</pdfrwt>
<totfact> 0.11316227E-01</totfact>
</mgrwt>
</event>
<event>
 6    1  0.2238133E-007  0.2296096E+04  0.7818608E-02  0.8479462E-01
          1   -1    0    0  501    0  0.00000000000E+00  0.00000000000E+00  0.14713070386E+04  0.14713070386E+04  0.00000000000E+00 0. -1.
         -1   -1    0    0    0  501 -0.00000000000E+00 -0.00000000000E+00 -0.89581217699E+03  0.89581217699E+03  0.00000000000E+00 0.  1.
         23    2    1    2    0    0 -0.55232507535E+02  0.11430559067E+04  0.22205836704E+03  0.11693943760E+04  0.92443779245E+02 0.  0.
         11    1    3    3    0    0 -0.49568206132E+02  0.31678038023E+03  0.38312653135E+02  0.32291589578E+03  0.00000000000E+00 0. -1.
        -11    1    3    3    0    0 -0.56643014037E+01  0.82627552652E+03  0.18374571390E+03  0.84647848019E+03  0.00000000000E+00 0.  1.
         22    1    1    2    0    0  0.55232507535E+02 -0.11430559067E+04  0.35343649462E+03  0.11977248397E+04  0.00000000000E+00 0.  1.
<mgrwt>
<rscale>  0 0.22960965E+04</rscale>
<asrwt>0</asrwt>
<pdfrwt beam="1">  1        1 0.22635493E+00 0.22960965E+04</pdfrwt>
<pdfrwt beam="2">  1       -1 0.13781726E+00 0.22960965E+04</pdfrwt>
<totfact> 0.27045944E+00</totfact>
</mgrwt>
</event>
<event>
 6    1  0.2238133E-007  0.2255821E+04  0.7818608E-02  0.8495547E-01
          2   -1    0    0  501    0  0.00000000000E+00  0.00000000000E+00  0.20050399247E+04  0.20050399247E+04  0.00000000000E+00 0. -1.
         -2   -1    0    0    0  501 -0.00000000000E+00 -0.00000000000E+00 -0.63449233547E+03  0.63449233547E+03  0.00000000000E+00 0.  1.
         23    2    1    2    0    0  0.23233053508E+03 -0.17931790499E+03  0.19584506067E+04  0.19824460052E+04  0.91820455459E+02 0.  0.
         11    1    3    3    0    0  0.63249994149E+02 -0.74025290806E+02  0.91403003261E+03  0.91920139575E+03  0.00000000000E+00 0. -1.
        -11    1    3    3    0    0  0.16908054093E+03 -0.10529261418E+03  0.10444205741E+04  0.10632446094E+04  0.00000000000E+00 0.  1.
         22    1    1    2    0    0 -0.23233053508E+03  0.17931790499E+03 -0.58790301745E+03  0.65708625500E+03  0.00000000000E+00 0.  1.
<mgrwt>
<rscale>  0 0.22558213E+04</rscale>
<asrwt>0</asrwt>
<pdfrwt beam="1">  1        2 0.30846768E+00 0.22558213E+04</pdfrwt>
<pdfrwt beam="2">  1       -2 0.97614206E-01 0.22558213E+04</pdfrwt>
<totfact> 0.52814806E+00</totfact>
</mgrwt>
</event>
<event>
 6    1  0.2238133E-007  0.2117754E+04  0.7818608E-02  0.8553463E-01
         -2   -1    0    0    0  501 -0.00000000000E+00  0.00000000000E+00  0.30750439370E+03  0.30750439370E+03  0.00000000000E+00 0.  1.
          2   -1    0    0  501    0  0.00000000000E+00 -0.00000000000E+00 -0.36461924609E+04  0.36461924609E+04  0.00000000000E+00 0. -1.
         23    2    1    2    0    0 -0.74517904148E+02 -0.75696508059E+03 -0.30251520393E+03  0.82369770014E+03  0.91724595055E+02 0.  0.
         13    1    3    3    0    0  0.58187777318E+00 -0.17283778529E+03 -0.32731433474E+02  0.17591073118E+03  0.00000000000E+00 0. -1.
        -13    1    3    3    0    0 -0.75099781922E+02 -0.58412729530E+03 -0.26978377046E+03  0.64778696897E+03  0.00000000000E+00 0.  1.
         22    1    1    2    0    0  0.74517904148E+02  0.75696508059E+03 -0.30361728632E+04  0.31299991544E+04  0.00000000000E+00 0. -1.
<mgrwt>
<rscale>  0 0.21177537E+04</rscale>
<asrwt>0</asrwt>
<pdfrwt beam="1">  1        2 0.56095269E+00 0.21177537E+04</pdfrwt>
<pdfrwt beam="2">  1       -2 0.47308368E-01 0.21177537E+04</pdfrwt>
<totfact> 0.25045430E+00</totfact>
</mgrwt>
</event>
<event>
 6    1  0.2238133E-007  0.2292980E+04  0.7818608E-02  0.8480694E-01
          1   -1    0    0  501    0  0.00000000000E+00  0.00000000000E+00  0.63790390089E+03  0.63790390089E+03  0.00000000000E+00 0. -1.
         -1   -1    0    0    0  501 -0.00000000000E+00 -0.00000000000E+00 -0.20605598792E+04  0.20605598792E+04  0.00000000000E+00 0.  1.
         23    2    1    2    0    0 -0.72929179197E+03 -0.70220673807E+03 -0.83505287597E+02  0.10196888121E+04  0.88494743074E+02 0.  0.
         13    1    3    3    0    0 -0.33697119972E+03 -0.37148762360E+03 -0.69830553317E+02  0.50638814175E+03  0.00000000000E+00 0.  1.
        -13    1    3    3    0    0 -0.39232059225E+03 -0.33071911447E+03 -0.13674734280E+02  0.51330067031E+03  0.00000000000E+00 0. -1.
         22    1    1    2    0    0  0.72929179197E+03  0.70220673807E+03 -0.13391506907E+04  0.16787749680E+04  0.00000000000E+00 0.  1.
<mgrwt>
<rscale>  0 0.22929799E+04</rscale>
<asrwt>0</asrwt>
<pdfrwt beam="1">  1        1 0.98139062E-01 0.22929799E+04</pdfrwt>
<pdfrwt beam="2">  1       -1 0.31700921E+00 0.22929799E+04</pdfrwt>
<totfact> 0.72535375E-01</totfact>
</mgrwt>
</event>
<event>
 6    1  0.2238133E-007  0.3095879E+04  0.7818608E-02  0.8216870E-01
         -2   -1    0    0    0  501 -0.00000000000E+00  0.00000000000E+00  0.32456471698E+04  0.32456471698E+04  0.00000000000E+00 0.  1.
          2   -1    0    0  501    0  0.00000000000E+00 -0.00000000000E+00 -0.73825533791E+03  0.73825533791E+03  0.00000000000E+00 0. -1.
         23    2    1    2    0    0  0.63084580023E+03  0.74817947809E+03 -0.28628854994E+03  0.10237692285E+04  0.91669756300E+02 0.  0.
         13    1    3    3    0    0  0.28261615602E+03  0.31937798436E+03 -0.17102366128E+03  0.45948153526E+03  0.00000000000E+00 0.  1.
        -13    1    3    3    0    0  0.34822964421E+03  0.42880149373E+03 -0.11526488866E+03  0.56428769320E+03  0.00000000000E+00 0. -1.
         22    1    1    2    0    0 -0.63084580023E+03 -0.74817947809E+03  0.27936803818E+04  0.29601332793E+04  0.00000000000E+00 0.  1.
<mgrwt>
<rscale>  0 0.30958788E+04</rscale>
<asrwt>0</asrwt>
<pdfrwt beam="1">  1        2 0.11357775E+00 0.30958788E+04</pdfrwt>
<pdfrwt beam="2">  1       -2 0.49933033E+00 0.30958788E+04</pdfrwt>
<totfact> 0.53980887E-02</totfact>
</mgrwt>
</event>
<event>
 6    1  0.2238133E-007  0.1268561E+04  0.7818608E-02  0.9054875E-01
         -2   -1    0    0    0  501 -0.00000000000E+00  0.00000000000E+00  0.10157422416E+04  0.10157422416E+04  0.00000000000E+00 0.  1.
          2   -1    0    0  501    0  0.00000000000E+00 -0.00000000000E+00 -0.39607640446E+03  0.39607640446E+03  0.00000000000E+00 0. -1.
         23    2    1    2    0    0 -0.23687087069E+03 -0.26995391641E+03 -0.26595183558E+03  0.45615050880E+03  0.91432934264E+02 0.  0.
         11    1    3    3    0    0 -0.13551269822E+03 -0.93475416673E+02 -0.93030646516E+02  0.18909269180E+03  0.00000000000E+00 0. -1.
        -11    1    3    3    0    0 -0.10135817247E+03 -0.17647849974E+03 -0.17292118906E+03  0.26705781700E+03  0.00000000000E+00 0.  1.
         22    1    1    2    0    0  0.23687087069E+03  0.26995391641E+03  0.88561767274E+03  0.95566813729E+03  0.00000000000E+00 0.  1.
<mgrwt>
<rscale>  0 0.12685607E+04</rscale>
<asrwt>0</asrwt>
<pdfrwt beam="1">  1        2 0.60934832E-01 0.12685607E+04</pdfrwt>
<pdfrwt beam="2">  1       -2 0.15626804E+00 0.12685607E+04</pdfrwt>
<totfact> 0.21187926E+01</totfact>
</mgrwt>
</event>
<event>
 6    1  0.2238133E-007  0.2641125E+04  0.7818608E-02  0.8354365E-01
          2   -1    0    0  501    0  0.00000000000E+00  0.00000000000E+00  0.10392597431E+04  0.10392597431E+04  0.00000000000E+00 0. -1.
         -2   -1    0    0    0  501 -0.00000000000E+00 -0.00000000000E+00 -0.16780074287E+04  0.16780074287E+04  0.00000000000E+00 0.  1.
         23    2    1    2    0    0 -0.94037275290E+03  0.92305207298E+03 -0.26019255920E+03  0.13462711734E+04  0.91759799201E+02 0.  0.
         11    1    3    3    0    0 -0.57322747014E+03  0.58499940954E+03 -0.11918206186E+03  0.82765838699E+03  0.00000000000E+00 0.  1.
        -11    1    3    3    0    0 -0.36714528276E+03  0.33805266344E+03 -0.14101049734E+03  0.51861278646E+03  0.00000000000E+00 0. -1.
         22    1    1    2    0    0  0.94037275290E+03 -0.92305207298E+03 -0.37855512635E+03  0.13709959984E+04  0.00000000000E+00 0. -1.
<mgrwt>
<rscale>  0 0.26411252E+04</rscale>
<asrwt>0</asrwt>
<pdfrwt beam="1">  1        2 0.15988612E+00 0.26411252E+04</pdfrwt>
<pdfrwt beam="2">  1       -2 0.25815499E+00 0.26411252E+04</pdfrwt>
<totfact> 0.12001990E+00</totfact>
</mgrwt>
</event>
<event>
 6    1  0.2238133E-007  0.3135749E+04  0.7818608E-02  0.8205995E-01
          2   -1    0    0  501    0  0.00000000000E+00  0.00000000000E+00  0.43007176148E+04  0.43007176148E+04  0.00000000000E+00 0. -1.
         -2   -1    0    0    0  501 -0.00000000000E+00 -0.00000000000E+00 -0.57158618371E+03  0.57158618371E+03  0.00000000000E+00 0.  1.
         23    2    1    2    0    0  0.50189254178E+02  0.78926813537E+03 -0.23502444949E+03  0.83002783116E+03  0.90810560479E+02 0.  0.
         13    1    3    3    0    0 -0.34893165538E+01  0.21107600840E+03 -0.25204245756E+02  0.21260411722E+03  0.00000000000E+00 0. -1.
        -13    1    3    3    0    0  0.53678570732E+02  0.57819212696E+03 -0.20982020374E+03  0.61742371394E+03  0.00000000000E+00 0.  1.
         22    1    1    2    0    0 -0.50189254178E+02 -0.78926813537E+03  0.39641558806E+04  0.40422759673E+04  0.00000000000E+00 0. -1.
<mgrwt>
<rscale>  0 0.31357492E+04</rscale>
<asrwt>0</asrwt>
<pdfrwt beam="1">  1        2 0.66164884E+00 0.31357492E+04</pdfrwt>
<pdfrwt beam="2">  1       -2 0.87936339E-01 0.31357492E+04</pdfrwt>
<totfact> 0.17842469E-01</totfact>
</mgrwt>
</event>
<event>
 6    1  0.2238133E-007  0.1664315E+04  0.7818608E-02  0.8781982E-01
         -2   -1    0    0    0  501 -0.00000000000E+00  0.00000000000E+00  0.30097771480E+03  0.30097771480E+03  0.00000000000E+00 0.  1.
          2   -1    0    0  501    0  0.00000000000E+00 -0.00000000000E+00 -0.23007898909E+04  0.23007898909E+04  0.00000000000E+00 0. -1.
         23    2    1    2    0    0 -0.76781451670E+02  0.44324127446E+03 -0.20926715194E+04  0.21424408415E+04  0.91763023312E+02 0.  0.
         11    1    3    3    0    0 -0.51088608154E+02  0.13139247108E+03 -0.80839190958E+03  0.82059216838E+03  0.00000000000E+00 0.  1.
        -11    1    3    3    0    0 -0.25692843516E+02  0.31184880338E+03 -0.12842796098E+04  0.13218486731E+04  0.00000000000E+00 0. -1.
         22    1    1    2    0    0  0.76781451670E+02 -0.44324127446E+03  0.92859343286E+02  0.45932676423E+03  0.00000000000E+00 0.  1.
<mgrwt>
<rscale>  0 0.16643155E+04</rscale>
<asrwt>0</asrwt>
<pdfrwt beam="1">  1        2 0.35396766E+00 0.16643155E+04</pdfrwt>
<pdfrwt beam="2">  1       -2 0.46304266E-01 0.16643155E+04</pdfrwt>
<totfact> 0.19127696E+01</totfact>
</mgrwt>
</event>
<event>
 6    1  0.2238133E-007  0.2628918E+04  0.7818608E-02  0.8358444E-01
          2   -1    0    0  501    0  0.00000000000E+00  0.00000000000E+00  0.34327173345E+04  0.34327173345E+04  0.00000000000E+00 0. -1.
         -2   -1    0    0    0  501 -0.00000000000E+00 -0.00000000000E+00 -0.50333388803E+03  0.50333388803E+03  0.00000000000E+00 0.  1.
         23    2    1    2    0    0 -0.44232846910E+03  0.10288593493E+04  0.24908618148E+04  0.27333429218E+04  0.11209331894E+03 0.  0.
         13    1    3    3    0    0 -0.24404811588E+03  0.49416281676E+03  0.13407434302E+04  0.14496031588E+04  0.00000000000E+00 0. -1.
        -13    1    3    3    0    0 -0.19828035322E+03  0.53469653259E+03  0.11501183847E+04  0.12837397630E+04  0.00000000000E+00 0.  1.
         22    1    1    2    0    0  0.44232846910E+03 -0.10288593493E+04  0.43852163167E+03  0.12027083008E+04  0.00000000000E+00 0.  1.
<mgrwt>
<rscale>  0 0.26289184E+04</rscale>
<asrwt>0</asrwt>
<pdfrwt beam="1">  1        2 0.52811035E+00 0.26289184E+04</pdfrwt>
<pdfrwt beam="2">  1       -2 0.77435985E-01 0.26289184E+04</pdfrwt>
<totfact> 0.11885889E+00</totfact>
</mgrwt>
</event>
<event>
 6    1  0.2238133E-007  0.1421867E+04  0.7818608E-02  0.8938140E-01
         -2   -1    0    0    0  501 -0.00000000000E+00  0.00000000000E+00  0.50034683776E+03  0.50034683776E+03  0.00000000000E+00 0.  1.
          2   -1    0    0  501    0  0.00000000000E+00 -0.00000000000E+00 -0.10101524044E+04  0.10101524044E+04  0.00000000000E+00 0. -1.
         23    2    1    2    0    0  0.16753941337E+03 -0.39451335974E+03  0.34262017269E+03  0.55638190812E+03  0.91989123852E+02 0.  0.
         11    1    3    3    0    0  0.23047938917E+02 -0.12952326002E+03  0.14411086061E+03  0.19512924568E+03  0.00000000000E+00 0. -1.
        -11    1    3    3    0    0  0.14449147445E+03 -0.26499009972E+03  0.19850931208E+03  0.36125266244E+03  0.00000000000E+00 0.  1.
         22    1    1    2    0    0 -0.16753941337E+03  0.39451335974E+03 -0.85242573928E+03  0.95411733400E+03  0.00000000000E+00 0. -1.
<mgrwt>
<rscale>  0 0.14218672E+04</rscale>
<asrwt>0</asrwt>
<pdfrwt beam="1">  1        2 0.15540806E+00 0.14218672E+04</pdfrwt>
<pdfrwt beam="2">  1       -2 0.76976436E-01 0.14218672E+04</pdfrwt>
<totfact> 0.36346509E+01</totfact>
</mgrwt>
</event>
<event>
 6    1  0.2238133E-007  0.9881398E+03  0.7818608E-02  0.9321649E-01
         -2   -1    0    0    0  501 -0.00000000000E+00  0.00000000000E+00  0.90933711234E+03  0.90933711234E+03  0.00000000000E+00 0.  1.
          2   -1    0    0  501    0  0.00000000000E+00 -0.00000000000E+00 -0.26844284933E+03  0.26844284933E+03  0.00000000000E+00 0. -1.
         23    2    1    2    0    0  0.16174551817E+03 -0.28322157367E+03  0.75862317503E+03  0.83102908689E+03  0.93403153707E+02 0.  0.
         13    1    3    3    0    0  0.87061117561E+02 -0.12162895208E+03  0.24094171642E+03  0.28359504736E+03  0.00000000000E+00 0. -1.
        -13    1    3    3    0    0  0.74684400611E+02 -0.16159262158E+03  0.51768145861E+03  0.54743403953E+03  0.00000000000E+00 0.  1.
         22    1    1    2    0    0 -0.16174551817E+03  0.28322157367E+03 -0.11772891201E+03  0.34675087478E+03  0.00000000000E+00 0. -1.
<mgrwt>
<rscale>  0 0.98813976E+03</rscale>
<asrwt>0</asrwt>
<pdfrwt beam="1">  1        2 0.41298900E-01 0.98813976E+03</pdfrwt>
<pdfrwt beam="2">  1       -2 0.13989802E+00 0.98813976E+03</pdfrwt>
<totfact> 0.44642799E+01</totfact>
</mgrwt>
</event>
<event>
 6    1  0.2238133E-007  0.3140511E+04  0.7818608E-02  0.8204707E-01
         -1   -1    0    0    0  501 -0.00000000000E+00  0.00000000000E+00  0.93072330055E+03  0.93072330055E+03  0.00000000000E+00 0.  1.
          1   -1    0    0  501    0  0.00000000000E+00 -0.00000000000E+00 -0.26492320663E+04  0.26492320663E+04  0.00000000000E+00 0. -1.
         23    2    1    2    0    0 -0.13404576205E+04  0.38811988052E+03 -0.42769233419E+02  0.13992291909E+04  0.92463222070E+02 0.  0.
         13    1    3    3    0    0 -0.75112957142E+03  0.19657288486E+03 -0.65112693441E+02  0.77915094492E+03  0.00000000000E+00 0.  1.
        -13    1    3    3    0    0 -0.58932804908E+03  0.19154699565E+03  0.22343460022E+02  0.62007824602E+03  0.00000000000E+00 0. -1.
         22    1    1    2    0    0  0.13404576205E+04 -0.38811988052E+03 -0.16757395323E+04  0.21807261759E+04  0.00000000000E+00 0. -1.
<mgrwt>
<rscale>  0 0.31405108E+04</rscale>
<asrwt>0</asrwt>
<pdfrwt beam="1">  1        1 0.40757416E+00 0.31405108E+04</pdfrwt>
<pdfrwt beam="2">  1       -1 0.14318820E+00 0.31405108E+04</pdfrwt>
<totfact> 0.35382488E-01</totfact>
</mgrwt>
</event>
<event>
 6    1  0.2238133E-007  0.3385680E+04  0.7818608E-02  0.8141430E-01
         -2   -1    0    0    0  501 -0.00000000000E+00  0.00000000000E+00  0.10850148770E+04  0.10850148770E+04  0.00000000000E+00 0.  1.
          2   -1    0    0  501    0  0.00000000000E+00 -0.00000000000E+00 -0.26411690783E+04  0.26411690783E+04  0.00000000000E+00 0. -1.
         23    2    1    2    0    0 -0.57461953429E+03 -0.80960859877E+03 -0.22860457734E+04  0.24939520780E+04  0.90210844463E+02 0.  0.
         13    1    3    3    0    0 -0.26907384159E+03 -0.44429656878E+03 -0.11308205347E+04  0.12444096009E+04  0.00000000000E+00 0.  1.
        -13    1    3    3    0    0 -0.30554569270E+03 -0.36531202999E+03 -0.11552252388E+04  0.12495424770E+04  0.00000000000E+00 0. -1.
         22    1    1    2    0    0  0.57461953429E+03  0.80960859877E+03  0.72989157222E+03  0.12322318774E+04  0.00000000000E+00 0.  1.
<mgrwt>
<rscale>  0 0.33856803E+04</rscale>
<asrwt>0</asrwt>
<pdfrwt beam="1">  1        2 0.40633370E+00 0.33856803E+04</pdfrwt>
<pdfrwt beam="2">  1       -2 0.16692537E+00 0.33856803E+04</pdfrwt>
<totfact> 0.53503856E-01</totfact>
</mgrwt>
</event>
<event>
 6    1  0.2238133E-007  0.1898642E+04  0.7818608E-02  0.8655533E-01
         -2   -1    0    0    0  501 -0.00000000000E+00  0.00000000000E+00  0.43352267286E+03  0.43352267286E+03  0.00000000000E+00 0.  1.
          2   -1    0    0  501    0  0.00000000000E+00 -0.00000000000E+00 -0.20788083442E+04  0.20788083442E+04  0.00000000000E+00 0. -1.
         23    2    1    2    0    0  0.29062331931E+03 -0.56211224563E+03 -0.17565057954E+04  0.18698343195E+04  0.10264347385E+03 0.  0.
         11    1    3    3    0    0  0.10507513656E+03 -0.11005546012E+03 -0.39513812801E+03  0.42342310853E+03  0.00000000000E+00 0. -1.
        -11    1    3    3    0    0  0.18554818276E+03 -0.45205678551E+03 -0.13613676674E+04  0.14464112110E+04  0.00000000000E+00 0.  1.
         22    1    1    2    0    0 -0.29062331931E+03  0.56211224563E+03  0.11122012402E+03  0.64249669758E+03  0.00000000000E+00 0.  1.
<mgrwt>
<rscale>  0 0.18986422E+04</rscale>
<asrwt>0</asrwt>
<pdfrwt beam="1">  1        2 0.31981667E+00 0.18986422E+04</pdfrwt>
<pdfrwt beam="2">  1       -2 0.66695795E-01 0.18986422E+04</pdfrwt>
<totfact> 0.11679930E+01</totfact>
</mgrwt>
</event>
<event>
 6    1  0.2238133E-007  0.1766889E+04  0.7818608E-02  0.8724109E-01
         -2   -1    0    0    0  501 -0.00000000000E+00  0.00000000000E+00  0.11279231696E+04  0.11279231696E+04  0.00000000000E+00 0.  1.
          2   -1    0    0  501    0  0.00000000000E+00 -0.00000000000E+00 -0.69195649233E+03  0.69195649233E+03  0.00000000000E+00 0. -1.
         23    2    1    2    0    0  0.40392238806E+03 -0.60944614400E+03  0.72466989017E+03  0.10337960511E+04  0.94920638233E+02 0.  0.
         11    1    3    3    0    0  0.81577393653E+02 -0.85883978789E+02  0.15944751420E+03  0.19863141432E+03  0.00000000000E+00 0. -1.
        -11    1    3    3    0    0  0.32234499441E+03 -0.52356216521E+03  0.56522237596E+03  0.83516463679E+03  0.00000000000E+00 0.  1.
         22    1    1    2    0    0 -0.40392238806E+03  0.60944614400E+03 -0.28870321292E+03  0.78608361080E+03  0.00000000000E+00 0. -1.
<mgrwt>
<rscale>  0 0.17668885E+04</rscale>
<asrwt>0</asrwt>
<pdfrwt beam="1">  1        2 0.10645484E+00 0.17668885E+04</pdfrwt>
<pdfrwt beam="2">  1       -2 0.17352664E+00 0.17668885E+04</pdfrwt>
<totfact> 0.79136423E+00</totfact>
</mgrwt>
</event>
<event>
 6    1  0.2238133E-007  0.1145442E+04  0.7818608E-02  0.9161998E-01
          2   -1    0    0  501    0  0.00000000000E+00  0.00000000000E+00  0.14223213263E+04  0.14223213263E+04  0.00000000000E+00 0. -1.
         -2   -1    0    0    0  501 -0.00000000000E+00 -0.00000000000E+00 -0.23061567829E+03  0.23061567829E+03  0.00000000000E+00 0.  1.
         23    2    1    2    0    0 -0.91305588033E+02  0.45109807301E+02  0.14076201207E+04  0.14142098284E+04  0.90683125859E+02 0.  0.
         13    1    3    3    0    0 -0.10583902545E+02  0.18374682297E+02  0.83888551361E+03  0.83915347398E+03  0.00000000000E+00 0.  1.
        -13    1    3    3    0    0 -0.80721685488E+02  0.26735125005E+02  0.56873460709E+03  0.57505635438E+03  0.00000000000E+00 0. -1.
         22    1    1    2    0    0  0.91305588033E+02 -0.45109807301E+02 -0.21591447272E+03  0.23872717619E+03  0.00000000000E+00 0.  1.
<mgrwt>
<rscale>  0 0.11454424E+04</rscale>
<asrwt>0</asrwt>
<pdfrwt beam="1">  1        2 0.21881866E+00 0.11454424E+04</pdfrwt>
<pdfrwt beam="2">  1       -2 0.35479336E-01 0.11454424E+04</pdfrwt>
<totfact> 0.10376039E+02</totfact>
</mgrwt>
</event>
<event>
 6    1  0.2238133E-007  0.2964550E+04  0.7818608E-02  0.8253927E-01
         -2   -1    0    0    0  501 -0.00000000000E+00  0.00000000000E+00  0.13685662198E+04  0.13685662198E+04  0.00000000000E+00 0.  1.
          2   -1    0    0  501    0  0.00000000000E+00 -0.00000000000E+00 -0.16054313243E+04  0.16054313243E+04  0.00000000000E+00 0. -1.
         23    2    1    2    0    0 -0.13734586183E+04  0.54837666482E+03 -0.19582338815E+03  0.14945415748E+04  0.90565870929E+02 0.  0.
         13    1    3    3    0    0 -0.88935134017E+03  0.33548900201E+03 -0.85983142441E+02  0.95440650538E+03  0.00000000000E+00 0. -1.
        -13    1    3    3    0    0 -0.48410727808E+03  0.21288766281E+03 -0.10984024571E+03  0.54013506944E+03  0.00000000000E+00 0.  1.
         22    1    1    2    0    0  0.13734586183E+04 -0.54837666482E+03 -0.41041716323E+02  0.14794559693E+04  0.00000000000E+00 0.  1.
<mgrwt>
<rscale>  0 0.29645499E+04</rscale>
<asrwt>0</asrwt>
<pdfrwt beam="1">  1        2 0.24698943E+00 0.29645499E+04</pdfrwt>
<pdfrwt beam="2">  1       -2 0.21054865E+00 0.29645499E+04</pdfrwt>
<totfact> 0.10799498E+00</totfact>
</mgrwt>
</event>
<event>
 6    1  0.2238133E-007  0.3230748E+04  0.7818608E-02  0.8180743E-01
          2   -1    0    0  501    0  0.00000000000E+00  0.00000000000E+00  0.14525590117E+04  0.14525590117E+04  0.00000000000E+00 0. -1.
         -2   -1    0    0    0  501 -0.00000000000E+00 -0.00000000000E+00 -0.17964390715E+04  0.17964390715E+04  0.00000000000E+00 0.  1.
         23    2    1    2    0    0  0.11112021161E+04 -0.11531931236E+04  0.30541793184E+02  0.16043655263E+04  0.91822751021E+02 0.  0.
         11    1    3    3    0    0  0.76038347427E+03 -0.84905976738E+03  0.23409581803E+02  0.11400147039E+04  0.00000000000E+00 0. -1.
        -11    1    3    3    0    0  0.35081864183E+03 -0.30413335623E+03  0.71322113812E+01  0.46435082241E+03  0.00000000000E+00 0.  1.
         22    1    1    2    0    0 -0.11112021161E+04  0.11531931236E+04 -0.37442185306E+03  0.16446325569E+04  0.00000000000E+00 0.  1.
<mgrwt>
<rscale>  0 0.32307484E+04</rscale>
<asrwt>0</asrwt>
<pdfrwt beam="1">  1        2 0.22347062E+00 0.32307484E+04</pdfrwt>
<pdfrwt beam="2">  1       -2 0.27637524E+00 0.32307484E+04</pdfrwt>
<totfact> 0.50262178E-01</totfact>
</mgrwt>
</event>
<event>
 6    1  0.2238133E-007  0.2778670E+04  0.7818608E-02  0.8309921E-01
          2   -1    0    0  501    0  0.00000000000E+00  0.00000000000E+00  0.17124484370E+04  0.17124484370E+04  0.00000000000E+00 0. -1.
         -2   -1    0    0    0  501 -0.00000000000E+00 -0.00000000000E+00 -0.11271882610E+04  0.11271882610E+04  0.00000000000E+00 0.  1.
         23    2    1    2    0    0  0.19887650895E+03  0.13400773310E+04  0.60118206893E+03  0.14847888742E+04  0.88425122558E+02 0.  0.
         13    1    3    3    0    0  0.10116197975E+03  0.41033099045E+03  0.19750106622E+03  0.46648894845E+03  0.00000000000E+00 0. -1.
        -13    1    3    3    0    0  0.97714529199E+02  0.92974634051E+03  0.40368100271E+03  0.10182999258E+04  0.00000000000E+00 0.  1.
         22    1    1    2    0    0 -0.19887650895E+03 -0.13400773310E+04 -0.15921892941E+02  0.13548478237E+04  0.00000000000E+00 0.  1.
<mgrwt>
<rscale>  0 0.27786700E+04</rscale>
<asrwt>0</asrwt>
<pdfrwt beam="1">  1        2 0.26345361E+00 0.27786700E+04</pdfrwt>
<pdfrwt beam="2">  1       -2 0.17341358E+00 0.27786700E+04</pdfrwt>
<totfact> 0.16963476E+00</totfact>
</mgrwt>
</event>
<event>
 6    1  0.2238133E-007  0.2643598E+04  0.7818608E-02  0.8353541E-01
          1   -1    0    0  501    0  0.00000000000E+00  0.00000000000E+00  0.25247822989E+04  0.25247822989E+04  0.00000000000E+00 0. -1.
         -1   -1    0    0    0  501 -0.00000000000E+00 -0.00000000000E+00 -0.69200147109E+03  0.69200147109E+03  0.00000000000E+00 0.  1.
         23    2    1    2    0    0  0.20411320279E+03  0.66641471068E+03 -0.44729477918E+03  0.83256156144E+03  0.85529924248E+02 0.  0.
         11    1    3    3    0    0  0.11130715005E+02  0.15487521543E+03 -0.10715221901E+03  0.18865795295E+03  0.00000000000E+00 0. -1.
        -11    1    3    3    0    0  0.19298248779E+03  0.51153949525E+03 -0.34014256017E+03  0.64390360849E+03  0.00000000000E+00 0.  1.
         22    1    1    2    0    0 -0.20411320279E+03 -0.66641471068E+03  0.22800756069E+04  0.23842222085E+04  0.00000000000E+00 0. -1.
<mgrwt>
<rscale>  0 0.26435984E+04</rscale>
<asrwt>0</asrwt>
<pdfrwt beam="1">  1        1 0.38842804E+00 0.26435984E+04</pdfrwt>
<pdfrwt beam="2">  1       -1 0.10646177E+00 0.26435984E+04</pdfrwt>
<totfact> 0.94130051E-01</totfact>
</mgrwt>
</event>
<event>
 6    1  0.2238133E-007  0.2874386E+04  0.7818608E-02  0.8280539E-01
         -2   -1    0    0    0  501 -0.00000000000E+00  0.00000000000E+00  0.72765606482E+03  0.72765606482E+03  0.00000000000E+00 0.  1.
          2   -1    0    0  501    0  0.00000000000E+00 -0.00000000000E+00 -0.28385992735E+04  0.28385992735E+04  0.00000000000E+00 0. -1.
         23    2    1    2    0    0  0.10679183260E+04  0.72141330431E+03 -0.27060187196E+03  0.13195370778E+04  0.84059620633E+02 0.  0.
         11    1    3    3    0    0  0.28016837368E+03  0.22838320246E+03 -0.56109200351E+02  0.36578880128E+03  0.00000000000E+00 0.  1.
        -11    1    3    3    0    0  0.78774995232E+03  0.49303010186E+03 -0.21449267161E+03  0.95374827649E+03  0.00000000000E+00 0. -1.
         22    1    1    2    0    0 -0.10679183260E+04 -0.72141330431E+03 -0.18403413367E+04  0.22467182605E+04  0.00000000000E+00 0. -1.
<mgrwt>
<rscale>  0 0.28743862E+04</rscale>
<asrwt>0</asrwt>
<pdfrwt beam="1">  1        2 0.43670758E+00 0.28743862E+04</pdfrwt>
<pdfrwt beam="2">  1       -2 0.11194709E+00 0.28743862E+04</pdfrwt>
<totfact> 0.11925003E+00</totfact>
</mgrwt>
</event>
<event>
 6    1  0.2238133E-007  0.3611364E+04  0.7818608E-02  0.8087894E-01
         -2   -1    0    0    0  501 -0.00000000000E+00  0.00000000000E+00  0.26178677289E+04  0.26178677289E+04  0.00000000000E+00 0.  1.
          2   -1    0    0  501    0  0.00000000000E+00 -0.00000000000E+00 -0.12454745018E+04  0.12454745018E+04  0.00000000000E+00 0. -1.
         23    2    1    2    0    0  0.50352438473E+03 -0.17062274536E+04  0.36290441581E+03  0.18179042362E+04  0.91253864246E+02 0.  0.
         13    1    3    3    0    0  0.30548413782E+03 -0.10581970086E+04  0.17983146549E+03  0.11159932005E+04  0.00000000000E+00 0. -1.
        -13    1    3    3    0    0  0.19804024690E+03 -0.64803044495E+03  0.18307295033E+03  0.70191103576E+03  0.00000000000E+00 0.  1.
         22    1    1    2    0    0 -0.50352438473E+03  0.17062274536E+04  0.10094888112E+04  0.20454379945E+04  0.00000000000E+00 0.  1.
<mgrwt>
<rscale>  0 0.36113640E+04</rscale>
<asrwt>0</asrwt>
<pdfrwt beam="1">  1        2 0.19161146E+00 0.36113640E+04</pdfrwt>
<pdfrwt beam="2">  1       -2 0.40274888E+00 0.36113640E+04</pdfrwt>
<totfact> 0.10311107E-01</totfact>
</mgrwt>
</event>
<event>
 6    1  0.2238133E-007  0.3644166E+04  0.7818608E-02  0.8080449E-01
         -2   -1    0    0    0  501 -0.00000000000E+00  0.00000000000E+00  0.13480050545E+04  0.13480050545E+04  0.00000000000E+00 0.  1.
          2   -1    0    0  501    0  0.00000000000E+00 -0.00000000000E+00 -0.24628883412E+04  0.24628883412E+04  0.00000000000E+00 0. -1.
         23    2    1    2    0    0  0.69535719547E+02 -0.42735362706E+03  0.12920597675E+04  0.13653175525E+04  0.84895450716E+02 0.  0.
         13    1    3    3    0    0  0.75524203399E+02 -0.26872179193E+03  0.90162823246E+03  0.94384785656E+03  0.00000000000E+00 0.  1.
        -13    1    3    3    0    0 -0.59884838516E+01 -0.15863183513E+03  0.39043153502E+03  0.42146969594E+03  0.00000000000E+00 0. -1.
         22    1    1    2    0    0 -0.69535719547E+02  0.42735362706E+03 -0.24069430542E+04  0.24455758432E+04  0.00000000000E+00 0. -1.
<mgrwt>
<rscale>  0 0.36441657E+04</rscale>
<asrwt>0</asrwt>
<pdfrwt beam="1">  1        2 0.37890589E+00 0.36441657E+04</pdfrwt>
<pdfrwt beam="2">  1       -2 0.20738540E+00 0.36441657E+04</pdfrwt>
<totfact> 0.35358477E-01</totfact>
</mgrwt>
</event>
<event>
 6    1  0.2238133E-007  0.2388911E+04  0.7818608E-02  0.8443667E-01
          2   -1    0    0  501    0  0.00000000000E+00  0.00000000000E+00  0.26771453697E+04  0.26771453697E+04  0.00000000000E+00 0. -1.
         -2   -1    0    0    0  501 -0.00000000000E+00 -0.00000000000E+00 -0.53292712650E+03  0.53292712650E+03  0.00000000000E+00 0.  1.
         23    2    1    2    0    0 -0.99095344444E+03  0.31530475442E+03  0.18585158084E+04  0.21316330225E+04  0.91501449857E+02 0.  0.
         11    1    3    3    0    0 -0.48945361015E+02 -0.43745536031E+01  0.89541811909E+02  0.10213971394E+03  0.00000000000E+00 0.  1.
        -11    1    3    3    0    0 -0.94200808343E+03  0.31967930802E+03  0.17689739965E+04  0.20294933085E+04  0.00000000000E+00 0. -1.
         22    1    1    2    0    0  0.99095344444E+03 -0.31530475442E+03  0.28570243483E+03  0.10784394737E+04  0.00000000000E+00 0.  1.
<mgrwt>
<rscale>  0 0.23889105E+04</rscale>
<asrwt>0</asrwt>
<pdfrwt beam="1">  1        2 0.41186851E+00 0.23889105E+04</pdfrwt>
<pdfrwt beam="2">  1       -2 0.81988790E-01 0.23889105E+04</pdfrwt>
<totfact> 0.32251856E+00</totfact>
</mgrwt>
</event>
<event>
 6    1  0.2238133E-007  0.2904301E+04  0.7818608E-02  0.8271599E-01
         -2   -1    0    0    0  501 -0.00000000000E+00  0.00000000000E+00  0.66797413496E+03  0.66797413496E+03  0.00000000000E+00 0.  1.
          2   -1    0    0  501    0  0.00000000000E+00 -0.00000000000E+00 -0.31569202193E+04  0.31569202193E+04  0.00000000000E+00 0. -1.
         23    2    1    2    0    0 -0.11098951778E+04  0.57890917582E+03 -0.22113315276E+04  0.25426802607E+04  0.90733916598E+02 0.  0.
         11    1    3    3    0    0 -0.37864126739E+03  0.21185209333E+03 -0.68429533943E+03  0.81025343591E+03  0.00000000000E+00 0. -1.
        -11    1    3    3    0    0 -0.73125391041E+03  0.36705708248E+03 -0.15270361882E+04  0.17324268248E+04  0.00000000000E+00 0.  1.
         22    1    1    2    0    0  0.11098951778E+04 -0.57890917582E+03 -0.27761455670E+03  0.12822140935E+04  0.00000000000E+00 0. -1.
<mgrwt>
<rscale>  0 0.29043010E+04</rscale>
<asrwt>0</asrwt>
<pdfrwt beam="1">  1        2 0.48568003E+00 0.29043010E+04</pdfrwt>
<pdfrwt beam="2">  1       -2 0.10276525E+00 0.29043010E+04</pdfrwt>
<totfact> 0.92310150E-01</totfact>
</mgrwt>
</event>
<event>
 6    1  0.2238133E-007  0.1047222E+04  0.7818608E-02  0.9258217E-01
          2   -1    0    0  501    0  0.00000000000E+00  0.00000000000E+00  0.10532435889E+04  0.10532435889E+04  0.00000000000E+00 0. -1.
         -2   -1    0    0    0  501 -0.00000000000E+00 -0.00000000000E+00 -0.26030864344E+03  0.26030864344E+03  0.00000000000E+00 0.  1.
         23    2    1    2    0    0  0.12987426015E+03  0.71810272857E+02  0.10241468174E+04  0.10388105929E+04  0.90701187603E+02 0.  0.
         11    1    3    3    0    0  0.40219956765E+02  0.69639157559E+02  0.59361945179E+03  0.59904199413E+03  0.00000000000E+00 0. -1.
        -11    1    3    3    0    0  0.89654303388E+02  0.21711152977E+01  0.43052736566E+03  0.43976859874E+03  0.00000000000E+00 0.  1.
         22    1    1    2    0    0 -0.12987426015E+03 -0.71810272857E+02 -0.23121187196E+03  0.27474163950E+03  0.00000000000E+00 0.  1.
<mgrwt>
<rscale>  0 0.10472219E+04</rscale>
<asrwt>0</asrwt>
<pdfrwt beam="1">  1        2 0.16203747E+00 0.10472219E+04</pdfrwt>
<pdfrwt beam="2">  1       -2 0.40047484E-01 0.10472219E+04</pdfrwt>
<totfact> 0.13679019E+02</totfact>
</mgrwt>
</event>
<event>
 6    1  0.2238133E-007  0.5054692E+04  0.7818608E-02  0.7820125E-01
          2   -1    0    0  501    0  0.00000000000E+00  0.00000000000E+00  0.30666096245E+04  0.30666096245E+04  0.00000000000E+00 0. -1.
         -2   -1    0    0    0  501 -0.00000000000E+00 -0.00000000000E+00 -0.20829122138E+04  0.20829122138E+04  0.00000000000E+00 0.  1.
         23    2    1    2    0    0  0.14986398891E+04 -0.20283383625E+04  0.64691117784E+03  0.26052138780E+04  0.92559428524E+02 0.  0.
         11    1    3    3    0    0  0.40770705934E+03 -0.50676275097E+03  0.19826936137E+03  0.67995902205E+03  0.00000000000E+00 0.  1.
        -11    1    3    3    0    0  0.10909328298E+04 -0.15215756116E+04  0.44864181647E+03  0.19252548559E+04  0.00000000000E+00 0. -1.
         22    1    1    2    0    0 -0.14986398891E+04  0.20283383625E+04  0.33678623291E+03  0.25443079603E+04  0.00000000000E+00 0.  1.
<mgrwt>
<rscale>  0 0.50546923E+04</rscale>
<asrwt>0</asrwt>
<pdfrwt beam="1">  1        2 0.47178609E+00 0.50546923E+04</pdfrwt>
<pdfrwt beam="2">  1       -2 0.32044803E+00 0.50546923E+04</pdfrwt>
<totfact> 0.27240203E-02</totfact>
</mgrwt>
</event>
<event>
 6    1  0.2238133E-007  0.9505229E+03  0.7818608E-02  0.9364540E-01
          2   -1    0    0  501    0  0.00000000000E+00  0.00000000000E+00  0.14005445308E+04  0.14005445308E+04  0.00000000000E+00 0. -1.
         -2   -1    0    0    0  501 -0.00000000000E+00 -0.00000000000E+00 -0.16127544316E+03  0.16127544316E+03  0.00000000000E+00 0.  1.
         23    2    1    2    0    0 -0.33174387689E+03  0.23129121088E+03  0.10213955554E+04  0.11024524739E+04  0.92752102725E+02 0.  0.
         13    1    3    3    0    0 -0.46448474681E+02  0.38530425958E+02  0.81026586791E+02  0.10103149158E+03  0.00000000000E+00 0.  1.
        -13    1    3    3    0    0 -0.28529540221E+03  0.19276078492E+03  0.94036896857E+03  0.10014209823E+04  0.00000000000E+00 0. -1.
         22    1    1    2    0    0  0.33174387689E+03 -0.23129121088E+03  0.21787353230E+03  0.45936750012E+03  0.00000000000E+00 0.  1.
<mgrwt>
<rscale>  0 0.95052289E+03</rscale>
<asrwt>0</asrwt>
<pdfrwt beam="1">  1        2 0.21546838E+00 0.95052289E+03</pdfrwt>
<pdfrwt beam="2">  1       -2 0.24811608E-01 0.95052289E+03</pdfrwt>
<totfact> 0.21022440E+02</totfact>
</mgrwt>
</event>
<event>
 6    1  0.2238133E-007  0.2484633E+04  0.7818608E-02  0.8408481E-01
         -2   -1    0    0    0  501 -0.00000000000E+00  0.00000000000E+00  0.12171133112E+04  0.12171133112E+04  0.00000000000E+00 0.  1.
          2   -1    0    0  501    0  0.00000000000E+00 -0.00000000000E+00 -0.12680416918E+04  0.12680416918E+04  0.00000000000E+00 0. -1.
         23    2    1    2    0    0  0.52630678148E+03 -0.63067286951E+03  0.90447909973E+03  0.12251746261E+04  0.90682556787E+02 0.  0.
         13    1    3    3    0    0  0.30767864072E+03 -0.36074392314E+03  0.58719185579E+03  0.75471623776E+03  0.00000000000E+00 0.  1.
        -13    1    3    3    0    0  0.21862814076E+03 -0.26992894637E+03  0.31728724394E+03  0.47045838837E+03  0.00000000000E+00 0. -1.
         22    1    1    2    0    0 -0.52630678148E+03  0.63067286951E+03 -0.95540748040E+03  0.12599803769E+04  0.00000000000E+00 0. -1.
<mgrwt>
<rscale>  0 0.24846331E+04</rscale>
<asrwt>0</asrwt>
<pdfrwt beam="1">  1        2 0.19508334E+00 0.24846331E+04</pdfrwt>
<pdfrwt beam="2">  1       -2 0.18724820E+00 0.24846331E+04</pdfrwt>
<totfact> 0.24934062E+00</totfact>
</mgrwt>
</event>
<event>
 6    1  0.2238133E-007  0.2503033E+04  0.7818608E-02  0.8401906E-01
          2   -1    0    0  501    0  0.00000000000E+00  0.00000000000E+00  0.34110139224E+04  0.34110139224E+04  0.00000000000E+00 0. -1.
         -2   -1    0    0    0  501 -0.00000000000E+00 -0.00000000000E+00 -0.45918708694E+03  0.45918708694E+03  0.00000000000E+00 0.  1.
         23    2    1    2    0    0 -0.31706111308E+03 -0.11604534692E+04  0.95350664260E+03  0.15377208708E+04  0.90722407776E+02 0.  0.
         13    1    3    3    0    0 -0.17035343564E+03 -0.76240763900E+03  0.64723529801E+03  0.10144945697E+04  0.00000000000E+00 0. -1.
        -13    1    3    3    0    0 -0.14670767744E+03 -0.39804583022E+03  0.30627134459E+03  0.52322630103E+03  0.00000000000E+00 0.  1.
         22    1    1    2    0    0  0.31706111308E+03  0.11604534692E+04  0.19983201928E+04  0.23324801386E+04  0.00000000000E+00 0.  1.
<mgrwt>
<rscale>  0 0.25030330E+04</rscale>
<asrwt>0</asrwt>
<pdfrwt beam="1">  1        2 0.52477136E+00 0.25030330E+04</pdfrwt>
<pdfrwt beam="2">  1       -2 0.70644169E-01 0.25030330E+04</pdfrwt>
<totfact> 0.15238076E+00</totfact>
</mgrwt>
</event>
<event>
 6    1  0.2238133E-007  0.4977550E+04  0.7818608E-02  0.7831980E-01
         -3   -1    0    0    0  501 -0.00000000000E+00  0.00000000000E+00  0.15559083435E+04  0.15559083435E+04  0.00000000000E+00 0.  1.
          3   -1    0    0  501    0  0.00000000000E+00 -0.00000000000E+00 -0.39809543422E+04  0.39809543422E+04  0.00000000000E+00 0. -1.
         23    2    1    2    0    0  0.20546945468E+04  0.15523158883E+03  0.33805729795E+03  0.20900371382E+04  0.90033191381E+02 0.  0.
         11    1    3    3    0    0  0.16932038555E+04  0.16086421961E+03  0.26909033326E+03  0.17219832173E+04  0.00000000000E+00 0.  1.
        -11    1    3    3    0    0  0.36149069137E+03 -0.56326307814E+01  0.68966964689E+02  0.36805392090E+03  0.00000000000E+00 0. -1.
         22    1    1    2    0    0 -0.20546945468E+04 -0.15523158883E+03 -0.27631032967E+04  0.34468255475E+04  0.00000000000E+00 0. -1.
<mgrwt>
<rscale>  0 0.49775496E+04</rscale>
<asrwt>0</asrwt>
<pdfrwt beam="1">  1        3 0.61245452E+00 0.49775496E+04</pdfrwt>
<pdfrwt beam="2">  1       -3 0.23937051E+00 0.49775496E+04</pdfrwt>
<totfact> 0.15473752E-04</totfact>
</mgrwt>
</event>
<event>
 6    1  0.2238133E-007  0.2280594E+04  0.7818608E-02  0.8485612E-01
          2   -1    0    0  501    0  0.00000000000E+00  0.00000000000E+00  0.12041842467E+04  0.12041842467E+04  0.00000000000E+00 0. -1.
         -2   -1    0    0    0  501 -0.00000000000E+00 -0.00000000000E+00 -0.10797994190E+04  0.10797994190E+04  0.00000000000E+00 0.  1.
         23    2    1    2    0    0 -0.44042443192E+02  0.10393260682E+04  0.52550181117E+03  0.11690696567E+04  0.91832978366E+02 0.  0.
         13    1    3    3    0    0 -0.23238065856E+00  0.68334615024E+03  0.30746957447E+03  0.74933273936E+03  0.00000000000E+00 0.  1.
        -13    1    3    3    0    0 -0.43810062533E+02  0.35597991796E+03  0.21803223670E+03  0.41973691738E+03  0.00000000000E+00 0. -1.
         22    1    1    2    0    0  0.44042443192E+02 -0.10393260682E+04 -0.40111698351E+03  0.11149140089E+04  0.00000000000E+00 0.  1.
<mgrwt>
<rscale>  0 0.22805942E+04</rscale>
<asrwt>0</asrwt>
<pdfrwt beam="1">  1        2 0.18525912E+00 0.22805942E+04</pdfrwt>
<pdfrwt beam="2">  1       -2 0.16612299E+00 0.22805942E+04</pdfrwt>
<totfact> 0.38857785E+00</totfact>
</mgrwt>
</event>
<event>
 6    1  0.2238133E-007  0.2034540E+04  0.7818608E-02  0.8590640E-01
         -2   -1    0    0    0  501 -0.00000000000E+00  0.00000000000E+00  0.55588856546E+03  0.55588856546E+03  0.00000000000E+00 0.  1.
          2   -1    0    0  501    0  0.00000000000E+00 -0.00000000000E+00 -0.18615929444E+04  0.18615929444E+04  0.00000000000E+00 0. -1.
         23    2    1    2    0    0  0.45921502988E+03 -0.48263784527E+03 -0.15643857640E+04  0.17028250943E+04  0.92156117272E+02 0.  0.
         13    1    3    3    0    0  0.19111708177E+03 -0.25865615038E+03 -0.69156645740E+03  0.76268794934E+03  0.00000000000E+00 0.  1.
        -13    1    3    3    0    0  0.26809794811E+03 -0.22398169489E+03 -0.87281930659E+03  0.94013714498E+03  0.00000000000E+00 0. -1.
         22    1    1    2    0    0 -0.45921502988E+03  0.48263784527E+03  0.25868138502E+03  0.71465641557E+03  0.00000000000E+00 0.  1.
<mgrwt>
<rscale>  0 0.20345400E+04</rscale>
<asrwt>0</asrwt>
<pdfrwt beam="1">  1        2 0.28639892E+00 0.20345400E+04</pdfrwt>
<pdfrwt beam="2">  1       -2 0.85521317E-01 0.20345400E+04</pdfrwt>
<totfact> 0.87792566E+00</totfact>
</mgrwt>
</event>
<event>
 6    1  0.2238133E-007  0.1537323E+04  0.7818608E-02  0.8860006E-01
          2   -1    0    0  501    0  0.00000000000E+00  0.00000000000E+00  0.13315643961E+04  0.13315643961E+04  0.00000000000E+00 0. -1.
         -2   -1    0    0    0  501 -0.00000000000E+00 -0.00000000000E+00 -0.44371931434E+03  0.44371931434E+03  0.00000000000E+00 0.  1.
         23    2    1    2    0    0  0.71881272354E+03 -0.25145801567E+03  0.35225302718E+03  0.84427258586E+03  0.93761073468E+02 0.  0.
         13    1    3    3    0    0  0.33329667448E+03 -0.15019873124E+03  0.20649842908E+03  0.41986656606E+03  0.00000000000E+00 0. -1.
        -13    1    3    3    0    0  0.38551604906E+03 -0.10125928443E+03  0.14575459810E+03  0.42440601979E+03  0.00000000000E+00 0.  1.
         22    1    1    2    0    0 -0.71881272354E+03  0.25145801567E+03  0.53559205457E+03  0.93101112458E+03  0.00000000000E+00 0.  1.
<mgrwt>
<rscale>  0 0.15373234E+04</rscale>
<asrwt>0</asrwt>
<pdfrwt beam="1">  1        2 0.20485606E+00 0.15373234E+04</pdfrwt>
<pdfrwt beam="2">  1       -2 0.68264511E-01 0.15373234E+04</pdfrwt>
<totfact> 0.29979316E+01</totfact>
</mgrwt>
</event>
<event>
 6    1  0.2238133E-007  0.1644558E+04  0.7818608E-02  0.8793632E-01
         -2   -1    0    0    0  501 -0.00000000000E+00  0.00000000000E+00  0.35560138073E+03  0.35560138073E+03  0.00000000000E+00 0.  1.
          2   -1    0    0  501    0  0.00000000000E+00 -0.00000000000E+00 -0.19014061789E+04  0.19014061789E+04  0.00000000000E+00 0. -1.
         23    2    1    2    0    0 -0.46196638284E+03 -0.10760310094E+03 -0.16928721431E+04  0.17603988906E+04  0.90536151091E+02 0.  0.
         13    1    3    3    0    0 -0.17512511781E+03 -0.86379363273E+02 -0.68598161703E+03  0.71323276718E+03  0.00000000000E+00 0. -1.
        -13    1    3    3    0    0 -0.28684126503E+03 -0.21223737664E+02 -0.10068905261E+04  0.10471661234E+04  0.00000000000E+00 0.  1.
         22    1    1    2    0    0  0.46196638284E+03  0.10760310094E+03  0.14706734500E+03  0.49660866905E+03  0.00000000000E+00 0.  1.
<mgrwt>
<rscale>  0 0.16445579E+04</rscale>
<asrwt>0</asrwt>
<pdfrwt beam="1">  1        2 0.29252403E+00 0.16445579E+04</pdfrwt>
<pdfrwt beam="2">  1       -2 0.54707904E-01 0.16445579E+04</pdfrwt>
<totfact> 0.22771913E+01</totfact>
</mgrwt>
</event>
<event>
 6    1  0.2238133E-007  0.9445989E+03  0.7818608E-02  0.9371486E-01
          2   -1    0    0  501    0  0.00000000000E+00  0.00000000000E+00  0.14795304226E+04  0.14795304226E+04  0.00000000000E+00 0. -1.
         -2   -1    0    0    0  501 -0.00000000000E+00 -0.00000000000E+00 -0.15076861356E+03  0.15076861356E+03  0.00000000000E+00 0.  1.
         23    2    1    2    0    0 -0.23414482129E+03  0.35568758750E+03  0.10035674381E+04  0.10944923209E+04  0.97099847923E+02 0.  0.
         13    1    3    3    0    0 -0.19642864475E+03  0.23850509324E+03  0.78537538934E+03  0.84396883483E+03  0.00000000000E+00 0. -1.
        -13    1    3    3    0    0 -0.37716176536E+02  0.11718249426E+03  0.21819204874E+03  0.25052348606E+03  0.00000000000E+00 0.  1.
         22    1    1    2    0    0  0.23414482129E+03 -0.35568758750E+03  0.32519437098E+03  0.53580671529E+03  0.00000000000E+00 0.  1.
<mgrwt>
<rscale>  0 0.94459886E+03</rscale>
<asrwt>0</asrwt>
<pdfrwt beam="1">  1        2 0.22762006E+00 0.94459886E+03</pdfrwt>
<pdfrwt beam="2">  1       -2 0.23195172E-01 0.94459886E+03</pdfrwt>
<totfact> 0.21418660E+02</totfact>
</mgrwt>
</event>
<event>
 6    1  0.2238133E-007  0.2205421E+04  0.7818608E-02  0.8516175E-01
         -2   -1    0    0    0  501 -0.00000000000E+00  0.00000000000E+00  0.50989840311E+03  0.50989840311E+03  0.00000000000E+00 0.  1.
          2   -1    0    0  501    0  0.00000000000E+00 -0.00000000000E+00 -0.23847318406E+04  0.23847318406E+04  0.00000000000E+00 0. -1.
         23    2    1    2    0    0  0.33852205133E+03  0.64279036212E+03  0.14646937798E+03  0.74673785797E+03  0.91583409936E+02 0.  0.
         11    1    3    3    0    0  0.21884503727E+03  0.45830730976E+03  0.64054755567E+02  0.51190013892E+03  0.00000000000E+00 0. -1.
        -11    1    3    3    0    0  0.11967701406E+03  0.18448305236E+03  0.82414622410E+02  0.23483771905E+03  0.00000000000E+00 0.  1.
         22    1    1    2    0    0 -0.33852205133E+03 -0.64279036212E+03 -0.20213028155E+04  0.21478923857E+04  0.00000000000E+00 0. -1.
<mgrwt>
<rscale>  0 0.22054215E+04</rscale>
<asrwt>0</asrwt>
<pdfrwt beam="1">  1        2 0.36688182E+00 0.22054215E+04</pdfrwt>
<pdfrwt beam="2">  1       -2 0.78445908E-01 0.22054215E+04</pdfrwt>
<totfact> 0.53535146E+00</totfact>
</mgrwt>
</event>
<event>
 6    1  0.2238133E-007  0.3569361E+04  0.7818608E-02  0.8097546E-01
         -2   -1    0    0    0  501 -0.00000000000E+00  0.00000000000E+00  0.10992753154E+04  0.10992753154E+04  0.00000000000E+00 0.  1.
          2   -1    0    0  501    0  0.00000000000E+00 -0.00000000000E+00 -0.28974399639E+04  0.28974399639E+04  0.00000000000E+00 0. -1.
         23    2    1    2    0    0 -0.16908213009E+03  0.16499892437E+04 -0.16337910204E+04  0.23299603601E+04  0.91590993831E+02 0.  0.
         13    1    3    3    0    0 -0.12300588742E+03  0.75395667079E+03 -0.75638159545E+03  0.10750321984E+04  0.00000000000E+00 0. -1.
        -13    1    3    3    0    0 -0.46076242671E+02  0.89603257294E+03 -0.87740942494E+03  0.12549281616E+04  0.00000000000E+00 0.  1.
         22    1    1    2    0    0  0.16908213009E+03 -0.16499892437E+04 -0.16437362802E+03  0.16667549192E+04  0.00000000000E+00 0.  1.
<mgrwt>
<rscale>  0 0.35693609E+04</rscale>
<asrwt>0</asrwt>
<pdfrwt beam="1">  1        2 0.44575999E+00 0.35693609E+04</pdfrwt>
<pdfrwt beam="2">  1       -2 0.16911928E+00 0.35693609E+04</pdfrwt>
<totfact> 0.35606525E-01</totfact>
</mgrwt>
</event>
<event>
 6    1  0.2238133E-007  0.1731512E+04  0.7818608E-02  0.8743593E-01
         -2   -1    0    0    0  501 -0.00000000000E+00  0.00000000000E+00  0.51457003206E+03  0.51457003206E+03  0.00000000000E+00 0.  1.
          2   -1    0    0  501    0  0.00000000000E+00 -0.00000000000E+00 -0.14566204554E+04  0.14566204554E+04  0.00000000000E+00 0. -1.
         23    2    1    2    0    0 -0.19427612087E+03  0.29927573610E+03 -0.13673460477E+04  0.14160458708E+04  0.90782799900E+02 0.  0.
         13    1    3    3    0    0 -0.13451976685E+03  0.12483348059E+03 -0.65542426245E+03  0.68063200730E+03  0.00000000000E+00 0. -1.
        -13    1    3    3    0    0 -0.59756354018E+02  0.17444225551E+03 -0.71192178521E+03  0.73541386349E+03  0.00000000000E+00 0.  1.
         22    1    1    2    0    0  0.19427612087E+03 -0.29927573610E+03  0.42529562432E+03  0.55514461667E+03  0.00000000000E+00 0.  1.
<mgrwt>
<rscale>  0 0.17315117E+04</rscale>
<asrwt>0</asrwt>
<pdfrwt beam="1">  1        2 0.22409545E+00 0.17315117E+04</pdfrwt>
<pdfrwt beam="2">  1       -2 0.79164621E-01 0.17315117E+04</pdfrwt>
<totfact> 0.18046373E+01</totfact>
</mgrwt>
</event>
<event>
 6    1  0.2238133E-007  0.1906524E+04  0.7818608E-02  0.8651616E-01
          2   -1    0    0  501    0  0.00000000000E+00  0.00000000000E+00  0.17727444789E+04  0.17727444789E+04  0.00000000000E+00 0. -1.
         -2   -1    0    0    0  501 -0.00000000000E+00 -0.00000000000E+00 -0.51259986406E+03  0.51259986406E+03  0.00000000000E+00 0.  1.
         23    2    1    2    0    0 -0.91814528915E+03  0.82323910160E+02  0.34770743769E+03  0.98830556158E+03  0.77970652456E+02 0.  0.
         11    1    3    3    0    0 -0.45100105935E+03  0.78753913626E+02  0.16359950880E+03  0.48617788280E+03  0.00000000000E+00 0. -1.
        -11    1    3    3    0    0 -0.46714422981E+03  0.35699965348E+01  0.18410792889E+03  0.50212767878E+03  0.00000000000E+00 0.  1.
         22    1    1    2    0    0  0.91814528915E+03 -0.82323910160E+02  0.91243717719E+03  0.12970387814E+04  0.00000000000E+00 0. -1.
<mgrwt>
<rscale>  0 0.19065241E+04</rscale>
<asrwt>0</asrwt>
<pdfrwt beam="1">  1        2 0.27272992E+00 0.19065241E+04</pdfrwt>
<pdfrwt beam="2">  1       -2 0.78861518E-01 0.19065241E+04</pdfrwt>
<totfact> 0.11938606E+01</totfact>
</mgrwt>
</event>
<event>
 6    1  0.2238133E-007  0.5613968E+04  0.7818608E-02  0.7740199E-01
          2   -1    0    0  501    0  0.00000000000E+00  0.00000000000E+00  0.32081692080E+04  0.32081692080E+04  0.00000000000E+00 0. -1.
         -2   -1    0    0    0  501 -0.00000000000E+00 -0.00000000000E+00 -0.24559677093E+04  0.24559677093E+04  0.00000000000E+00 0.  1.
         23    2    1    2    0    0 -0.20069109925E+04  0.15958777135E+04  0.15267204941E+04  0.29856304150E+04  0.92715153410E+02 0.  0.
         13    1    3    3    0    0 -0.12565953037E+04  0.10502137300E+04  0.95150577756E+03  0.18940284794E+04  0.00000000000E+00 0.  1.
        -13    1    3    3    0    0 -0.75031568885E+03  0.54566398345E+03  0.57521471656E+03  0.10916019357E+04  0.00000000000E+00 0. -1.
         22    1    1    2    0    0  0.20069109925E+04 -0.15958777135E+04 -0.77451899543E+03  0.26785065022E+04  0.00000000000E+00 0.  1.
<mgrwt>
<rscale>  0 0.56139683E+04</rscale>
<asrwt>0</asrwt>
<pdfrwt beam="1">  1        2 0.49356449E+00 0.56139683E+04</pdfrwt>
<pdfrwt beam="2">  1       -2 0.37784119E+00 0.56139683E+04</pdfrwt>
<totfact> 0.91801048E-03</totfact>
</mgrwt>
</event>
<event>
 6    1  0.2238133E-007  0.1994184E+04  0.7818608E-02  0.8609345E-01
          2   -1    0    0  501    0  0.00000000000E+00  0.00000000000E+00  0.30290452188E+04  0.30290452188E+04  0.00000000000E+00 0. -1.
         -2   -1    0    0    0  501 -0.00000000000E+00 -0.00000000000E+00 -0.32821975418E+03  0.32821975418E+03  0.00000000000E+00 0.  1.
         23    2    1    2    0    0 -0.25060584241E+02  0.94461416733E+03  0.18782043645E+04  0.21044164457E+04  0.89403489968E+02 0.  0.
         11    1    3    3    0    0  0.26964392599E+02  0.22523764290E+03  0.49302578242E+03  0.54270940325E+03  0.00000000000E+00 0. -1.
        -11    1    3    3    0    0 -0.52024976840E+02  0.71937652442E+03  0.13851785821E+04  0.15617070424E+04  0.00000000000E+00 0.  1.
         22    1    1    2    0    0  0.25060584241E+02 -0.94461416733E+03  0.82262110009E+03  0.12528485273E+04  0.00000000000E+00 0.  1.
<mgrwt>
<rscale>  0 0.19941840E+04</rscale>
<asrwt>0</asrwt>
<pdfrwt beam="1">  1        2 0.46600694E+00 0.19941840E+04</pdfrwt>
<pdfrwt beam="2">  1       -2 0.50495349E-01 0.19941840E+04</pdfrwt>
<totfact> 0.57697816E+00</totfact>
</mgrwt>
</event>
<event>
 6    1  0.2238133E-007  0.9083671E+03  0.7818608E-02  0.9415182E-01
         -2   -1    0    0    0  501 -0.00000000000E+00  0.00000000000E+00  0.36423188680E+03  0.36423188680E+03  0.00000000000E+00 0.  1.
          2   -1    0    0  501    0  0.00000000000E+00 -0.00000000000E+00 -0.56634986007E+03  0.56634986007E+03  0.00000000000E+00 0. -1.
         23    2    1    2    0    0 -0.38472443327E+03  0.17413277948E+03  0.56125803185E+02  0.43558178472E+03  0.90808980565E+02 0.  0.
         13    1    3    3    0    0 -0.48672239455E+02  0.58055880251E+02  0.19060325882E+02  0.78120216001E+02  0.00000000000E+00 0. -1.
        -13    1    3    3    0    0 -0.33605219382E+03  0.11607689923E+03  0.37065477302E+02  0.35746156872E+03  0.00000000000E+00 0.  1.
         22    1    1    2    0    0  0.38472443327E+03 -0.17413277948E+03 -0.25824377645E+03  0.49499996215E+03  0.00000000000E+00 0. -1.
<mgrwt>
<rscale>  0 0.90836706E+03</rscale>
<asrwt>0</asrwt>
<pdfrwt beam="1">  1        2 0.87130748E-01 0.90836706E+03</pdfrwt>
<pdfrwt beam="2">  1       -2 0.56035675E-01 0.90836706E+03</pdfrwt>
<totfact> 0.15950841E+02</totfact>
</mgrwt>
</event>
<event>
 6    1  0.2238133E-007  0.1806405E+04  0.7818608E-02  0.8702901E-01
         -2   -1    0    0    0  501 -0.00000000000E+00  0.00000000000E+00  0.45605902677E+03  0.45605902677E+03  0.00000000000E+00 0.  1.
          2   -1    0    0  501    0  0.00000000000E+00 -0.00000000000E+00 -0.17887482861E+04  0.17887482861E+04  0.00000000000E+00 0. -1.
         23    2    1    2    0    0 -0.62672671893E+03 -0.33645513955E+02  0.13491900646E+03  0.64862673956E+03  0.92709806077E+02 0.  0.
         11    1    3    3    0    0 -0.45273007773E+03 -0.65787202408E+02  0.99230560579E+02  0.46812304305E+03  0.00000000000E+00 0.  1.
        -11    1    3    3    0    0 -0.17399664120E+03  0.32141688453E+02  0.35688445878E+02  0.18050369651E+03  0.00000000000E+00 0. -1.
         22    1    1    2    0    0  0.62672671893E+03  0.33645513955E+02 -0.14676082658E+04  0.15961805733E+04  0.00000000000E+00 0. -1.
<mgrwt>
<rscale>  0 0.18064051E+04</rscale>
<asrwt>0</asrwt>
<pdfrwt beam="1">  1        2 0.27519204E+00 0.18064051E+04</pdfrwt>
<pdfrwt beam="2">  1       -2 0.70162929E-01 0.18064051E+04</pdfrwt>
<totfact> 0.15275156E+01</totfact>
</mgrwt>
</event>
<event>
 6    1  0.2238133E-007  0.8254983E+03  0.7818608E-02  0.9523825E-01
          2   -1    0    0  501    0  0.00000000000E+00  0.00000000000E+00  0.10019454589E+04  0.10019454589E+04  0.00000000000E+00 0. -1.
         -2   -1    0    0    0  501 -0.00000000000E+00 -0.00000000000E+00 -0.17003107006E+03  0.17003107006E+03  0.00000000000E+00 0.  1.
         23    2    1    2    0    0  0.28105726955E+03  0.13703391222E+03  0.79210171877E+03  0.85676781943E+03  0.94098255442E+02 0.  0.
         13    1    3    3    0    0  0.66169928702E+02  0.47954978126E+02  0.11700204498E+03  0.14271516360E+03  0.00000000000E+00 0. -1.
        -13    1    3    3    0    0  0.21488734085E+03  0.89078934094E+02  0.67509967379E+03  0.71405265584E+03  0.00000000000E+00 0.  1.
         22    1    1    2    0    0 -0.28105726955E+03 -0.13703391222E+03  0.39812670079E+02  0.31520870953E+03  0.00000000000E+00 0. -1.
<mgrwt>
<rscale>  0 0.82549829E+03</rscale>
<asrwt>0</asrwt>
<pdfrwt beam="1">  1        2 0.15414545E+00 0.82549829E+03</pdfrwt>
<pdfrwt beam="2">  1       -2 0.26158627E-01 0.82549829E+03</pdfrwt>
<totfact> 0.33284310E+02</totfact>
</mgrwt>
</event>
<event>
 6    1  0.2238133E-007  0.1400399E+04  0.7818608E-02  0.8953529E-01
          2   -1    0    0  501    0  0.00000000000E+00  0.00000000000E+00  0.41427389657E+03  0.41427389657E+03  0.00000000000E+00 0. -1.
         -2   -1    0    0    0  501 -0.00000000000E+00 -0.00000000000E+00 -0.11834674284E+04  0.11834674284E+04  0.00000000000E+00 0.  1.
         23    2    1    2    0    0 -0.17035869930E+03 -0.65376536388E+03 -0.18958458706E+03  0.70758529015E+03  0.91122937540E+02 0.  0.
         11    1    3    3    0    0 -0.95485424603E+02 -0.31037150788E+03 -0.13602329680E+03  0.35206572751E+03  0.00000000000E+00 0.  1.
        -11    1    3    3    0    0 -0.74873274693E+02 -0.34339385601E+03 -0.53561290258E+02  0.35551956264E+03  0.00000000000E+00 0. -1.
         22    1    1    2    0    0  0.17035869930E+03  0.65376536388E+03 -0.57960894472E+03  0.89015603477E+03  0.00000000000E+00 0. -1.
<mgrwt>
<rscale>  0 0.14003995E+04</rscale>
<asrwt>0</asrwt>
<pdfrwt beam="1">  1        2 0.63734445E-01 0.14003995E+04</pdfrwt>
<pdfrwt beam="2">  1       -2 0.18207191E+00 0.14003995E+04</pdfrwt>
<totfact> 0.13035978E+01</totfact>
</mgrwt>
</event>
<event>
 6    1  0.2238133E-007  0.2941690E+04  0.7818608E-02  0.8260581E-01
         -2   -1    0    0    0  501 -0.00000000000E+00  0.00000000000E+00  0.16956141540E+04  0.16956141540E+04  0.00000000000E+00 0.  1.
          2   -1    0    0  501    0  0.00000000000E+00 -0.00000000000E+00 -0.12758706235E+04  0.12758706235E+04  0.00000000000E+00 0. -1.
         23    2    1    2    0    0 -0.90343231292E+02  0.12920930703E+04 -0.49050034786E+03  0.13883832900E+04  0.96701433054E+02 0.  0.
         13    1    3    3    0    0 -0.56025909016E+02  0.66393258914E+03 -0.30289187341E+03  0.73190769390E+03  0.00000000000E+00 0.  1.
        -13    1    3    3    0    0 -0.34317322276E+02  0.62816048111E+03 -0.18760847445E+03  0.65647559613E+03  0.00000000000E+00 0. -1.
         22    1    1    2    0    0  0.90343231292E+02 -0.12920930703E+04  0.91024387836E+03  0.15831014875E+04  0.00000000000E+00 0.  1.
<mgrwt>
<rscale>  0 0.29416895E+04</rscale>
<asrwt>0</asrwt>
<pdfrwt beam="1">  1        2 0.19628779E+00 0.29416895E+04</pdfrwt>
<pdfrwt beam="2">  1       -2 0.26086371E+00 0.29416895E+04</pdfrwt>
<totfact> 0.80962699E-01</totfact>
</mgrwt>
</event>
<event>
 6    1  0.2238133E-007  0.3750300E+04  0.7818608E-02  0.8056905E-01
         -2   -1    0    0    0  501 -0.00000000000E+00  0.00000000000E+00  0.15250873664E+04  0.15250873664E+04  0.00000000000E+00 0.  1.
          2   -1    0    0  501    0  0.00000000000E+00 -0.00000000000E+00 -0.23055650715E+04  0.23055650715E+04  0.00000000000E+00 0. -1.
         23    2    1    2    0    0  0.11994915797E+04  0.74015886122E+02  0.10782764373E+04  0.16172330553E+04  0.92218646565E+02 0.  0.
         13    1    3    3    0    0  0.10914771145E+04  0.67998284104E+02  0.94301001523E+03  0.14440269897E+04  0.00000000000E+00 0. -1.
        -13    1    3    3    0    0  0.10801446518E+03  0.60176020181E+01  0.13526642211E+03  0.17320606563E+03  0.00000000000E+00 0.  1.
         22    1    1    2    0    0 -0.11994915797E+04 -0.74015886122E+02 -0.18587541424E+04  0.22134193826E+04  0.00000000000E+00 0. -1.
<mgrwt>
<rscale>  0 0.37503003E+04</rscale>
<asrwt>0</asrwt>
<pdfrwt beam="1">  1        2 0.35470232E+00 0.37503003E+04</pdfrwt>
<pdfrwt beam="2">  1       -2 0.23462883E+00 0.37503003E+04</pdfrwt>
<totfact> 0.28985780E-01</totfact>
</mgrwt>
</event>
<event>
 6    1  0.2238133E-007  0.1289084E+04  0.7818608E-02  0.9038267E-01
          1   -1    0    0  501    0  0.00000000000E+00  0.00000000000E+00  0.18716627250E+04  0.18716627250E+04  0.00000000000E+00 0. -1.
         -1   -1    0    0    0  501 -0.00000000000E+00 -0.00000000000E+00 -0.22195993393E+03  0.22195993393E+03  0.00000000000E+00 0.  1.
         23    2    1    2    0    0 -0.50297326094E+03  0.25430958885E+03  0.33201386297E+03  0.66045847453E+03  0.91196069912E+02 0.  0.
         11    1    3    3    0    0 -0.95815217732E+02  0.58133823456E+02  0.27211280578E+02  0.11532801554E+03  0.00000000000E+00 0. -1.
        -11    1    3    3    0    0 -0.40715804321E+03  0.19617576539E+03  0.30480258240E+03  0.54513045898E+03  0.00000000000E+00 0.  1.
         22    1    1    2    0    0  0.50297326094E+03 -0.25430958885E+03  0.13176889281E+04  0.14331641844E+04  0.00000000000E+00 0. -1.
<mgrwt>
<rscale>  0 0.12890836E+04</rscale>
<asrwt>0</asrwt>
<pdfrwt beam="1">  1        1 0.28794810E+00 0.12890836E+04</pdfrwt>
<pdfrwt beam="2">  1       -1 0.34147683E-01 0.12890836E+04</pdfrwt>
<totfact> 0.29066833E+01</totfact>
</mgrwt>
</event>
<event>
 6    1  0.2238133E-007  0.3143580E+04  0.7818608E-02  0.8203879E-01
          2   -1    0    0  501    0  0.00000000000E+00  0.00000000000E+00  0.34344757373E+04  0.34344757373E+04  0.00000000000E+00 0. -1.
         -2   -1    0    0    0  501 -0.00000000000E+00 -0.00000000000E+00 -0.71933061872E+03  0.71933061872E+03  0.00000000000E+00 0.  1.
         23    2    1    2    0    0 -0.46247862492E+03  0.11348083625E+04  0.26565576055E+04  0.29269775193E+04  0.90678492304E+02 0.  0.
         13    1    3    3    0    0 -0.13540096389E+03  0.38885687177E+03  0.98222806606E+03  0.10650422816E+04  0.00000000000E+00 0. -1.
        -13    1    3    3    0    0 -0.32707766103E+03  0.74595149071E+03  0.16743295394E+04  0.18619352377E+04  0.00000000000E+00 0.  1.
         22    1    1    2    0    0  0.46247862492E+03 -0.11348083625E+04  0.58587513114E+02  0.12268288368E+04  0.00000000000E+00 0.  1.
<mgrwt>
<rscale>  0 0.31435798E+04</rscale>
<asrwt>0</asrwt>
<pdfrwt beam="1">  1        2 0.52838087E+00 0.31435798E+04</pdfrwt>
<pdfrwt beam="2">  1       -2 0.11066625E+00 0.31435798E+04</pdfrwt>
<totfact> 0.49397810E-01</totfact>
</mgrwt>
</event>
<event>
 6    1  0.2238133E-007  0.3308662E+04  0.7818608E-02  0.8160695E-01
         -2   -1    0    0    0  501 -0.00000000000E+00  0.00000000000E+00  0.80553063039E+03  0.80553063039E+03  0.00000000000E+00 0.  1.
          2   -1    0    0  501    0  0.00000000000E+00 -0.00000000000E+00 -0.33975248093E+04  0.33975248093E+04  0.00000000000E+00 0. -1.
         23    2    1    2    0    0  0.68051469080E+03  0.15059325589E+04 -0.12385123167E+04  0.20669734497E+04  0.86794971880E+02 0.  0.
         11    1    3    3    0    0  0.13778969050E+03  0.23265048180E+03 -0.18764984029E+03  0.32912719130E+03  0.00000000000E+00 0. -1.
        -11    1    3    3    0    0  0.54272500031E+03  0.12732820771E+04 -0.10508624764E+04  0.17378462585E+04  0.00000000000E+00 0.  1.
         22    1    1    2    0    0 -0.68051469080E+03 -0.15059325589E+04 -0.13534818623E+04  0.21360819899E+04  0.00000000000E+00 0.  1.
<mgrwt>
<rscale>  0 0.33086615E+04</rscale>
<asrwt>0</asrwt>
<pdfrwt beam="1">  1        2 0.52269612E+00 0.33086615E+04</pdfrwt>
<pdfrwt beam="2">  1       -2 0.12392779E+00 0.33086615E+04</pdfrwt>
<totfact> 0.39089350E-01</totfact>
</mgrwt>
</event>
<event>
 6    1  0.2238133E-007  0.3680068E+04  0.7818608E-02  0.8072393E-01
          2   -1    0    0  501    0  0.00000000000E+00  0.00000000000E+00  0.14877305347E+04  0.14877305347E+04  0.00000000000E+00 0. -1.
         -2   -1    0    0    0  501 -0.00000000000E+00 -0.00000000000E+00 -0.22757645225E+04  0.22757645225E+04  0.00000000000E+00 0.  1.
         23    2    1    2    0    0 -0.31791153150E+03  0.61901657048E+03  0.13465942191E+04  0.15183031193E+04  0.87630559404E+02 0.  0.
         13    1    3    3    0    0 -0.20394591871E+03  0.38249100937E+03  0.92696283654E+03  0.10233051404E+04  0.00000000000E+00 0. -1.
        -13    1    3    3    0    0 -0.11396561279E+03  0.23652556111E+03  0.41963138253E+03  0.49499797895E+03  0.00000000000E+00 0.  1.
         22    1    1    2    0    0  0.31791153150E+03 -0.61901657048E+03 -0.21346282069E+04  0.22451919379E+04  0.00000000000E+00 0.  1.
<mgrwt>
<rscale>  0 0.36800676E+04</rscale>
<asrwt>0</asrwt>
<pdfrwt beam="1">  1        2 0.22888162E+00 0.36800676E+04</pdfrwt>
<pdfrwt beam="2">  1       -2 0.35011761E+00 0.36800676E+04</pdfrwt>
<totfact> 0.16214840E-01</totfact>
</mgrwt>
</event>
<event>
 6    1  0.2238133E-007  0.2084712E+04  0.7818608E-02  0.8568008E-01
          2   -1    0    0  501    0  0.00000000000E+00  0.00000000000E+00  0.27877091539E+04  0.27877091539E+04  0.00000000000E+00 0. -1.
         -2   -1    0    0    0  501 -0.00000000000E+00 -0.00000000000E+00 -0.38974860058E+03  0.38974860058E+03  0.00000000000E+00 0.  1.
         23    2    1    2    0    0 -0.26008485959E+03 -0.75986723844E+03  0.19337975813E+03  0.83113747865E+03  0.91386122044E+02 0.  0.
         13    1    3    3    0    0 -0.80703661825E+02 -0.13789237526E+03  0.20185295032E+02  0.16104295801E+03  0.00000000000E+00 0.  1.
        -13    1    3    3    0    0 -0.17938119777E+03 -0.62197486318E+03  0.17319446310E+03  0.67009452064E+03  0.00000000000E+00 0. -1.
         22    1    1    2    0    0  0.26008485959E+03  0.75986723844E+03  0.22045807951E+04  0.23463202758E+04  0.00000000000E+00 0. -1.
<mgrwt>
<rscale>  0 0.20847117E+04</rscale>
<asrwt>0</asrwt>
<pdfrwt beam="1">  1        2 0.42887832E+00 0.20847117E+04</pdfrwt>
<pdfrwt beam="2">  1       -2 0.59961325E-01 0.20847117E+04</pdfrwt>
<totfact> 0.56352520E+00</totfact>
</mgrwt>
</event>
<event>
 6    1  0.2238133E-007  0.4640592E+04  0.7818608E-02  0.7886475E-01
         -2   -1    0    0    0  501 -0.00000000000E+00  0.00000000000E+00  0.17950452038E+04  0.17950452038E+04  0.00000000000E+00 0.  1.
          2   -1    0    0  501    0  0.00000000000E+00 -0.00000000000E+00 -0.29992418388E+04  0.29992418388E+04  0.00000000000E+00 0. -1.
         23    2    1    2    0    0 -0.16274770784E+04 -0.15637853582E+04 -0.50242841613E+02  0.22593875092E+04  0.90560955056E+02 0.  0.
         13    1    3    3    0    0 -0.82404260588E+03 -0.80088520310E+03  0.19227843159E+02  0.11492750040E+04  0.00000000000E+00 0.  1.
        -13    1    3    3    0    0 -0.80343447247E+03 -0.76290015512E+03 -0.69470684772E+02  0.11101125052E+04  0.00000000000E+00 0. -1.
         22    1    1    2    0    0  0.16274770784E+04  0.15637853582E+04 -0.11539537934E+04  0.25348995334E+04  0.00000000000E+00 0. -1.
<mgrwt>
<rscale>  0 0.46405925E+04</rscale>
<asrwt>0</asrwt>
<pdfrwt beam="1">  1        2 0.46142181E+00 0.46405925E+04</pdfrwt>
<pdfrwt beam="2">  1       -2 0.27616081E+00 0.46405925E+04</pdfrwt>
<totfact> 0.58008751E-02</totfact>
</mgrwt>
</event>
<event>
 6    1  0.2238133E-007  0.3659490E+04  0.7818608E-02  0.8076999E-01
         -2   -1    0    0    0  501 -0.00000000000E+00  0.00000000000E+00  0.14761175751E+04  0.14761175751E+04  0.00000000000E+00 0.  1.
          2   -1    0    0  501    0  0.00000000000E+00 -0.00000000000E+00 -0.22680891459E+04  0.22680891459E+04  0.00000000000E+00 0. -1.
         23    2    1    2    0    0 -0.16047657629E+04 -0.72542269201E+03  0.10733744389E+03  0.17667669773E+04  0.91831308865E+02 0.  0.
         11    1    3    3    0    0 -0.70330652018E+03 -0.35072541533E+03  0.82445876846E+02  0.79021876774E+03  0.00000000000E+00 0. -1.
        -11    1    3    3    0    0 -0.90145924275E+03 -0.37469727667E+03  0.24891567043E+02  0.97654820956E+03  0.00000000000E+00 0.  1.
         22    1    1    2    0    0  0.16047657629E+04  0.72542269201E+03 -0.89930901468E+03  0.19774397437E+04  0.00000000000E+00 0. -1.
<mgrwt>
<rscale>  0 0.36594897E+04</rscale>
<asrwt>0</asrwt>
<pdfrwt beam="1">  1        2 0.34893679E+00 0.36594897E+04</pdfrwt>
<pdfrwt beam="2">  1       -2 0.22709501E+00 0.36594897E+04</pdfrwt>
<totfact> 0.34181045E-01</totfact>
</mgrwt>
</event>
<event>
 6    1  0.2238133E-007  0.2441697E+04  0.7818608E-02  0.8424056E-01
          2   -1    0    0  501    0  0.00000000000E+00  0.00000000000E+00  0.95619986410E+03  0.95619986410E+03  0.00000000000E+00 0. -1.
         -2   -1    0    0    0  501 -0.00000000000E+00 -0.00000000000E+00 -0.15587437718E+04  0.15587437718E+04  0.00000000000E+00 0.  1.
         23    2    1    2    0    0 -0.41120850174E+03 -0.47393490375E+03  0.77499955559E+03  0.10012287624E+04  0.90155414021E+02 0.  0.
         13    1    3    3    0    0 -0.55997215889E+02 -0.26662936115E+02  0.90832715052E+02  0.10998719231E+03  0.00000000000E+00 0. -1.
        -13    1    3    3    0    0 -0.35521128585E+03 -0.44727196763E+03  0.68416684054E+03  0.89124157012E+03  0.00000000000E+00 0.  1.
         22    1    1    2    0    0  0.41120850174E+03  0.47393490375E+03 -0.13775434633E+04  0.15137148735E+04  0.00000000000E+00 0.  1.
<mgrwt>
<rscale>  0 0.24416966E+04</rscale>
<asrwt>0</asrwt>
<pdfrwt beam="1">  1        2 0.14710767E+00 0.24416966E+04</pdfrwt>
<pdfrwt beam="2">  1       -2 0.23980673E+00 0.24416966E+04</pdfrwt>
<totfact> 0.17900760E+00</totfact>
</mgrwt>
</event>
<event>
 6    1  0.2238133E-007  0.2167657E+04  0.7818608E-02  0.8532012E-01
         -2   -1    0    0    0  501 -0.00000000000E+00  0.00000000000E+00  0.12083116036E+04  0.12083116036E+04  0.00000000000E+00 0.  1.
          2   -1    0    0  501    0  0.00000000000E+00 -0.00000000000E+00 -0.97217001147E+03  0.97217001147E+03  0.00000000000E+00 0. -1.
         23    2    1    2    0    0 -0.91813617980E+03  0.43425293802E+03 -0.25676208749E+03  0.10515424244E+04  0.90912276243E+02 0.  0.
         11    1    3    3    0    0 -0.49062715186E+03  0.24483575644E+03 -0.18369014727E+03  0.57827469250E+03  0.00000000000E+00 0. -1.
        -11    1    3    3    0    0 -0.42750902793E+03  0.18941718158E+03 -0.73071940224E+02  0.47326773193E+03  0.00000000000E+00 0.  1.
         22    1    1    2    0    0  0.91813617980E+03 -0.43425293802E+03  0.49290367967E+03  0.11289391907E+04  0.00000000000E+00 0.  1.
<mgrwt>
<rscale>  0 0.21676571E+04</rscale>
<asrwt>0</asrwt>
<pdfrwt beam="1">  1        2 0.14956462E+00 0.21676571E+04</pdfrwt>
<pdfrwt beam="2">  1       -2 0.18589409E+00 0.21676571E+04</pdfrwt>
<totfact> 0.39747032E+00</totfact>
</mgrwt>
</event>
<event>
 6    1  0.2238133E-007  0.4123039E+04  0.7818608E-02  0.7980175E-01
         -2   -1    0    0    0  501 -0.00000000000E+00  0.00000000000E+00  0.14456983791E+04  0.14456983791E+04  0.00000000000E+00 0.  1.
          2   -1    0    0  501    0  0.00000000000E+00 -0.00000000000E+00 -0.29396609399E+04  0.29396609399E+04  0.00000000000E+00 0. -1.
         23    2    1    2    0    0  0.78086560838E+03  0.16394669967E+04  0.28845990889E+03  0.18408293050E+04  0.88545352345E+02 0.  0.
         13    1    3    3    0    0  0.16239760915E+03  0.32507653523E+03  0.22701110961E+02  0.36409212797E+03  0.00000000000E+00 0. -1.
        -13    1    3    3    0    0  0.61846799923E+03  0.13143904615E+04  0.26575879793E+03  0.14767371770E+04  0.00000000000E+00 0.  1.
         22    1    1    2    0    0 -0.78086560838E+03 -0.16394669967E+04 -0.17824224697E+04  0.25445300140E+04  0.00000000000E+00 0. -1.
<mgrwt>
<rscale>  0 0.41230392E+04</rscale>
<asrwt>0</asrwt>
<pdfrwt beam="1">  1        2 0.45225553E+00 0.41230392E+04</pdfrwt>
<pdfrwt beam="2">  1       -2 0.22241514E+00 0.41230392E+04</pdfrwt>
<totfact> 0.14145106E-01</totfact>
</mgrwt>
</event>
<event>
 6    1  0.2238133E-007  0.1121269E+04  0.7818608E-02  0.9184706E-01
          2   -1    0    0  501    0  0.00000000000E+00  0.00000000000E+00  0.26294250757E+04  0.26294250757E+04  0.00000000000E+00 0. -1.
         -2   -1    0    0    0  501 -0.00000000000E+00 -0.00000000000E+00 -0.11953595883E+03  0.11953595883E+03  0.00000000000E+00 0.  1.
         23    2    1    2    0    0  0.73139863914E+02  0.51756372767E+03  0.79239332455E+03  0.95368572179E+03  0.91693092757E+02 0.  0.
         11    1    3    3    0    0  0.63878895774E+02  0.15277122420E+03  0.25923471315E+03  0.30760721184E+03  0.00000000000E+00 0. -1.
        -11    1    3    3    0    0  0.92609681406E+01  0.36479250347E+03  0.53315861140E+03  0.64607850995E+03  0.00000000000E+00 0.  1.
         22    1    1    2    0    0 -0.73139863914E+02 -0.51756372767E+03  0.17174957924E+04  0.17952753128E+04  0.00000000000E+00 0. -1.
<mgrwt>
<rscale>  0 0.11212687E+04</rscale>
<asrwt>0</asrwt>
<pdfrwt beam="1">  1        2 0.40452689E+00 0.11212687E+04</pdfrwt>
<pdfrwt beam="2">  1       -2 0.18390149E-01 0.11212687E+04</pdfrwt>
<totfact> 0.72527281E+01</totfact>
</mgrwt>
</event>
<event>
 6    1  0.2238133E-007  0.1455425E+04  0.7818608E-02  0.8914648E-01
          2   -1    0    0  501    0  0.00000000000E+00  0.00000000000E+00  0.90141224470E+03  0.90141224470E+03  0.00000000000E+00 0. -1.
         -2   -1    0    0    0  501 -0.00000000000E+00 -0.00000000000E+00 -0.58748437766E+03  0.58748437766E+03  0.00000000000E+00 0.  1.
         23    2    1    2    0    0 -0.67646930445E+02  0.53335926234E+03 -0.33994955647E+03  0.64237202442E+03  0.89598587597E+02 0.  0.
         13    1    3    3    0    0 -0.51764695826E+02  0.21841694927E+03 -0.18570319782E+03  0.29132666397E+03  0.00000000000E+00 0. -1.
        -13    1    3    3    0    0 -0.15882234619E+02  0.31494231307E+03 -0.15424635865E+03  0.35104536045E+03  0.00000000000E+00 0.  1.
         22    1    1    2    0    0  0.67646930445E+02 -0.53335926234E+03  0.65387742352E+03  0.84652459793E+03  0.00000000000E+00 0. -1.
<mgrwt>
<rscale>  0 0.14554252E+04</rscale>
<asrwt>0</asrwt>
<pdfrwt beam="1">  1        2 0.13867881E+00 0.14554252E+04</pdfrwt>
<pdfrwt beam="2">  1       -2 0.90382211E-01 0.14554252E+04</pdfrwt>
<totfact> 0.29688979E+01</totfact>
</mgrwt>
</event>
<event>
 6    1  0.2238133E-007  0.1114052E+04  0.7818608E-02  0.9191603E-01
          1   -1    0    0  501    0  0.00000000000E+00  0.00000000000E+00  0.19403769748E+04  0.19403769748E+04  0.00000000000E+00 0. -1.
         -1   -1    0    0    0  501 -0.00000000000E+00 -0.00000000000E+00 -0.15990602274E+03  0.15990602274E+03  0.00000000000E+00 0.  1.
         23    2    1    2    0    0  0.35683675925E+03 -0.36778842928E+03  0.50413957125E+03  0.72492028351E+03  0.93551636477E+02 0.  0.
         13    1    3    3    0    0  0.29254779033E+03 -0.34216749426E+03  0.41696096813E+03  0.61361164649E+03  0.00000000000E+00 0.  1.
        -13    1    3    3    0    0  0.64288968914E+02 -0.25620935018E+02  0.87178603120E+02  0.11130863703E+03  0.00000000000E+00 0. -1.
         22    1    1    2    0    0 -0.35683675925E+03  0.36778842928E+03  0.12763313808E+04  0.13753627140E+04  0.00000000000E+00 0. -1.
<mgrwt>
<rscale>  0 0.11140520E+04</rscale>
<asrwt>0</asrwt>
<pdfrwt beam="1">  1        1 0.29851952E+00 0.11140520E+04</pdfrwt>
<pdfrwt beam="2">  1       -1 0.24600928E-01 0.11140520E+04</pdfrwt>
<totfact> 0.46997787E+01</totfact>
</mgrwt>
</event>
<event>
 6    1  0.2238133E-007  0.1648262E+04  0.7818608E-02  0.8791435E-01
          2   -1    0    0  501    0  0.00000000000E+00  0.00000000000E+00  0.31377067295E+04  0.31377067295E+04  0.00000000000E+00 0. -1.
         -2   -1    0    0    0  501 -0.00000000000E+00 -0.00000000000E+00 -0.21646121678E+03  0.21646121678E+03  0.00000000000E+00 0.  1.
         23    2    1    2    0    0  0.78072338095E+03  0.22947055723E+03  0.12343535037E+04  0.14812583424E+04  0.91170009550E+02 0.  0.
         11    1    3    3    0    0  0.73648447316E+03  0.19439957667E+03  0.11330121577E+04  0.13652535018E+04  0.00000000000E+00 0.  1.
        -11    1    3    3    0    0  0.44238907794E+02  0.35070980565E+02  0.10134134597E+03  0.11600484060E+03  0.00000000000E+00 0. -1.
         22    1    1    2    0    0 -0.78072338095E+03 -0.22947055723E+03  0.16868920091E+04  0.18729096039E+04  0.00000000000E+00 0. -1.
<mgrwt>
<rscale>  0 0.16482619E+04</rscale>
<asrwt>0</asrwt>
<pdfrwt beam="1">  1        2 0.48272408E+00 0.16482619E+04</pdfrwt>
<pdfrwt beam="2">  1       -2 0.33301728E-01 0.16482619E+04</pdfrwt>
<totfact> 0.11530838E+01</totfact>
</mgrwt>
</event>
<event>
 6    1  0.2238133E-007  0.3461300E+04  0.7818608E-02  0.8123023E-01
         -2   -1    0    0    0  501 -0.00000000000E+00  0.00000000000E+00  0.67422762230E+03  0.67422762230E+03  0.00000000000E+00 0.  1.
          2   -1    0    0  501    0  0.00000000000E+00 -0.00000000000E+00 -0.44423423354E+04  0.44423423354E+04  0.00000000000E+00 0. -1.
         23    2    1    2    0    0  0.94289679784E+03  0.10209774422E+03  0.25248624494E+03  0.98562449880E+03  0.90708478026E+02 0.  0.
         11    1    3    3    0    0  0.21849841237E+03 -0.59504982281E+01  0.33178116428E+02  0.22108313379E+03  0.00000000000E+00 0.  1.
        -11    1    3    3    0    0  0.72439838548E+03  0.10804824245E+03  0.21930812851E+03  0.76454136501E+03  0.00000000000E+00 0. -1.
         22    1    1    2    0    0 -0.94289679784E+03 -0.10209774422E+03 -0.40206009581E+04  0.41309454589E+04  0.00000000000E+00 0. -1.
<mgrwt>
<rscale>  0 0.34613003E+04</rscale>
<asrwt>0</asrwt>
<pdfrwt beam="1">  1        2 0.68343729E+00 0.34613003E+04</pdfrwt>
<pdfrwt beam="2">  1       -2 0.10372732E+00 0.34613003E+04</pdfrwt>
<totfact> 0.86939859E-02</totfact>
</mgrwt>
</event>
<event>
 6    1  0.2238133E-007  0.3947228E+04  0.7818608E-02  0.8015278E-01
         -2   -1    0    0    0  501 -0.00000000000E+00  0.00000000000E+00  0.90017653144E+03  0.90017653144E+03  0.00000000000E+00 0.  1.
          2   -1    0    0  501    0  0.00000000000E+00 -0.00000000000E+00 -0.43270981084E+04  0.43270981084E+04  0.00000000000E+00 0. -1.
         23    2    1    2    0    0 -0.69993541042E+03  0.15989100122E+04 -0.29314295303E+04  0.34129055555E+04  0.90677638210E+02 0.  0.
         11    1    3    3    0    0 -0.31592841120E+03  0.77239395466E+03 -0.13222886952E+04  0.15636017957E+04  0.00000000000E+00 0. -1.
        -11    1    3    3    0    0 -0.38400699922E+03  0.82651605751E+03 -0.16091408351E+04  0.18493037598E+04  0.00000000000E+00 0.  1.
         22    1    1    2    0    0  0.69993541042E+03 -0.15989100122E+04 -0.49549204664E+03  0.18143690843E+04  0.00000000000E+00 0.  1.
<mgrwt>
<rscale>  0 0.39472280E+04</rscale>
<asrwt>0</asrwt>
<pdfrwt beam="1">  1        2 0.66570741E+00 0.39472280E+04</pdfrwt>
<pdfrwt beam="2">  1       -2 0.13848870E+00 0.39472280E+04</pdfrwt>
<totfact> 0.52169277E-02</totfact>
</mgrwt>
</event>
<event>
 6    1  0.2238133E-007  0.1180571E+04  0.7818608E-02  0.9130035E-01
          1   -1    0    0  501    0  0.00000000000E+00  0.00000000000E+00  0.18348570963E+04  0.18348570963E+04  0.00000000000E+00 0. -1.
         -1   -1    0    0    0  501 -0.00000000000E+00 -0.00000000000E+00 -0.18989856425E+03  0.18989856425E+03  0.00000000000E+00 0.  1.
         23    2    1    2    0    0  0.92435483110E+02 -0.41975705816E+03  0.13698180628E+03  0.45672054875E+03  0.71339596154E+02 0.  0.
         11    1    3    3    0    0  0.68944206860E+02 -0.38971726626E+03  0.11266412732E+03  0.41149247486E+03  0.00000000000E+00 0. -1.
        -11    1    3    3    0    0  0.23491276250E+02 -0.30039791899E+02  0.24317678959E+02  0.45228073883E+02  0.00000000000E+00 0.  1.
         22    1    1    2    0    0 -0.92435483110E+02  0.41975705816E+03  0.15079767257E+04  0.15680351118E+04  0.00000000000E+00 0. -1.
<mgrwt>
<rscale>  0 0.11805706E+04</rscale>
<asrwt>0</asrwt>
<pdfrwt beam="1">  1        1 0.28228569E+00 0.11805706E+04</pdfrwt>
<pdfrwt beam="2">  1       -1 0.29215165E-01 0.11805706E+04</pdfrwt>
<totfact> 0.40912129E+01</totfact>
</mgrwt>
</event>
<event>
 6    1  0.2238133E-007  0.2152078E+04  0.7818608E-02  0.8538643E-01
         -2   -1    0    0    0  501 -0.00000000000E+00  0.00000000000E+00  0.60318629349E+03  0.60318629349E+03  0.00000000000E+00 0.  1.
          2   -1    0    0  501    0  0.00000000000E+00 -0.00000000000E+00 -0.19195734456E+04  0.19195734456E+04  0.00000000000E+00 0. -1.
         23    2    1    2    0    0 -0.54006313753E+03 -0.92231276998E+03 -0.78444793322E+03  0.13289053213E+04  0.91113966814E+02 0.  0.
         11    1    3    3    0    0 -0.71511087838E+02 -0.12682262068E+03 -0.70141105193E+02  0.16160936680E+03  0.00000000000E+00 0. -1.
        -11    1    3    3    0    0 -0.46855204969E+03 -0.79549014930E+03 -0.71430682803E+03  0.11672959545E+04  0.00000000000E+00 0.  1.
         22    1    1    2    0    0  0.54006313753E+03  0.92231276998E+03 -0.53193921888E+03  0.11938544177E+04  0.00000000000E+00 0.  1.
<mgrwt>
<rscale>  0 0.21520784E+04</rscale>
<asrwt>0</asrwt>
<pdfrwt beam="1">  1        2 0.29531899E+00 0.21520784E+04</pdfrwt>
<pdfrwt beam="2">  1       -2 0.92797892E-01 0.21520784E+04</pdfrwt>
<totfact> 0.66895002E+00</totfact>
</mgrwt>
</event>
<event>
 6    1  0.2238133E-007  0.2610430E+04  0.7818608E-02  0.8364667E-01
         -2   -1    0    0    0  501 -0.00000000000E+00  0.00000000000E+00  0.51473990861E+03  0.51473990861E+03  0.00000000000E+00 0.  1.
          2   -1    0    0  501    0  0.00000000000E+00 -0.00000000000E+00 -0.33096070224E+04  0.33096070224E+04  0.00000000000E+00 0. -1.
         23    2    1    2    0    0  0.98565291427E+03  0.58626203451E+03 -0.49167836811E+03  0.12514316120E+04  0.95491472855E+02 0.  0.
         13    1    3    3    0    0  0.36424109142E+03  0.27063413437E+03 -0.18852013834E+03  0.49137994457E+03  0.00000000000E+00 0.  1.
        -13    1    3    3    0    0  0.62141182284E+03  0.31562790014E+03 -0.30315822977E+03  0.76005166745E+03  0.00000000000E+00 0. -1.
         22    1    1    2    0    0 -0.98565291427E+03 -0.58626203451E+03 -0.23031887457E+04  0.25729153190E+04  0.00000000000E+00 0. -1.
<mgrwt>
<rscale>  0 0.26104305E+04</rscale>
<asrwt>0</asrwt>
<pdfrwt beam="1">  1        2 0.50917029E+00 0.26104305E+04</pdfrwt>
<pdfrwt beam="2">  1       -2 0.79190759E-01 0.26104305E+04</pdfrwt>
<totfact> 0.13721776E+00</totfact>
</mgrwt>
</event>
<event>
 6    1  0.2238133E-007  0.2535646E+04  0.7818608E-02  0.8390395E-01
         -2   -1    0    0    0  501 -0.00000000000E+00  0.00000000000E+00  0.11334676373E+04  0.11334676373E+04  0.00000000000E+00 0.  1.
          2   -1    0    0  501    0  0.00000000000E+00 -0.00000000000E+00 -0.14181043595E+04  0.14181043595E+04  0.00000000000E+00 0. -1.
         23    2    1    2    0    0 -0.38345758032E+03  0.24709480919E+02 -0.13565483222E+04  0.14128688958E+04  0.91240845589E+02 0.  0.
         11    1    3    3    0    0 -0.17495594795E+03  0.56633840459E+02 -0.64859784758E+03  0.67416329141E+03  0.00000000000E+00 0. -1.
        -11    1    3    3    0    0 -0.20850163237E+03 -0.31924359540E+02 -0.70795047458E+03  0.73870560435E+03  0.00000000000E+00 0.  1.
         22    1    1    2    0    0  0.38345758032E+03 -0.24709480919E+02  0.10719115999E+04  0.11387031011E+04  0.00000000000E+00 0.  1.
<mgrwt>
<rscale>  0 0.25356462E+04</rscale>
<asrwt>0</asrwt>
<pdfrwt beam="1">  1        2 0.21816990E+00 0.25356462E+04</pdfrwt>
<pdfrwt beam="2">  1       -2 0.17437964E+00 0.25356462E+04</pdfrwt>
<totfact> 0.24939786E+00</totfact>
</mgrwt>
</event>
<event>
 6    1  0.2238133E-007  0.3755024E+04  0.7818608E-02  0.8055876E-01
         -2   -1    0    0    0  501 -0.00000000000E+00  0.00000000000E+00  0.25684046184E+04  0.25684046184E+04  0.00000000000E+00 0.  1.
          2   -1    0    0  501    0  0.00000000000E+00 -0.00000000000E+00 -0.13724669754E+04  0.13724669754E+04  0.00000000000E+00 0. -1.
         23    2    1    2    0    0 -0.61761900454E+03 -0.90769158292E+03  0.21951789811E+04  0.24563378300E+04  0.97095476183E+02 0.  0.
         13    1    3    3    0    0 -0.19523457330E+03 -0.29636842371E+03  0.81309925372E+03  0.88717595639E+03  0.00000000000E+00 0.  1.
        -13    1    3    3    0    0 -0.42238443124E+03 -0.61132315921E+03  0.13820797273E+04  0.15691618736E+04  0.00000000000E+00 0. -1.
         22    1    1    2    0    0  0.61761900454E+03  0.90769158292E+03 -0.99924133800E+03  0.14845337639E+04  0.00000000000E+00 0. -1.
<mgrwt>
<rscale>  0 0.37550236E+04</rscale>
<asrwt>0</asrwt>
<pdfrwt beam="1">  1        2 0.21114877E+00 0.37550236E+04</pdfrwt>
<pdfrwt beam="2">  1       -2 0.39513917E+00 0.37550236E+04</pdfrwt>
<totfact> 0.96377554E-02</totfact>
</mgrwt>
</event>
<event>
 6    1  0.2238133E-007  0.8024732E+03  0.7818608E-02  0.9556444E-01
         -2   -1    0    0    0  501 -0.00000000000E+00  0.00000000000E+00  0.59464598630E+03  0.59464598630E+03  0.00000000000E+00 0.  1.
          2   -1    0    0  501    0  0.00000000000E+00 -0.00000000000E+00 -0.27073386049E+03  0.27073386049E+03  0.00000000000E+00 0. -1.
         23    2    1    2    0    0  0.10733862551E+03  0.61273998674E+02  0.56997956066E+03  0.59001596765E+03  0.89252781877E+02 0.  0.
         11    1    3    3    0    0  0.40894355855E+02  0.52122046638E+02  0.14056489908E+03  0.15539480989E+03  0.00000000000E+00 0.  1.
        -11    1    3    3    0    0  0.66444269652E+02  0.91519520357E+01  0.42941466158E+03  0.43462115776E+03  0.00000000000E+00 0. -1.
         22    1    1    2    0    0 -0.10733862551E+03 -0.61273998674E+02 -0.24606743485E+03  0.27536387914E+03  0.00000000000E+00 0. -1.
<mgrwt>
<rscale>  0 0.80247319E+03</rscale>
<asrwt>0</asrwt>
<pdfrwt beam="1">  1        2 0.41651363E-01 0.80247319E+03</pdfrwt>
<pdfrwt beam="2">  1       -2 0.91483998E-01 0.80247319E+03</pdfrwt>
<totfact> 0.12618745E+02</totfact>
</mgrwt>
</event>
<event>
 6    1  0.2238133E-007  0.1347144E+04  0.7818608E-02  0.8992993E-01
          2   -1    0    0  501    0  0.00000000000E+00  0.00000000000E+00  0.16477558709E+04  0.16477558709E+04  0.00000000000E+00 0. -1.
         -2   -1    0    0    0  501 -0.00000000000E+00 -0.00000000000E+00 -0.27534371544E+03  0.27534371544E+03  0.00000000000E+00 0.  1.
         23    2    1    2    0    0  0.62948340948E+02  0.16702310491E+03  0.16120484258E+04  0.16242940421E+04  0.88157795680E+02 0.  0.
         11    1    3    3    0    0  0.66846838632E+02  0.84358218775E+02  0.66693013201E+03  0.67555947916E+03  0.00000000000E+00 0. -1.
        -11    1    3    3    0    0 -0.38984976842E+01  0.82664886138E+02  0.94511829377E+03  0.94873456293E+03  0.00000000000E+00 0.  1.
         22    1    1    2    0    0 -0.62948340948E+02 -0.16702310491E+03 -0.23963627033E+03  0.29880554423E+03  0.00000000000E+00 0.  1.
<mgrwt>
<rscale>  0 0.13471440E+04</rscale>
<asrwt>0</asrwt>
<pdfrwt beam="1">  1        2 0.25350090E+00 0.13471440E+04</pdfrwt>
<pdfrwt beam="2">  1       -2 0.42360573E-01 0.13471440E+04</pdfrwt>
<totfact> 0.54109172E+01</totfact>
</mgrwt>
</event>
<event>
 6    1  0.2238133E-007  0.2687770E+04  0.7818608E-02  0.8338984E-01
          2   -1    0    0  501    0  0.00000000000E+00  0.00000000000E+00  0.87435860022E+03  0.87435860022E+03  0.00000000000E+00 0. -1.
         -2   -1    0    0    0  501 -0.00000000000E+00 -0.00000000000E+00 -0.20655446055E+04  0.20655446055E+04  0.00000000000E+00 0.  1.
         23    2    1    2    0    0  0.31861611630E+03 -0.28873943581E+03 -0.19870875555E+04  0.20352784387E+04  0.94629163226E+02 0.  0.
         13    1    3    3    0    0  0.17707054080E+03 -0.20283332607E+03 -0.10694725770E+04  0.11028449245E+04  0.00000000000E+00 0. -1.
        -13    1    3    3    0    0  0.14154557550E+03 -0.85906109740E+02 -0.91761497850E+03  0.93243351420E+03  0.00000000000E+00 0.  1.
         22    1    1    2    0    0 -0.31861611630E+03  0.28873943581E+03  0.79590155024E+03  0.90462476698E+03  0.00000000000E+00 0. -1.
<mgrwt>
<rscale>  0 0.26877698E+04</rscale>
<asrwt>0</asrwt>
<pdfrwt beam="1">  1        2 0.13451671E+00 0.26877698E+04</pdfrwt>
<pdfrwt beam="2">  1       -2 0.31777609E+00 0.26877698E+04</pdfrwt>
<totfact> 0.66259057E-01</totfact>
</mgrwt>
</event>
<event>
 6    1  0.2238133E-007  0.1928999E+04  0.7818608E-02  0.8640555E-01
          2   -1    0    0  501    0  0.00000000000E+00  0.00000000000E+00  0.26641085285E+04  0.26641085285E+04  0.00000000000E+00 0. -1.
         -2   -1    0    0    0  501 -0.00000000000E+00 -0.00000000000E+00 -0.34918223582E+03  0.34918223582E+03  0.00000000000E+00 0.  1.
         23    2    1    2    0    0 -0.45951321103E+03  0.38375705249E+03  0.23371234910E+04  0.24141959621E+04  0.88170655381E+02 0.  0.
         13    1    3    3    0    0 -0.11266779316E+03  0.51317355750E+02  0.53413519318E+03  0.54829545613E+03  0.00000000000E+00 0. -1.
        -13    1    3    3    0    0 -0.34684541787E+03  0.33243969674E+03  0.18029882979E+04  0.18659005059E+04  0.00000000000E+00 0.  1.
         22    1    1    2    0    0  0.45951321103E+03 -0.38375705249E+03 -0.22197198368E+02  0.59909480223E+03  0.00000000000E+00 0.  1.
<mgrwt>
<rscale>  0 0.19289991E+04</rscale>
<asrwt>0</asrwt>
<pdfrwt beam="1">  1        2 0.40986284E+00 0.19289991E+04</pdfrwt>
<pdfrwt beam="2">  1       -2 0.53720346E-01 0.19289991E+04</pdfrwt>
<totfact> 0.85197939E+00</totfact>
</mgrwt>
</event>
<event>
 6    1  0.2238133E-007  0.1464777E+04  0.7818608E-02  0.8908220E-01
          1   -1    0    0  501    0  0.00000000000E+00  0.00000000000E+00  0.36739422339E+04  0.36739422339E+04  0.00000000000E+00 0. -1.
         -1   -1    0    0    0  501 -0.00000000000E+00 -0.00000000000E+00 -0.14599928822E+03  0.14599928822E+03  0.00000000000E+00 0.  1.
         23    2    1    2    0    0  0.65451282030E+03  0.32512570654E+03  0.17774924254E+04  0.19230570288E+04  0.67640644408E+02 0.  0.
         11    1    3    3    0    0  0.26502157297E+03  0.12197169633E+03  0.79456905849E+03  0.84643577285E+03  0.00000000000E+00 0.  1.
        -11    1    3    3    0    0  0.38949124732E+03  0.20315401021E+03  0.98292336692E+03  0.10766212560E+04  0.00000000000E+00 0. -1.
         22    1    1    2    0    0 -0.65451282030E+03 -0.32512570654E+03  0.17504505203E+04  0.18968844933E+04  0.00000000000E+00 0. -1.
<mgrwt>
<rscale>  0 0.14647770E+04</rscale>
<asrwt>0</asrwt>
<pdfrwt beam="1">  1        1 0.56522181E+00 0.14647770E+04</pdfrwt>
<pdfrwt beam="2">  1       -1 0.22461432E-01 0.14647770E+04</pdfrwt>
<totfact> 0.30017102E+00</totfact>
</mgrwt>
</event>
<event>
 6    1  0.2238133E-007  0.3414843E+04  0.7818608E-02  0.8134273E-01
         -2   -1    0    0    0  501 -0.00000000000E+00  0.00000000000E+00  0.32514843379E+04  0.32514843379E+04  0.00000000000E+00 0.  1.
          2   -1    0    0  501    0  0.00000000000E+00 -0.00000000000E+00 -0.89660218801E+03  0.89660218801E+03  0.00000000000E+00 0. -1.
         23    2    1    2    0    0 -0.15373777475E+04 -0.36286391332E+03  0.39488743137E+03  0.16307903862E+04  0.91327116772E+02 0.  0.
         11    1    3    3    0    0 -0.12055958745E+04 -0.26916251275E+03  0.34411414657E+03  0.12823121370E+04  0.00000000000E+00 0.  1.
        -11    1    3    3    0    0 -0.33178187304E+03 -0.93701400572E+02  0.50773284803E+02  0.34847824924E+03  0.00000000000E+00 0. -1.
         22    1    1    2    0    0  0.15373777475E+04  0.36286391332E+03  0.19599947185E+04  0.25172961396E+04  0.00000000000E+00 0.  1.
<mgrwt>
<rscale>  0 0.34148429E+04</rscale>
<asrwt>0</asrwt>
<pdfrwt beam="1">  1        2 0.13793880E+00 0.34148429E+04</pdfrwt>
<pdfrwt beam="2">  1       -2 0.50022836E+00 0.34148429E+04</pdfrwt>
<totfact> 0.40034349E-02</totfact>
</mgrwt>
</event>
<event>
 6    1  0.2238133E-007  0.2541250E+04  0.7818608E-02  0.8388436E-01
         -2   -1    0    0    0  501 -0.00000000000E+00  0.00000000000E+00  0.75084448784E+03  0.75084448784E+03  0.00000000000E+00 0.  1.
          2   -1    0    0  501    0  0.00000000000E+00 -0.00000000000E+00 -0.21502285697E+04  0.21502285697E+04  0.00000000000E+00 0. -1.
         23    2    1    2    0    0  0.33467686699E+03  0.58007622273E+03 -0.19310930391E+04  0.20459640325E+04  0.91386361007E+02 0.  0.
         13    1    3    3    0    0  0.15482627693E+02  0.50248567897E+02 -0.22913480416E+03  0.23509017166E+03  0.00000000000E+00 0.  1.
        -13    1    3    3    0    0  0.31919423930E+03  0.52982765483E+03 -0.17019582350E+04  0.18108738608E+04  0.00000000000E+00 0. -1.
         22    1    1    2    0    0 -0.33467686699E+03 -0.58007622273E+03  0.53170895728E+03  0.85510902505E+03  0.00000000000E+00 0.  1.
<mgrwt>
<rscale>  0 0.25412495E+04</rscale>
<asrwt>0</asrwt>
<pdfrwt beam="1">  1        2 0.33080439E+00 0.25412495E+04</pdfrwt>
<pdfrwt beam="2">  1       -2 0.11551454E+00 0.25412495E+04</pdfrwt>
<totfact> 0.28548941E+00</totfact>
</mgrwt>
</event>
<event>
 6    1  0.2238133E-007  0.1211843E+04  0.7818608E-02  0.9102553E-01
         -2   -1    0    0    0  501 -0.00000000000E+00  0.00000000000E+00  0.21676103323E+03  0.21676103323E+03  0.00000000000E+00 0.  1.
          2   -1    0    0  501    0  0.00000000000E+00 -0.00000000000E+00 -0.16937593679E+04  0.16937593679E+04  0.00000000000E+00 0. -1.
         23    2    1    2    0    0  0.53418081400E+03 -0.10990239492E+03 -0.33829004519E+03  0.64794990924E+03  0.89281866921E+02 0.  0.
         13    1    3    3    0    0  0.18381545033E+03 -0.66055648601E+02 -0.82984250704E+02  0.21222123918E+03  0.00000000000E+00 0.  1.
        -13    1    3    3    0    0  0.35036536366E+03 -0.43846746317E+02 -0.25530579448E+03  0.43572867006E+03  0.00000000000E+00 0. -1.
         22    1    1    2    0    0 -0.53418081400E+03  0.10990239492E+03 -0.11387082894E+04  0.12625704919E+04  0.00000000000E+00 0. -1.
<mgrwt>
<rscale>  0 0.12118433E+04</rscale>
<asrwt>0</asrwt>
<pdfrwt beam="1">  1        2 0.26057837E+00 0.12118433E+04</pdfrwt>
<pdfrwt beam="2">  1       -2 0.33347850E-01 0.12118433E+04</pdfrwt>
<totfact> 0.81873586E+01</totfact>
</mgrwt>
</event>
<event>
 6    1  0.2238133E-007  0.3561712E+04  0.7818608E-02  0.8099319E-01
          2   -1    0    0  501    0  0.00000000000E+00  0.00000000000E+00  0.12540041816E+04  0.12540041816E+04  0.00000000000E+00 0. -1.
         -2   -1    0    0    0  501 -0.00000000000E+00 -0.00000000000E+00 -0.25290576518E+04  0.25290576518E+04  0.00000000000E+00 0.  1.
         23    2    1    2    0    0 -0.17713471630E+04  0.16445552576E+03 -0.58494690579E+03  0.18749309515E+04  0.92123821608E+02 0.  0.
         13    1    3    3    0    0 -0.15366332703E+04  0.15316200435E+03 -0.47620839819E+03  0.16160058309E+04  0.00000000000E+00 0.  1.
        -13    1    3    3    0    0 -0.23471389277E+03  0.11293521401E+02 -0.10873850760E+03  0.25892512068E+03  0.00000000000E+00 0. -1.
         22    1    1    2    0    0  0.17713471630E+04 -0.16445552576E+03 -0.69010656442E+03  0.19081308818E+04  0.00000000000E+00 0.  1.
<mgrwt>
<rscale>  0 0.35617124E+04</rscale>
<asrwt>0</asrwt>
<pdfrwt beam="1">  1        2 0.19292372E+00 0.35617124E+04</pdfrwt>
<pdfrwt beam="2">  1       -2 0.38908579E+00 0.35617124E+04</pdfrwt>
<totfact> 0.12566417E-01</totfact>
</mgrwt>
</event>
<event>
 6    1  0.2238133E-007  0.3532917E+04  0.7818608E-02  0.8106033E-01
          2   -1    0    0  501    0  0.00000000000E+00  0.00000000000E+00  0.27901848671E+04  0.27901848671E+04  0.00000000000E+00 0. -1.
         -2   -1    0    0    0  501 -0.00000000000E+00 -0.00000000000E+00 -0.11183403624E+04  0.11183403624E+04  0.00000000000E+00 0.  1.
         23    2    1    2    0    0  0.13034620445E+04  0.11880336925E+04  0.74953539377E+03  0.19182761365E+04  0.86848565565E+02 0.  0.
         13    1    3    3    0    0  0.10344950687E+04  0.93486978045E+03  0.55417843932E+03  0.15004250385E+04  0.00000000000E+00 0. -1.
        -13    1    3    3    0    0  0.26896697581E+03  0.25316391204E+03  0.19535695444E+03  0.41785109799E+03  0.00000000000E+00 0.  1.
         22    1    1    2    0    0 -0.13034620445E+04 -0.11880336925E+04  0.92230911090E+03  0.19902490930E+04  0.00000000000E+00 0. -1.
<mgrwt>
<rscale>  0 0.35329174E+04</rscale>
<asrwt>0</asrwt>
<pdfrwt beam="1">  1        2 0.42925921E+00 0.35329174E+04</pdfrwt>
<pdfrwt beam="2">  1       -2 0.17205236E+00 0.35329174E+04</pdfrwt>
<totfact> 0.39579772E-01</totfact>
</mgrwt>
</event>
<event>
 6    1  0.2238133E-007  0.2764944E+04  0.7818608E-02  0.8314235E-01
         -2   -1    0    0    0  501 -0.00000000000E+00  0.00000000000E+00  0.10301157382E+04  0.10301157382E+04  0.00000000000E+00 0.  1.
          2   -1    0    0  501    0  0.00000000000E+00 -0.00000000000E+00 -0.18553538180E+04  0.18553538180E+04  0.00000000000E+00 0. -1.
         23    2    1    2    0    0 -0.98303662926E+03  0.72059432161E+03  0.26438165480E+03  0.12505725085E+04  0.91742840267E+02 0.  0.
         11    1    3    3    0    0 -0.49053916689E+03  0.41507532844E+03  0.14898949686E+03  0.65963177054E+03  0.00000000000E+00 0. -1.
        -11    1    3    3    0    0 -0.49249746237E+03  0.30551899317E+03  0.11539215795E+03  0.59094073793E+03  0.00000000000E+00 0.  1.
         22    1    1    2    0    0  0.98303662926E+03 -0.72059432161E+03 -0.10896197346E+04  0.16348970478E+04  0.00000000000E+00 0. -1.
<mgrwt>
<rscale>  0 0.27649442E+04</rscale>
<asrwt>0</asrwt>
<pdfrwt beam="1">  1        2 0.28543905E+00 0.27649442E+04</pdfrwt>
<pdfrwt beam="2">  1       -2 0.15847934E+00 0.27649442E+04</pdfrwt>
<totfact> 0.18139324E+00</totfact>
</mgrwt>
</event>
<event>
 6    1  0.2238133E-007  0.4695882E+04  0.7818608E-02  0.7877213E-01
          2   -1    0    0  501    0  0.00000000000E+00  0.00000000000E+00  0.15669411414E+04  0.15669411414E+04  0.00000000000E+00 0. -1.
         -2   -1    0    0    0  501 -0.00000000000E+00 -0.00000000000E+00 -0.35182086228E+04  0.35182086228E+04  0.00000000000E+00 0.  1.
         23    2    1    2    0    0  0.19224141596E+04 -0.12858286577E+04 -0.54334797872E+03  0.23775181673E+04  0.91291137579E+02 0.  0.
         11    1    3    3    0    0  0.10446973252E+04 -0.70371734749E+03 -0.34238882378E+03  0.13053124963E+04  0.00000000000E+00 0. -1.
        -11    1    3    3    0    0  0.87771683443E+03 -0.58211131022E+03 -0.20095915494E+03  0.10722056710E+04  0.00000000000E+00 0.  1.
         22    1    1    2    0    0 -0.19224141596E+04  0.12858286577E+04 -0.14079195027E+04  0.27076315969E+04  0.00000000000E+00 0.  1.
<mgrwt>
<rscale>  0 0.46958815E+04</rscale>
<asrwt>0</asrwt>
<pdfrwt beam="1">  1        2 0.24106787E+00 0.46958815E+04</pdfrwt>
<pdfrwt beam="2">  1       -2 0.54126286E+00 0.46958815E+04</pdfrwt>
<totfact> 0.82963087E-03</totfact>
</mgrwt>
</event>
<event>
 6    1  0.2238133E-007  0.2516339E+04  0.7818608E-02  0.8397188E-01
         -2   -1    0    0    0  501 -0.00000000000E+00  0.00000000000E+00  0.79031210718E+03  0.79031210718E+03  0.00000000000E+00 0.  1.
          2   -1    0    0  501    0  0.00000000000E+00 -0.00000000000E+00 -0.20029947982E+04  0.20029947982E+04  0.00000000000E+00 0. -1.
         23    2    1    2    0    0 -0.19903578101E+03  0.64475177399E+03  0.56947677147E+03  0.88768038323E+03  0.91392435903E+02 0.  0.
         13    1    3    3    0    0 -0.10086901813E+03  0.20819415008E+03  0.22794629998E+03  0.32477512008E+03  0.00000000000E+00 0. -1.
        -13    1    3    3    0    0 -0.98166762877E+02  0.43655762391E+03  0.34153047148E+03  0.56290526315E+03  0.00000000000E+00 0.  1.
         22    1    1    2    0    0  0.19903578101E+03 -0.64475177399E+03 -0.17821594625E+04  0.19056265221E+04  0.00000000000E+00 0.  1.
<mgrwt>
<rscale>  0 0.25163394E+04</rscale>
<asrwt>0</asrwt>
<pdfrwt beam="1">  1        2 0.30815304E+00 0.25163394E+04</pdfrwt>
<pdfrwt beam="2">  1       -2 0.12158648E+00 0.25163394E+04</pdfrwt>
<totfact> 0.30464591E+00</totfact>
</mgrwt>
</event>
<event>
 6    1  0.2238133E-007  0.3377436E+04  0.7818608E-02  0.8143467E-01
          2   -1    0    0  501    0  0.00000000000E+00  0.00000000000E+00  0.37959802793E+04  0.37959802793E+04  0.00000000000E+00 0. -1.
         -2   -1    0    0    0  501 -0.00000000000E+00 -0.00000000000E+00 -0.75126008963E+03  0.75126008963E+03  0.00000000000E+00 0.  1.
         23    2    1    2    0    0 -0.83495233378E+03  0.76815022069E+03 -0.15820958432E+03  0.11493058054E+04  0.93131092622E+02 0.  0.
         13    1    3    3    0    0 -0.46264319954E+03  0.38331241931E+03 -0.11848545928E+03  0.61237728970E+03  0.00000000000E+00 0. -1.
        -13    1    3    3    0    0 -0.37230913423E+03  0.38483780139E+03 -0.39724125035E+02  0.53692851565E+03  0.00000000000E+00 0.  1.
         22    1    1    2    0    0  0.83495233378E+03 -0.76815022069E+03  0.32029297740E+04  0.33979345636E+04  0.00000000000E+00 0. -1.
<mgrwt>
<rscale>  0 0.33774360E+04</rscale>
<asrwt>0</asrwt>
<pdfrwt beam="1">  1        2 0.58399695E+00 0.33774360E+04</pdfrwt>
<pdfrwt beam="2">  1       -2 0.11557848E+00 0.33774360E+04</pdfrwt>
<totfact> 0.23862170E-01</totfact>
</mgrwt>
</event>
<event>
 6    1  0.2238133E-007  0.6228918E+04  0.7818608E-02  0.7662649E-01
         -2   -1    0    0    0  501 -0.00000000000E+00  0.00000000000E+00  0.26943275799E+04  0.26943275799E+04  0.00000000000E+00 0.  1.
          2   -1    0    0  501    0  0.00000000000E+00 -0.00000000000E+00 -0.36001019719E+04  0.36001019719E+04  0.00000000000E+00 0. -1.
         23    2    1    2    0    0  0.11225273823E+04 -0.28885287473E+04 -0.14685450071E+03  0.31038770213E+04  0.93916298528E+02 0.  0.
         13    1    3    3    0    0  0.10835037049E+04 -0.27309612200E+04 -0.14190938258E+03  0.29414737355E+04  0.00000000000E+00 0.  1.
        -13    1    3    3    0    0  0.39023677393E+02 -0.15756752735E+03 -0.49451181309E+01  0.16240328589E+03  0.00000000000E+00 0. -1.
         22    1    1    2    0    0 -0.11225273823E+04  0.28885287473E+04 -0.75891989132E+03  0.31905525305E+04  0.00000000000E+00 0.  1.
<mgrwt>
<rscale>  0 0.62289177E+04</rscale>
<asrwt>0</asrwt>
<pdfrwt beam="1">  1        2 0.55386184E+00 0.62289177E+04</pdfrwt>
<pdfrwt beam="2">  1       -2 0.41451194E+00 0.62289177E+04</pdfrwt>
<totfact> 0.27193645E-03</totfact>
</mgrwt>
</event>
<event>
 6    1  0.2238133E-007  0.3330709E+04  0.7818608E-02  0.8155125E-01
         -2   -1    0    0    0  501 -0.00000000000E+00  0.00000000000E+00  0.18928218081E+04  0.18928218081E+04  0.00000000000E+00 0.  1.
          2   -1    0    0  501    0  0.00000000000E+00 -0.00000000000E+00 -0.14652226722E+04  0.14652226722E+04  0.00000000000E+00 0. -1.
         23    2    1    2    0    0  0.15166743656E+04 -0.45080939171E+02  0.90291017301E+03  0.17679960521E+04  0.90718451026E+02 0.  0.
         11    1    3    3    0    0  0.24213356500E+03  0.25957266228E+02  0.14189425683E+03  0.28184467902E+03  0.00000000000E+00 0.  1.
        -11    1    3    3    0    0  0.12745408006E+04 -0.71038205399E+02  0.76101591618E+03  0.14861513731E+04  0.00000000000E+00 0. -1.
         22    1    1    2    0    0 -0.15166743656E+04  0.45080939171E+02 -0.47531103708E+03  0.15900484283E+04  0.00000000000E+00 0. -1.
<mgrwt>
<rscale>  0 0.33307089E+04</rscale>
<asrwt>0</asrwt>
<pdfrwt beam="1">  1        2 0.22541887E+00 0.33307089E+04</pdfrwt>
<pdfrwt beam="2">  1       -2 0.29120335E+00 0.33307089E+04</pdfrwt>
<totfact> 0.39808402E-01</totfact>
</mgrwt>
</event>
<event>
 6    1  0.2238133E-007  0.2222423E+04  0.7818608E-02  0.8509153E-01
         -2   -1    0    0    0  501 -0.00000000000E+00  0.00000000000E+00  0.54225541330E+03  0.54225541330E+03  0.00000000000E+00 0.  1.
          2   -1    0    0  501    0  0.00000000000E+00 -0.00000000000E+00 -0.22771394025E+04  0.22771394025E+04  0.00000000000E+00 0. -1.
         23    2    1    2    0    0 -0.88446476710E+03  0.17078181749E+03 -0.46680333843E+02  0.90589646582E+03  0.83815271768E+02 0.  0.
         13    1    3    3    0    0 -0.30017562520E+03  0.84418068707E+02 -0.46437615205E+02  0.31525904966E+03  0.00000000000E+00 0. -1.
        -13    1    3    3    0    0 -0.58428914191E+03  0.86363748788E+02 -0.24271863774E+00  0.59063741616E+03  0.00000000000E+00 0.  1.
         22    1    1    2    0    0  0.88446476710E+03 -0.17078181749E+03 -0.16882036553E+04  0.19134983500E+04  0.00000000000E+00 0. -1.
<mgrwt>
<rscale>  0 0.22224232E+04</rscale>
<asrwt>0</asrwt>
<pdfrwt beam="1">  1        2 0.35032913E+00 0.22224232E+04</pdfrwt>
<pdfrwt beam="2">  1       -2 0.83423911E-01 0.22224232E+04</pdfrwt>
<totfact> 0.53576233E+00</totfact>
</mgrwt>
</event>
<event>
 6    1  0.2238133E-007  0.4326024E+04  0.7818608E-02  0.7941824E-01
         -1   -1    0    0    0  501 -0.00000000000E+00  0.00000000000E+00  0.28296026136E+04  0.28296026136E+04  0.00000000000E+00 0.  1.
          1   -1    0    0  501    0  0.00000000000E+00 -0.00000000000E+00 -0.16534548974E+04  0.16534548974E+04  0.00000000000E+00 0. -1.
         23    2    1    2    0    0  0.29739202851E+03 -0.40435123312E+03 -0.15909932477E+04  0.16707611091E+04  0.90781226941E+02 0.  0.
         11    1    3    3    0    0  0.16184994923E+03 -0.17099473843E+03 -0.62858606867E+03  0.67123397736E+03  0.00000000000E+00 0. -1.
        -11    1    3    3    0    0  0.13554207927E+03 -0.23335649468E+03 -0.96240717901E+03  0.99952713174E+03  0.00000000000E+00 0.  1.
         22    1    1    2    0    0 -0.29739202851E+03  0.40435123312E+03  0.27671409638E+04  0.28122964019E+04  0.00000000000E+00 0.  1.
<mgrwt>
<rscale>  0 0.43260237E+04</rscale>
<asrwt>0</asrwt>
<pdfrwt beam="1">  1        1 0.25437768E+00 0.43260237E+04</pdfrwt>
<pdfrwt beam="2">  1       -1 0.43532348E+00 0.43260237E+04</pdfrwt>
<totfact> 0.15973525E-02</totfact>
</mgrwt>
</event>
<event>
 6    1  0.2238133E-007  0.2166914E+04  0.7818608E-02  0.8532327E-01
          2   -1    0    0  501    0  0.00000000000E+00  0.00000000000E+00  0.20637758372E+04  0.20637758372E+04  0.00000000000E+00 0. -1.
         -2   -1    0    0    0  501 -0.00000000000E+00 -0.00000000000E+00 -0.56880149092E+03  0.56880149092E+03  0.00000000000E+00 0.  1.
         23    2    1    2    0    0  0.14001687164E+03  0.61889260771E+03  0.18124866989E+04  0.19230374221E+04  0.10164698158E+03 0.  0.
         13    1    3    3    0    0  0.43235783844E+02  0.36135742166E+03  0.93057470153E+03  0.99920858399E+03  0.00000000000E+00 0. -1.
        -13    1    3    3    0    0  0.96781087792E+02  0.25753518606E+03  0.88191199734E+03  0.92382883808E+03  0.00000000000E+00 0.  1.
         22    1    1    2    0    0 -0.14001687164E+03 -0.61889260771E+03 -0.31751235260E+03  0.70953990605E+03  0.00000000000E+00 0.  1.
<mgrwt>
<rscale>  0 0.21669137E+04</rscale>
<asrwt>0</asrwt>
<pdfrwt beam="1">  1        2 0.31750397E+00 0.21669137E+04</pdfrwt>
<pdfrwt beam="2">  1       -2 0.87507923E-01 0.21669137E+04</pdfrwt>
<totfact> 0.63603351E+00</totfact>
</mgrwt>
</event>
<event>
 6    1  0.2238133E-007  0.2339825E+04  0.7818608E-02  0.8462382E-01
         -2   -1    0    0    0  501 -0.00000000000E+00  0.00000000000E+00  0.15424629649E+04  0.15424629649E+04  0.00000000000E+00 0.  1.
          2   -1    0    0  501    0  0.00000000000E+00 -0.00000000000E+00 -0.88734399715E+03  0.88734399715E+03  0.00000000000E+00 0. -1.
         23    2    1    2    0    0  0.39010702324E+03  0.21113292951E+03  0.14499986178E+04  0.15195354302E+04  0.98647496158E+02 0.  0.
         13    1    3    3    0    0  0.11247427981E+03  0.10228676402E+03  0.39660688881E+03  0.42474706587E+03  0.00000000000E+00 0. -1.
        -13    1    3    3    0    0  0.27763274343E+03  0.10884616549E+03  0.10533917290E+04  0.10947883643E+04  0.00000000000E+00 0.  1.
         22    1    1    2    0    0 -0.39010702324E+03 -0.21113292951E+03 -0.79487965009E+03  0.91027153182E+03  0.00000000000E+00 0. -1.
<mgrwt>
<rscale>  0 0.23398250E+04</rscale>
<asrwt>0</asrwt>
<pdfrwt beam="1">  1        2 0.13651446E+00 0.23398250E+04</pdfrwt>
<pdfrwt beam="2">  1       -2 0.23730199E+00 0.23398250E+04</pdfrwt>
<totfact> 0.20802745E+00</totfact>
</mgrwt>
</event>
<event>
 6    1  0.2238133E-007  0.3108809E+04  0.7818608E-02  0.8213325E-01
         -2   -1    0    0    0  501 -0.00000000000E+00  0.00000000000E+00  0.93557985322E+03  0.93557985322E+03  0.00000000000E+00 0.  1.
          2   -1    0    0  501    0  0.00000000000E+00 -0.00000000000E+00 -0.25825405091E+04  0.25825405091E+04  0.00000000000E+00 0. -1.
         23    2    1    2    0    0 -0.37184848727E+03  0.31182816312E+03 -0.24937596078E+04  0.25421200726E+04  0.89606814718E+02 0.  0.
         11    1    3    3    0    0 -0.81888806821E+02  0.11880910331E+03 -0.66357503154E+03  0.67908261809E+03  0.00000000000E+00 0. -1.
        -11    1    3    3    0    0 -0.28995968045E+03  0.19301905981E+03 -0.18301845762E+04  0.18630374545E+04  0.00000000000E+00 0.  1.
         22    1    1    2    0    0  0.37184848727E+03 -0.31182816312E+03  0.84679895186E+03  0.97600028978E+03  0.00000000000E+00 0.  1.
<mgrwt>
<rscale>  0 0.31088087E+04</rscale>
<asrwt>0</asrwt>
<pdfrwt beam="1">  1        2 0.39731392E+00 0.31088087E+04</pdfrwt>
<pdfrwt beam="2">  1       -2 0.14393536E+00 0.31088087E+04</pdfrwt>
<totfact> 0.88290555E-01</totfact>
</mgrwt>
</event>
<event>
 6    1  0.2238133E-007  0.1725152E+04  0.7818608E-02  0.8747148E-01
          2   -1    0    0  501    0  0.00000000000E+00  0.00000000000E+00  0.22798725875E+04  0.22798725875E+04  0.00000000000E+00 0. -1.
         -2   -1    0    0    0  501 -0.00000000000E+00 -0.00000000000E+00 -0.32635044242E+03  0.32635044242E+03  0.00000000000E+00 0.  1.
         23    2    1    2    0    0 -0.80721879589E+03  0.12755432408E+03  0.13844331750E+04  0.16103643321E+04  0.93518854748E+02 0.  0.
         13    1    3    3    0    0 -0.33328131103E+03  0.40400706985E+02  0.48305097330E+03  0.58825750502E+03  0.00000000000E+00 0. -1.
        -13    1    3    3    0    0 -0.47393748486E+03  0.87153617097E+02  0.90138220166E+03  0.10221068271E+04  0.00000000000E+00 0.  1.
         22    1    1    2    0    0  0.80721879589E+03 -0.12755432408E+03  0.56908897008E+03  0.99585869775E+03  0.00000000000E+00 0.  1.
<mgrwt>
<rscale>  0 0.17251521E+04</rscale>
<asrwt>0</asrwt>
<pdfrwt beam="1">  1        2 0.35074962E+00 0.17251521E+04</pdfrwt>
<pdfrwt beam="2">  1       -2 0.50207762E-01 0.17251521E+04</pdfrwt>
<totfact> 0.16597064E+01</totfact>
</mgrwt>
</event>
<event>
 6    1  0.2238133E-007  0.1598615E+04  0.7818608E-02  0.8821400E-01
         -2   -1    0    0    0  501 -0.00000000000E+00  0.00000000000E+00  0.35234622348E+03  0.35234622348E+03  0.00000000000E+00 0.  1.
          2   -1    0    0  501    0  0.00000000000E+00 -0.00000000000E+00 -0.18132509714E+04  0.18132509714E+04  0.00000000000E+00 0. -1.
         23    2    1    2    0    0 -0.38138858047E+03 -0.47413976394E+03 -0.14296329257E+04  0.15562994911E+04  0.89174203639E+02 0.  0.
         11    1    3    3    0    0 -0.22554639537E+03 -0.23360918558E+03 -0.84355853337E+03  0.90390012019E+03  0.00000000000E+00 0. -1.
        -11    1    3    3    0    0 -0.15584218510E+03 -0.24053057836E+03 -0.58607439233E+03  0.65239937088E+03  0.00000000000E+00 0.  1.
         22    1    1    2    0    0  0.38138858047E+03  0.47413976394E+03 -0.31271822261E+02  0.60929770386E+03  0.00000000000E+00 0.  1.
<mgrwt>
<rscale>  0 0.15986146E+04</rscale>
<asrwt>0</asrwt>
<pdfrwt beam="1">  1        2 0.27896168E+00 0.15986146E+04</pdfrwt>
<pdfrwt beam="2">  1       -2 0.54207112E-01 0.15986146E+04</pdfrwt>
<totfact> 0.26069512E+01</totfact>
</mgrwt>
</event>
<event>
 6    1  0.2238133E-007  0.3369494E+04  0.7818608E-02  0.8145434E-01
         -1   -1    0    0    0  501 -0.00000000000E+00  0.00000000000E+00  0.18147723818E+04  0.18147723818E+04  0.00000000000E+00 0.  1.
          1   -1    0    0  501    0  0.00000000000E+00 -0.00000000000E+00 -0.15640380165E+04  0.15640380165E+04  0.00000000000E+00 0. -1.
         23    2    1    2    0    0  0.39973244964E+03  0.67292049085E+03  0.16201344895E+04  0.18015137493E+04  0.89487465812E+02 0.  0.
         11    1    3    3    0    0  0.25023401519E+03  0.48194289420E+03  0.10556586892E+04  0.11871399596E+04  0.00000000000E+00 0.  1.
        -11    1    3    3    0    0  0.14949843446E+03  0.19097759665E+03  0.56447580032E+03  0.61437378970E+03  0.00000000000E+00 0. -1.
         22    1    1    2    0    0 -0.39973244964E+03 -0.67292049085E+03 -0.13694001243E+04  0.15772966489E+04  0.00000000000E+00 0. -1.
<mgrwt>
<rscale>  0 0.33694943E+04</rscale>
<asrwt>0</asrwt>
<pdfrwt beam="1">  1        1 0.24062123E+00 0.33694943E+04</pdfrwt>
<pdfrwt beam="2">  1       -1 0.27919575E+00 0.33694943E+04</pdfrwt>
<totfact> 0.21946107E-01</totfact>
</mgrwt>
</event>
<event>
 6    1  0.2238133E-007  0.3544375E+04  0.7818608E-02  0.8103353E-01
          3   -1    0    0  501    0  0.00000000000E+00  0.00000000000E+00  0.12729551968E+04  0.12729551968E+04  0.00000000000E+00 0. -1.
         -3   -1    0    0    0  501 -0.00000000000E+00 -0.00000000000E+00 -0.24672104059E+04  0.24672104059E+04  0.00000000000E+00 0.  1.
         23    2    1    2    0    0 -0.11369977585E+04 -0.12225018270E+04  0.26051194658E+02  0.16722143608E+04  0.91365113017E+02 0.  0.
         13    1    3    3    0    0 -0.10446774094E+04 -0.11567486259E+04  0.22848576479E+02  0.15588265878E+04  0.00000000000E+00 0.  1.
        -13    1    3    3    0    0 -0.92320349096E+02 -0.65753201060E+02  0.32026181794E+01  0.11338777302E+03  0.00000000000E+00 0. -1.
         22    1    1    2    0    0  0.11369977585E+04  0.12225018270E+04 -0.12203064037E+04  0.20679512419E+04  0.00000000000E+00 0.  1.
<mgrwt>
<rscale>  0 0.35443749E+04</rscale>
<asrwt>0</asrwt>
<pdfrwt beam="1">  1        3 0.19583926E+00 0.35443749E+04</pdfrwt>
<pdfrwt beam="2">  1       -3 0.37957083E+00 0.35443749E+04</pdfrwt>
<totfact> 0.45405158E-03</totfact>
</mgrwt>
</event>
<event>
 6    1  0.2238133E-007  0.2166630E+04  0.7818608E-02  0.8532447E-01
         -2   -1    0    0    0  501 -0.00000000000E+00  0.00000000000E+00  0.54953824524E+03  0.54953824524E+03  0.00000000000E+00 0.  1.
          2   -1    0    0  501    0  0.00000000000E+00 -0.00000000000E+00 -0.21355596618E+04  0.21355596618E+04  0.00000000000E+00 0. -1.
         23    2    1    2    0    0 -0.54477294542E+03 -0.36930241712E+03  0.26870712395E+03  0.71705832505E+03  0.93847140166E+02 0.  0.
         13    1    3    3    0    0 -0.27766210387E+03 -0.13439754375E+03  0.14026771674E+03  0.33887162179E+03  0.00000000000E+00 0.  1.
        -13    1    3    3    0    0 -0.26711084154E+03 -0.23490487336E+03  0.12843940721E+03  0.37818670326E+03  0.00000000000E+00 0. -1.
         22    1    1    2    0    0  0.54477294542E+03  0.36930241712E+03 -0.18547285406E+04  0.19680395820E+04  0.00000000000E+00 0. -1.
<mgrwt>
<rscale>  0 0.21666303E+04</rscale>
<asrwt>0</asrwt>
<pdfrwt beam="1">  1        2 0.32854764E+00 0.21666303E+04</pdfrwt>
<pdfrwt beam="2">  1       -2 0.84544344E-01 0.21666303E+04</pdfrwt>
<totfact> 0.62739962E+00</totfact>
</mgrwt>
</event>
<event>
 6    1  0.3163079E-007  0.2275363E+04  0.7818608E-02  0.8487699E-01
          2   -1    0    0  501    0  0.00000000000E+00  0.00000000000E+00  0.17424213853E+04  0.17424213853E+04  0.00000000000E+00 0. -1.
         -2   -1    0    0    0  501 -0.00000000000E+00 -0.00000000000E+00 -0.74282793826E+03  0.74282793826E+03  0.00000000000E+00 0.  1.
         23    2    1    2    0    0 -0.38573316616E+03  0.43486334220E+03 -0.56634615652E+03  0.81490114314E+03  0.73618626928E+02 0.  0.
         11    1    3    3    0    0 -0.18362509259E+03  0.19295015949E+03 -0.30906682921E+03  0.40800765139E+03  0.00000000000E+00 0. -1.
        -11    1    3    3    0    0 -0.20210807357E+03  0.24191318271E+03 -0.25727932730E+03  0.40689349175E+03  0.00000000000E+00 0.  1.
         22    1    1    2    0    0  0.38573316616E+03 -0.43486334220E+03  0.15659396036E+04  0.16703481805E+04  0.00000000000E+00 0. -1.
<mgrwt>
<rscale>  0 0.22753631E+04</rscale>
<asrwt>0</asrwt>
<pdfrwt beam="1">  1        2 0.26806483E+00 0.22753631E+04</pdfrwt>
<pdfrwt beam="2">  1       -2 0.11428122E+00 0.22753631E+04</pdfrwt>
<totfact> 0.50525211E+00</totfact>
</mgrwt>
</event>
<event>
 6    1  0.2238133E-007  0.3352150E+04  0.7818608E-02  0.8149751E-01
          2   -1    0    0  501    0  0.00000000000E+00  0.00000000000E+00  0.25196119985E+04  0.25196119985E+04  0.00000000000E+00 0. -1.
         -2   -1    0    0    0  501 -0.00000000000E+00 -0.00000000000E+00 -0.11149442978E+04  0.11149442978E+04  0.00000000000E+00 0.  1.
         23    2    1    2    0    0  0.42341803696E+03 -0.99548679094E+03 -0.68340727318E+03  0.12828901037E+04  0.92112605190E+02 0.  0.
         11    1    3    3    0    0  0.53681399419E+02 -0.20405129064E+03 -0.10980426677E+03  0.23785625671E+03  0.00000000000E+00 0. -1.
        -11    1    3    3    0    0  0.36973663754E+03 -0.79143550030E+03 -0.57360300641E+03  0.10450338469E+04  0.00000000000E+00 0.  1.
         22    1    1    2    0    0 -0.42341803696E+03  0.99548679094E+03  0.20880749739E+04  0.23516661926E+04  0.00000000000E+00 0. -1.
<mgrwt>
<rscale>  0 0.33521498E+04</rscale>
<asrwt>0</asrwt>
<pdfrwt beam="1">  1        2 0.38763261E+00 0.33521498E+04</pdfrwt>
<pdfrwt beam="2">  1       -2 0.17152989E+00 0.33521498E+04</pdfrwt>
<totfact> 0.58612742E-01</totfact>
</mgrwt>
</event>
<event>
 6    1  0.2238133E-007  0.5577301E+04  0.7818608E-02  0.7745141E-01
         -2   -1    0    0    0  501 -0.00000000000E+00  0.00000000000E+00  0.19251034734E+04  0.19251034734E+04  0.00000000000E+00 0.  1.
          2   -1    0    0  501    0  0.00000000000E+00 -0.00000000000E+00 -0.40395606227E+04  0.40395606227E+04  0.00000000000E+00 0. -1.
         23    2    1    2    0    0  0.21083810530E+03  0.19579811445E+04 -0.31680157722E+04  0.37312522128E+04  0.88183181196E+02 0.  0.
         11    1    3    3    0    0  0.15714836820E+02  0.71990078126E+02 -0.14880754741E+03  0.16605184013E+03  0.00000000000E+00 0. -1.
        -11    1    3    3    0    0  0.19512326848E+03  0.18859910663E+04 -0.30192082248E+04  0.35652003726E+04  0.00000000000E+00 0.  1.
         22    1    1    2    0    0 -0.21083810530E+03 -0.19579811445E+04  0.10535586230E+04  0.22334118834E+04  0.00000000000E+00 0.  1.
<mgrwt>
<rscale>  0 0.55773012E+04</rscale>
<asrwt>0</asrwt>
<pdfrwt beam="1">  1        2 0.62147085E+00 0.55773012E+04</pdfrwt>
<pdfrwt beam="2">  1       -2 0.29616977E+00 0.55773012E+04</pdfrwt>
<totfact> 0.73705197E-03</totfact>
</mgrwt>
</event>
<event>
 6    1  0.2238133E-007  0.1237298E+04  0.7818608E-02  0.9080822E-01
          2   -1    0    0  501    0  0.00000000000E+00  0.00000000000E+00  0.25381213064E+03  0.25381213064E+03  0.00000000000E+00 0. -1.
         -2   -1    0    0    0  501 -0.00000000000E+00 -0.00000000000E+00 -0.15079132536E+04  0.15079132536E+04  0.00000000000E+00 0.  1.
         23    2    1    2    0    0  0.44637228137E+03  0.16459489122E+03 -0.72971369884E+02  0.48838050347E+03  0.82770789246E+02 0.  0.
         11    1    3    3    0    0  0.20153847126E+03  0.46114867403E+02 -0.63275135234E+02  0.21621304107E+03  0.00000000000E+00 0.  1.
        -11    1    3    3    0    0  0.24483381012E+03  0.11848002382E+03 -0.96962346498E+01  0.27216746239E+03  0.00000000000E+00 0. -1.
         22    1    1    2    0    0 -0.44637228137E+03 -0.16459489122E+03 -0.11811297531E+04  0.12733448808E+04  0.00000000000E+00 0.  1.
<mgrwt>
<rscale>  0 0.12372981E+04</rscale>
<asrwt>0</asrwt>
<pdfrwt beam="1">  1        2 0.39048019E-01 0.12372981E+04</pdfrwt>
<pdfrwt beam="2">  1       -2 0.23198666E+00 0.12372981E+04</pdfrwt>
<totfact> 0.10833261E+01</totfact>
</mgrwt>
</event>
<event>
 6    1  0.2238133E-007  0.4656437E+04  0.7818608E-02  0.7883807E-01
          2   -1    0    0  501    0  0.00000000000E+00  0.00000000000E+00  0.12543688746E+04  0.12543688746E+04  0.00000000000E+00 0. -1.
         -2   -1    0    0    0  501 -0.00000000000E+00 -0.00000000000E+00 -0.43213765831E+04  0.43213765831E+04  0.00000000000E+00 0.  1.
         23    2    1    2    0    0 -0.15232259101E+04 -0.65787167759E+03  0.42013486773E+03  0.17139873524E+04  0.90702919832E+02 0.  0.
         13    1    3    3    0    0 -0.46907196882E+03 -0.19524620763E+03  0.17145306911E+03  0.53623292368E+03  0.00000000000E+00 0. -1.
        -13    1    3    3    0    0 -0.10541539412E+04 -0.46262546996E+03  0.24868179862E+03  0.11777544287E+04  0.00000000000E+00 0.  1.
         22    1    1    2    0    0  0.15232259101E+04  0.65787167759E+03 -0.34871425762E+04  0.38617581054E+04  0.00000000000E+00 0.  1.
<mgrwt>
<rscale>  0 0.46564365E+04</rscale>
<asrwt>0</asrwt>
<pdfrwt beam="1">  1        2 0.19297982E+00 0.46564365E+04</pdfrwt>
<pdfrwt beam="2">  1       -2 0.66482717E+00 0.46564365E+04</pdfrwt>
<totfact> 0.39694540E-03</totfact>
</mgrwt>
</event>
<event>
 6    1  0.2238133E-007  0.8972664E+03  0.7818608E-02  0.9429005E-01
         -2   -1    0    0    0  501 -0.00000000000E+00  0.00000000000E+00  0.11217309829E+03  0.11217309829E+03  0.00000000000E+00 0.  1.
          2   -1    0    0  501    0  0.00000000000E+00 -0.00000000000E+00 -0.17942961492E+04  0.17942961492E+04  0.00000000000E+00 0. -1.
         23    2    1    2    0    0 -0.40010857257E+03  0.19218672420E+03 -0.84485958564E+03  0.95882336580E+03  0.92368395845E+02 0.  0.
         11    1    3    3    0    0 -0.33136413703E+03  0.12512052581E+03 -0.70761344396E+03  0.79131164743E+03  0.00000000000E+00 0. -1.
        -11    1    3    3    0    0 -0.68744435541E+02  0.67066198388E+02 -0.13724614168E+03  0.16751171836E+03  0.00000000000E+00 0.  1.
         22    1    1    2    0    0  0.40010857257E+03 -0.19218672420E+03 -0.83726346530E+03  0.94764588171E+03  0.00000000000E+00 0.  1.
<mgrwt>
<rscale>  0 0.89726642E+03</rscale>
<asrwt>0</asrwt>
<pdfrwt beam="1">  1        2 0.27604555E+00 0.89726642E+03</pdfrwt>
<pdfrwt beam="2">  1       -2 0.17257400E-01 0.89726642E+03</pdfrwt>
<totfact> 0.24169226E+02</totfact>
</mgrwt>
</event>
<event>
 6    1  0.2238133E-007  0.2470886E+04  0.7818608E-02  0.8413432E-01
          2   -1    0    0  501    0  0.00000000000E+00  0.00000000000E+00  0.18239031503E+04  0.18239031503E+04  0.00000000000E+00 0. -1.
         -2   -1    0    0    0  501 -0.00000000000E+00 -0.00000000000E+00 -0.83684218588E+03  0.83684218588E+03  0.00000000000E+00 0.  1.
         23    2    1    2    0    0 -0.76710078642E+02  0.10476199049E+04 -0.20264665413E+03  0.10736737818E+04  0.91202094160E+02 0.  0.
         11    1    3    3    0    0 -0.88344705690E+01  0.15109736835E+03 -0.62395663515E+02  0.16371219080E+03  0.00000000000E+00 0. -1.
        -11    1    3    3    0    0 -0.67875608073E+02  0.89652253651E+03 -0.14025099062E+03  0.90996159095E+03  0.00000000000E+00 0.  1.
         22    1    1    2    0    0  0.76710078642E+02 -0.10476199049E+04  0.11897076186E+04  0.15870715544E+04  0.00000000000E+00 0. -1.
<mgrwt>
<rscale>  0 0.24708858E+04</rscale>
<asrwt>0</asrwt>
<pdfrwt beam="1">  1        2 0.28060048E+00 0.24708858E+04</pdfrwt>
<pdfrwt beam="2">  1       -2 0.12874495E+00 0.24708858E+04</pdfrwt>
<totfact> 0.33306178E+00</totfact>
</mgrwt>
</event>
<event>
 6    1  0.2238133E-007  0.3561116E+04  0.7818608E-02  0.8099457E-01
         -2   -1    0    0    0  501 -0.00000000000E+00  0.00000000000E+00  0.14955947762E+04  0.14955947762E+04  0.00000000000E+00 0.  1.
          2   -1    0    0  501    0  0.00000000000E+00 -0.00000000000E+00 -0.21198166310E+04  0.21198166310E+04  0.00000000000E+00 0. -1.
         23    2    1    2    0    0 -0.13376421387E+03 -0.73476837320E+03  0.13274109067E+04  0.15257588374E+04  0.90237948574E+02 0.  0.
         11    1    3    3    0    0  0.31207474682E+01 -0.15890006673E+03  0.24394894143E+03  0.29115297748E+03  0.00000000000E+00 0.  1.
        -11    1    3    3    0    0 -0.13688496134E+03 -0.57586830647E+03  0.10834619653E+04  0.12346058599E+04  0.00000000000E+00 0. -1.
         22    1    1    2    0    0  0.13376421387E+03  0.73476837320E+03 -0.19516327615E+04  0.20896525699E+04  0.00000000000E+00 0. -1.
<mgrwt>
<rscale>  0 0.35611159E+04</rscale>
<asrwt>0</asrwt>
<pdfrwt beam="1">  1        2 0.32612563E+00 0.35611159E+04</pdfrwt>
<pdfrwt beam="2">  1       -2 0.23009151E+00 0.35611159E+04</pdfrwt>
<totfact> 0.39989825E-01</totfact>
</mgrwt>
</event>
<event>
 6    1  0.2238133E-007  0.2595215E+04  0.7818608E-02  0.8369828E-01
          2   -1    0    0  501    0  0.00000000000E+00  0.00000000000E+00  0.26246142851E+04  0.26246142851E+04  0.00000000000E+00 0. -1.
         -2   -1    0    0    0  501 -0.00000000000E+00 -0.00000000000E+00 -0.64153610085E+03  0.64153610085E+03  0.00000000000E+00 0.  1.
         23    2    1    2    0    0 -0.79098873990E+03 -0.58353884606E+03 -0.70200240003E+02  0.98972049268E+03  0.91857544191E+02 0.  0.
         13    1    3    3    0    0 -0.43085843167E+03 -0.37316559031E+03 -0.49368168124E+02  0.57212652618E+03  0.00000000000E+00 0. -1.
        -13    1    3    3    0    0 -0.36013030823E+03 -0.21037325575E+03 -0.20832071878E+02  0.41759396650E+03  0.00000000000E+00 0.  1.
         22    1    1    2    0    0  0.79098873990E+03  0.58353884606E+03  0.20532784243E+04  0.22764298933E+04  0.00000000000E+00 0. -1.
<mgrwt>
<rscale>  0 0.25952147E+04</rscale>
<asrwt>0</asrwt>
<pdfrwt beam="1">  1        2 0.40378681E+00 0.25952147E+04</pdfrwt>
<pdfrwt beam="2">  1       -2 0.98697863E-01 0.25952147E+04</pdfrwt>
<totfact> 0.22186870E+00</totfact>
</mgrwt>
</event>
<event>
 6    1  0.2238133E-007  0.4164052E+04  0.7818608E-02  0.7972246E-01
          2   -1    0    0  501    0  0.00000000000E+00  0.00000000000E+00  0.45580533977E+04  0.45580533977E+04  0.00000000000E+00 0. -1.
         -2   -1    0    0    0  501 -0.00000000000E+00 -0.00000000000E+00 -0.95102701913E+03  0.95102701913E+03  0.00000000000E+00 0.  1.
         23    2    1    2    0    0 -0.91354627253E+03  0.53135258168E+03 -0.56764283344E+03  0.12027170569E+04  0.86067267128E+02 0.  0.
         11    1    3    3    0    0 -0.73599312646E+03  0.38895317174E+03 -0.45711441049E+03  0.94969681282E+03  0.00000000000E+00 0. -1.
        -11    1    3    3    0    0 -0.17755314608E+03  0.14239940994E+03 -0.11052842295E+03  0.25302024407E+03  0.00000000000E+00 0.  1.
         22    1    1    2    0    0  0.91354627253E+03 -0.53135258168E+03  0.41746692120E+04  0.43063633599E+04  0.00000000000E+00 0. -1.
<mgrwt>
<rscale>  0 0.41640518E+04</rscale>
<asrwt>0</asrwt>
<pdfrwt beam="1">  1        2 0.70123897E+00 0.41640518E+04</pdfrwt>
<pdfrwt beam="2">  1       -2 0.14631185E+00 0.41640518E+04</pdfrwt>
<totfact> 0.26633567E-02</totfact>
</mgrwt>
</event>
<event>
 6    1  0.2238133E-007  0.3329074E+04  0.7818608E-02  0.8155537E-01
         -2   -1    0    0    0  501 -0.00000000000E+00  0.00000000000E+00  0.17839241441E+04  0.17839241441E+04  0.00000000000E+00 0.  1.
          2   -1    0    0  501    0  0.00000000000E+00 -0.00000000000E+00 -0.15531400970E+04  0.15531400970E+04  0.00000000000E+00 0. -1.
         23    2    1    2    0    0 -0.33894097605E+03 -0.62367554436E+03 -0.13923107752E+04  0.15655425868E+04  0.92423624996E+02 0.  0.
         13    1    3    3    0    0 -0.15371901394E+03 -0.37625630862E+03 -0.76827346578E+03  0.86916193155E+03  0.00000000000E+00 0.  1.
        -13    1    3    3    0    0 -0.18522196212E+03 -0.24741923574E+03 -0.62403730937E+03  0.69638065521E+03  0.00000000000E+00 0. -1.
         22    1    1    2    0    0  0.33894097605E+03  0.62367554436E+03  0.16230948222E+04  0.17715216544E+04  0.00000000000E+00 0.  1.
<mgrwt>
<rscale>  0 0.33290744E+04</rscale>
<asrwt>0</asrwt>
<pdfrwt beam="1">  1        2 0.23894463E+00 0.33290744E+04</pdfrwt>
<pdfrwt beam="2">  1       -2 0.27444987E+00 0.33290744E+04</pdfrwt>
<totfact> 0.44944106E-01</totfact>
</mgrwt>
</event>
<event>
 6    1  0.2238133E-007  0.4314123E+04  0.7818608E-02  0.7944012E-01
         -2   -1    0    0    0  501 -0.00000000000E+00  0.00000000000E+00  0.22726205986E+04  0.22726205986E+04  0.00000000000E+00 0.  1.
          2   -1    0    0  501    0  0.00000000000E+00 -0.00000000000E+00 -0.20473787402E+04  0.20473787402E+04  0.00000000000E+00 0. -1.
         23    2    1    2    0    0  0.15855498357E+04  0.45588434483E+02 -0.13498182025E+04  0.20846334219E+04  0.87411311756E+02 0.  0.
         13    1    3    3    0    0  0.50912796751E+03  0.20470560603E+02 -0.48732975981E+03  0.70506781656E+03  0.00000000000E+00 0. -1.
        -13    1    3    3    0    0  0.10764218682E+04  0.25117873880E+02 -0.86248844264E+03  0.13795656054E+04  0.00000000000E+00 0.  1.
         22    1    1    2    0    0 -0.15855498357E+04 -0.45588434483E+02  0.15750600609E+04  0.22353659169E+04  0.00000000000E+00 0.  1.
<mgrwt>
<rscale>  0 0.43141234E+04</rscale>
<asrwt>0</asrwt>
<pdfrwt beam="1">  1        2 0.31498134E+00 0.43141234E+04</pdfrwt>
<pdfrwt beam="2">  1       -2 0.34963394E+00 0.43141234E+04</pdfrwt>
<totfact> 0.75630588E-02</totfact>
</mgrwt>
</event>
<event>
 6    1  0.2238133E-007  0.5787895E+03  0.7818608E-02  0.9950415E-01
         -2   -1    0    0    0  501 -0.00000000000E+00  0.00000000000E+00  0.26848619693E+03  0.26848619693E+03  0.00000000000E+00 0.  1.
          2   -1    0    0  501    0  0.00000000000E+00 -0.00000000000E+00 -0.31193161950E+03  0.31193161950E+03  0.00000000000E+00 0. -1.
         23    2    1    2    0    0  0.19133849507E+03 -0.14742447478E+03 -0.16834116231E+03  0.30849256703E+03  0.92111462512E+02 0.  0.
         11    1    3    3    0    0  0.20159008469E+02 -0.63917384797E+02 -0.32054823373E+02  0.74292189382E+02  0.00000000000E+00 0. -1.
        -11    1    3    3    0    0  0.17117948660E+03 -0.83507089981E+02 -0.13628633894E+03  0.23420037764E+03  0.00000000000E+00 0.  1.
         22    1    1    2    0    0 -0.19133849507E+03  0.14742447478E+03  0.12489573974E+03  0.27192524940E+03  0.00000000000E+00 0.  1.
<mgrwt>
<rscale>  0 0.57878954E+03</rscale>
<asrwt>0</asrwt>
<pdfrwt beam="1">  1        2 0.47989480E-01 0.57878954E+03</pdfrwt>
<pdfrwt beam="2">  1       -2 0.41305569E-01 0.57878954E+03</pdfrwt>
<totfact> 0.58784260E+02</totfact>
</mgrwt>
</event>
<event>
 6    1  0.2238133E-007  0.1482597E+04  0.7818608E-02  0.8896109E-01
          1   -1    0    0  501    0  0.00000000000E+00  0.00000000000E+00  0.22008725110E+04  0.22008725110E+04  0.00000000000E+00 0. -1.
         -1   -1    0    0    0  501 -0.00000000000E+00 -0.00000000000E+00 -0.24968435420E+03  0.24968435420E+03  0.00000000000E+00 0.  1.
         23    2    1    2    0    0 -0.97219051887E+02 -0.73054934676E+03  0.89754165630E+03  0.11647400664E+04  0.88794737149E+02 0.  0.
         13    1    3    3    0    0 -0.16646171216E+02 -0.20482167347E+03  0.31312525680E+03  0.37453496417E+03  0.00000000000E+00 0.  1.
        -13    1    3    3    0    0 -0.80572880671E+02 -0.52572767329E+03  0.58441639950E+03  0.79020510222E+03  0.00000000000E+00 0. -1.
         22    1    1    2    0    0  0.97219051887E+02  0.73054934676E+03  0.10536465005E+04  0.12858167988E+04  0.00000000000E+00 0. -1.
<mgrwt>
<rscale>  0 0.14825970E+04</rscale>
<asrwt>0</asrwt>
<pdfrwt beam="1">  1        1 0.33859576E+00 0.14825970E+04</pdfrwt>
<pdfrwt beam="2">  1       -1 0.38412979E-01 0.14825970E+04</pdfrwt>
<totfact> 0.13840402E+01</totfact>
</mgrwt>
</event>
<event>
 6    1  0.2238133E-007  0.4457272E+04  0.7818608E-02  0.7918160E-01
          2   -1    0    0  501    0  0.00000000000E+00  0.00000000000E+00  0.26204446959E+04  0.26204446959E+04  0.00000000000E+00 0. -1.
         -2   -1    0    0    0  501 -0.00000000000E+00 -0.00000000000E+00 -0.18954105952E+04  0.18954105952E+04  0.00000000000E+00 0.  1.
         23    2    1    2    0    0 -0.12908387198E+04 -0.11314098178E+04 -0.10759041797E+04  0.20279381972E+04  0.92794134479E+02 0.  0.
         11    1    3    3    0    0 -0.66138724307E+03 -0.54212060051E+03 -0.49233209046E+03  0.98677186730E+03  0.00000000000E+00 0.  1.
        -11    1    3    3    0    0 -0.62945147678E+03 -0.58928921729E+03 -0.58357208928E+03  0.10411663299E+04  0.00000000000E+00 0. -1.
         22    1    1    2    0    0  0.12908387198E+04  0.11314098178E+04  0.18009382804E+04  0.24879170940E+04  0.00000000000E+00 0. -1.
<mgrwt>
<rscale>  0 0.44572721E+04</rscale>
<asrwt>0</asrwt>
<pdfrwt beam="1">  1        2 0.40314534E+00 0.44572721E+04</pdfrwt>
<pdfrwt beam="2">  1       -2 0.29160163E+00 0.44572721E+04</pdfrwt>
<totfact> 0.80510500E-02</totfact>
</mgrwt>
</event>
<event>
 6    1  0.2238133E-007  0.2249647E+04  0.7818608E-02  0.8498044E-01
          2   -1    0    0  501    0  0.00000000000E+00  0.00000000000E+00  0.32138980177E+04  0.32138980177E+04  0.00000000000E+00 0. -1.
         -2   -1    0    0    0  501 -0.00000000000E+00 -0.00000000000E+00 -0.39367381116E+03  0.39367381116E+03  0.00000000000E+00 0.  1.
         23    2    1    2    0    0  0.87368467350E+03 -0.68886810019E+03  0.11683962874E+04  0.16159896331E+04  0.91697555265E+02 0.  0.
         11    1    3    3    0    0  0.82474945985E+03 -0.67088371196E+03  0.11278003601E+04  0.15499129907E+04  0.00000000000E+00 0. -1.
        -11    1    3    3    0    0  0.48935213648E+02 -0.17984388222E+02  0.40595927313E+02  0.66076642385E+02  0.00000000000E+00 0.  1.
         22    1    1    2    0    0 -0.87368467350E+03  0.68886810019E+03  0.16518279192E+04  0.19915821958E+04  0.00000000000E+00 0.  1.
<mgrwt>
<rscale>  0 0.22496466E+04</rscale>
<asrwt>0</asrwt>
<pdfrwt beam="1">  1        2 0.49444583E+00 0.22496466E+04</pdfrwt>
<pdfrwt beam="2">  1       -2 0.60565204E-01 0.22496466E+04</pdfrwt>
<totfact> 0.29403215E+00</totfact>
</mgrwt>
</event>
<event>
 6    1  0.2238133E-007  0.1248211E+04  0.7818608E-02  0.9071673E-01
          2   -1    0    0  501    0  0.00000000000E+00  0.00000000000E+00  0.20463551311E+04  0.20463551311E+04  0.00000000000E+00 0. -1.
         -2   -1    0    0    0  501 -0.00000000000E+00 -0.00000000000E+00 -0.19034221927E+03  0.19034221927E+03  0.00000000000E+00 0.  1.
         23    2    1    2    0    0 -0.34593417983E+03 -0.51349657149E+03  0.85376925018E+03  0.10586304834E+04  0.91800774183E+02 0.  0.
         11    1    3    3    0    0 -0.29805512550E+03 -0.43281537669E+03  0.77366744675E+03  0.93526858511E+03  0.00000000000E+00 0.  1.
        -11    1    3    3    0    0 -0.47879054336E+02 -0.80681194805E+02  0.80101803424E+02  0.12336189830E+03  0.00000000000E+00 0. -1.
         22    1    1    2    0    0  0.34593417983E+03  0.51349657149E+03  0.10022436616E+04  0.11780668669E+04  0.00000000000E+00 0.  1.
<mgrwt>
<rscale>  0 0.12482112E+04</rscale>
<asrwt>0</asrwt>
<pdfrwt beam="1">  1        2 0.31482385E+00 0.12482112E+04</pdfrwt>
<pdfrwt beam="2">  1       -2 0.29283420E-01 0.12482112E+04</pdfrwt>
<totfact> 0.66519074E+01</totfact>
</mgrwt>
</event>
<event>
 6    1  0.2238133E-007  0.3484417E+04  0.7818608E-02  0.8117493E-01
         -2   -1    0    0    0  501 -0.00000000000E+00  0.00000000000E+00  0.16839101488E+04  0.16839101488E+04  0.00000000000E+00 0.  1.
          2   -1    0    0  501    0  0.00000000000E+00 -0.00000000000E+00 -0.18025249123E+04  0.18025249123E+04  0.00000000000E+00 0. -1.
         23    2    1    2    0    0 -0.11305189861E+04 -0.59471991774E+03 -0.12430555506E+04  0.17846324750E+04  0.89224494774E+02 0.  0.
         11    1    3    3    0    0 -0.63978948920E+03 -0.38580232394E+03 -0.71693110841E+03  0.10354536387E+04  0.00000000000E+00 0.  1.
        -11    1    3    3    0    0 -0.49072949686E+03 -0.20891759381E+03 -0.52612444220E+03  0.74917883631E+03  0.00000000000E+00 0. -1.
         22    1    1    2    0    0  0.11305189861E+04  0.59471991774E+03  0.11244407871E+04  0.17018025861E+04  0.00000000000E+00 0.  1.
<mgrwt>
<rscale>  0 0.34844167E+04</rscale>
<asrwt>0</asrwt>
<pdfrwt beam="1">  1        2 0.27731152E+00 0.34844167E+04</pdfrwt>
<pdfrwt beam="2">  1       -2 0.25906310E+00 0.34844167E+04</pdfrwt>
<totfact> 0.40008491E-01</totfact>
</mgrwt>
</event>
<event>
 6    1  0.2238133E-007  0.1722254E+04  0.7818608E-02  0.8748773E-01
          4   -1    0    0  501    0  0.00000000000E+00  0.00000000000E+00  0.11488511943E+04  0.11488511943E+04  0.00000000000E+00 0. -1.
         -4   -1    0    0    0  501 -0.00000000000E+00 -0.00000000000E+00 -0.64546161784E+03  0.64546161784E+03  0.00000000000E+00 0.  1.
         23    2    1    2    0    0 -0.26769873746E+03 -0.45024227162E+03  0.96179723760E+03  0.10982393240E+04  0.81822792479E+02 0.  0.
         13    1    3    3    0    0 -0.11285970849E+03 -0.17519925360E+03  0.30321980156E+03  0.36793252143E+03  0.00000000000E+00 0.  1.
        -13    1    3    3    0    0 -0.15483902897E+03 -0.27504301802E+03  0.65857743603E+03  0.73030680259E+03  0.00000000000E+00 0. -1.
         22    1    1    2    0    0  0.26769873746E+03  0.45024227162E+03 -0.45840766109E+03  0.69607348817E+03  0.00000000000E+00 0.  1.
<mgrwt>
<rscale>  0 0.17222536E+04</rscale>
<asrwt>0</asrwt>
<pdfrwt beam="1">  1        4 0.17674634E+00 0.17222536E+04</pdfrwt>
<pdfrwt beam="2">  1       -4 0.99301788E-01 0.17222536E+04</pdfrwt>
<totfact> 0.30224605E-01</totfact>
</mgrwt>
</event>
<event>
 6    1  0.2238133E-007  0.1983180E+04  0.7818608E-02  0.8614525E-01
          2   -1    0    0  501    0  0.00000000000E+00  0.00000000000E+00  0.73363944816E+03  0.73363944816E+03  0.00000000000E+00 0. -1.
         -2   -1    0    0    0  501 -0.00000000000E+00 -0.00000000000E+00 -0.13402368274E+04  0.13402368274E+04  0.00000000000E+00 0.  1.
         23    2    1    2    0    0 -0.19708524640E+03 -0.53623117922E+03  0.54078003708E+03  0.79213472306E+03  0.92994080790E+02 0.  0.
         11    1    3    3    0    0 -0.16380347530E+03 -0.31766810452E+03  0.34694143768E+03  0.49810938992E+03  0.00000000000E+00 0.  1.
        -11    1    3    3    0    0 -0.33281771092E+02 -0.21856307470E+03  0.19383859940E+03  0.29402533314E+03  0.00000000000E+00 0. -1.
         22    1    1    2    0    0  0.19708524640E+03  0.53623117922E+03 -0.11473774163E+04  0.12817415525E+04  0.00000000000E+00 0.  1.
<mgrwt>
<rscale>  0 0.19831799E+04</rscale>
<asrwt>0</asrwt>
<pdfrwt beam="1">  1        2 0.11286761E+00 0.19831799E+04</pdfrwt>
<pdfrwt beam="2">  1       -2 0.20619028E+00 0.19831799E+04</pdfrwt>
<totfact> 0.43476571E+00</totfact>
</mgrwt>
</event>
<event>
 6    1  0.2238133E-007  0.2416172E+04  0.7818608E-02  0.8433474E-01
          2   -1    0    0  501    0  0.00000000000E+00  0.00000000000E+00  0.23310312803E+04  0.23310312803E+04  0.00000000000E+00 0. -1.
         -2   -1    0    0    0  501 -0.00000000000E+00 -0.00000000000E+00 -0.62610565556E+03  0.62610565556E+03  0.00000000000E+00 0.  1.
         23    2    1    2    0    0 -0.11115328802E+04  0.46327178786E+03  0.76897601512E+03  0.14319721038E+04  0.95361946796E+02 0.  0.
         11    1    3    3    0    0 -0.65380279472E+03  0.29388468126E+03  0.40678751928E+03  0.82419802603E+03  0.00000000000E+00 0. -1.
        -11    1    3    3    0    0 -0.45773008552E+03  0.16938710659E+03  0.36218849584E+03  0.60777407776E+03  0.00000000000E+00 0.  1.
         22    1    1    2    0    0  0.11115328802E+04 -0.46327178786E+03  0.93594960962E+03  0.15251648321E+04  0.00000000000E+00 0. -1.
<mgrwt>
<rscale>  0 0.24161721E+04</rscale>
<asrwt>0</asrwt>
<pdfrwt beam="1">  1        2 0.35862019E+00 0.24161721E+04</pdfrwt>
<pdfrwt beam="2">  1       -2 0.96323948E-01 0.24161721E+04</pdfrwt>
<totfact> 0.35266880E+00</totfact>
</mgrwt>
</event>
<event>
 6    1  0.2238133E-007  0.1910319E+04  0.7818608E-02  0.8649737E-01
          1   -1    0    0  501    0  0.00000000000E+00  0.00000000000E+00  0.73094658095E+03  0.73094658095E+03  0.00000000000E+00 0. -1.
         -1   -1    0    0    0  501 -0.00000000000E+00 -0.00000000000E+00 -0.12481477031E+04  0.12481477031E+04  0.00000000000E+00 0.  1.
         23    2    1    2    0    0  0.50917674590E+03  0.22028388236E+03 -0.10619299874E+04  0.12015883458E+04  0.91286950064E+02 0.  0.
         13    1    3    3    0    0  0.41000253754E+03  0.19960931876E+03 -0.92458063909E+03  0.10309196473E+04  0.00000000000E+00 0.  1.
        -13    1    3    3    0    0  0.99174208359E+02  0.20674563600E+02 -0.13734934832E+03  0.17066869856E+03  0.00000000000E+00 0. -1.
         22    1    1    2    0    0 -0.50917674590E+03 -0.22028388236E+03  0.54472886525E+03  0.77750593825E+03  0.00000000000E+00 0. -1.
<mgrwt>
<rscale>  0 0.19103186E+04</rscale>
<asrwt>0</asrwt>
<pdfrwt beam="1">  1        1 0.11245332E+00 0.19103186E+04</pdfrwt>
<pdfrwt beam="2">  1       -1 0.19202272E+00 0.19103186E+04</pdfrwt>
<totfact> 0.40750623E+00</totfact>
</mgrwt>
</event>
<event>
 6    1  0.2238133E-007  0.3570705E+04  0.7818608E-02  0.8097235E-01
         -2   -1    0    0    0  501 -0.00000000000E+00  0.00000000000E+00  0.90083347938E+03  0.90083347938E+03  0.00000000000E+00 0.  1.
          2   -1    0    0  501    0  0.00000000000E+00 -0.00000000000E+00 -0.35383717007E+04  0.35383717007E+04  0.00000000000E+00 0. -1.
         23    2    1    2    0    0  0.11880048796E+04  0.12263273538E+04 -0.19633317300E+04  0.26035067393E+04  0.91331741630E+02 0.  0.
         13    1    3    3    0    0  0.10333770858E+04  0.11074715257E+04 -0.17302266086E+04  0.22995750692E+04  0.00000000000E+00 0. -1.
        -13    1    3    3    0    0  0.15462779382E+03  0.11885582808E+03 -0.23310512144E+03  0.30393167017E+03  0.00000000000E+00 0.  1.
         22    1    1    2    0    0 -0.11880048796E+04 -0.12263273538E+04 -0.67420649130E+03  0.18356984408E+04  0.00000000000E+00 0.  1.
<mgrwt>
<rscale>  0 0.35707051E+04</rscale>
<asrwt>0</asrwt>
<pdfrwt beam="1">  1        2 0.54436487E+00 0.35707051E+04</pdfrwt>
<pdfrwt beam="2">  1       -2 0.13858977E+00 0.35707051E+04</pdfrwt>
<totfact> 0.22973562E-01</totfact>
</mgrwt>
</event>
<event>
 6    1  0.2238133E-007  0.3873224E+04  0.7818608E-02  0.8030621E-01
          2   -1    0    0  501    0  0.00000000000E+00  0.00000000000E+00  0.32558284932E+04  0.32558284932E+04  0.00000000000E+00 0. -1.
         -2   -1    0    0    0  501 -0.00000000000E+00 -0.00000000000E+00 -0.11519235887E+04  0.11519235887E+04  0.00000000000E+00 0.  1.
         23    2    1    2    0    0 -0.70087563435E+03  0.76471327009E+03  0.29121588242E+04  0.30927283411E+04  0.91030403291E+02 0.  0.
         11    1    3    3    0    0 -0.33405441979E+03  0.36126898487E+03  0.12470764745E+04  0.13406369262E+04  0.00000000000E+00 0. -1.
        -11    1    3    3    0    0 -0.36682121456E+03  0.40344428522E+03  0.16650823497E+04  0.17520914149E+04  0.00000000000E+00 0.  1.
         22    1    1    2    0    0  0.70087563435E+03 -0.76471327009E+03 -0.80825391968E+03  0.13150237408E+04  0.00000000000E+00 0.  1.
<mgrwt>
<rscale>  0 0.38732238E+04</rscale>
<asrwt>0</asrwt>
<pdfrwt beam="1">  1        2 0.50089669E+00 0.38732238E+04</pdfrwt>
<pdfrwt beam="2">  1       -2 0.17721901E+00 0.38732238E+04</pdfrwt>
<totfact> 0.17985452E-01</totfact>
</mgrwt>
</event>
<event>
 6    1  0.2238133E-007  0.1499142E+04  0.7818608E-02  0.8885024E-01
          2   -1    0    0  501    0  0.00000000000E+00  0.00000000000E+00  0.11592867811E+04  0.11592867811E+04  0.00000000000E+00 0. -1.
         -2   -1    0    0    0  501 -0.00000000000E+00 -0.00000000000E+00 -0.48465709153E+03  0.48465709153E+03  0.00000000000E+00 0.  1.
         23    2    1    2    0    0  0.55649484502E+02  0.34068315731E+03  0.10643054002E+04  0.11233585884E+04  0.10013318273E+03 0.  0.
         13    1    3    3    0    0 -0.83151623200E+01  0.38461882397E+02  0.53572576425E+02  0.66471642576E+02  0.00000000000E+00 0. -1.
        -13    1    3    3    0    0  0.63964646822E+02  0.30222127492E+03  0.10107328238E+04  0.10568869458E+04  0.00000000000E+00 0.  1.
         22    1    1    2    0    0 -0.55649484502E+02 -0.34068315731E+03 -0.38967571061E+03  0.52058528431E+03  0.00000000000E+00 0.  1.
<mgrwt>
<rscale>  0 0.14991418E+04</rscale>
<asrwt>0</asrwt>
<pdfrwt beam="1">  1        2 0.17835181E+00 0.14991418E+04</pdfrwt>
<pdfrwt beam="2">  1       -2 0.74562630E-01 0.14991418E+04</pdfrwt>
<totfact> 0.31329368E+01</totfact>
</mgrwt>
</event>
<event>
 6    1  0.2238133E-007  0.6429033E+03  0.7818608E-02  0.9820187E-01
         -2   -1    0    0    0  501 -0.00000000000E+00  0.00000000000E+00  0.13717758574E+03  0.13717758574E+03  0.00000000000E+00 0.  1.
          2   -1    0    0  501    0  0.00000000000E+00 -0.00000000000E+00 -0.75326571387E+03  0.75326571387E+03  0.00000000000E+00 0. -1.
         23    2    1    2    0    0 -0.25104435472E+03  0.15054228681E+03 -0.47561625605E+03  0.56576100104E+03  0.90489994648E+02 0.  0.
         13    1    3    3    0    0 -0.21344628382E+03  0.96429835744E+02 -0.31816858867E+03  0.39508135885E+03  0.00000000000E+00 0. -1.
        -13    1    3    3    0    0 -0.37598070905E+02  0.54112451071E+02 -0.15744766738E+03  0.17067964220E+03  0.00000000000E+00 0.  1.
         22    1    1    2    0    0  0.25104435472E+03 -0.15054228681E+03 -0.14047187209E+03  0.32468229857E+03  0.00000000000E+00 0.  1.
<mgrwt>
<rscale>  0 0.64290333E+03</rscale>
<asrwt>0</asrwt>
<pdfrwt beam="1">  1        2 0.11588703E+00 0.64290333E+03</pdfrwt>
<pdfrwt beam="2">  1       -2 0.21104244E-01 0.64290333E+03</pdfrwt>
<totfact> 0.72792374E+02</totfact>
</mgrwt>
</event>
<event>
 6    1  0.2981156E-007  0.2770759E+04  0.7818608E-02  0.8312404E-01
         -1   -1    0    0    0  501 -0.00000000000E+00  0.00000000000E+00  0.73623653943E+03  0.73623653943E+03  0.00000000000E+00 0.  1.
          1   -1    0    0  501    0  0.00000000000E+00 -0.00000000000E+00 -0.26068745223E+04  0.26068745223E+04  0.00000000000E+00 0. -1.
         23    2    1    2    0    0  0.40006334423E+03 -0.40148686665E+03  0.58705698671E+03  0.82090826518E+03  0.89510282651E+02 0.  0.
         13    1    3    3    0    0  0.17479533744E+03 -0.17280772235E+03  0.31895078012E+03  0.40267296784E+03  0.00000000000E+00 0. -1.
        -13    1    3    3    0    0  0.22526800679E+03 -0.22867914431E+03  0.26810620659E+03  0.41823529733E+03  0.00000000000E+00 0.  1.
         22    1    1    2    0    0 -0.40006334423E+03  0.40148686665E+03 -0.24576949696E+04  0.25222027966E+04  0.00000000000E+00 0. -1.
<mgrwt>
<rscale>  0 0.27707589E+04</rscale>
<asrwt>0</asrwt>
<pdfrwt beam="1">  1        1 0.40105762E+00 0.27707589E+04</pdfrwt>
<pdfrwt beam="2">  1       -1 0.11326716E+00 0.27707589E+04</pdfrwt>
<totfact> 0.70464238E-01</totfact>
</mgrwt>
</event>
<event>
 6    1  0.2238133E-007  0.1863224E+04  0.7818608E-02  0.8673382E-01
          2   -1    0    0  501    0  0.00000000000E+00  0.00000000000E+00  0.27742524676E+04  0.27742524676E+04  0.00000000000E+00 0. -1.
         -2   -1    0    0    0  501 -0.00000000000E+00 -0.00000000000E+00 -0.31284124226E+03  0.31284124226E+03  0.00000000000E+00 0.  1.
         23    2    1    2    0    0 -0.12813098349E+03  0.91513802681E+03  0.13983790133E+04  0.16785722720E+04  0.90806665248E+02 0.  0.
         11    1    3    3    0    0 -0.10407712766E+03  0.67043595258E+03  0.10937567319E+04  0.12870975890E+04  0.00000000000E+00 0.  1.
        -11    1    3    3    0    0 -0.24053855826E+02  0.24470207424E+03  0.30462228143E+03  0.39147468303E+03  0.00000000000E+00 0. -1.
         22    1    1    2    0    0  0.12813098349E+03 -0.91513802681E+03  0.10630322120E+04  0.14085214378E+04  0.00000000000E+00 0.  1.
<mgrwt>
<rscale>  0 0.18632236E+04</rscale>
<asrwt>0</asrwt>
<pdfrwt beam="1">  1        2 0.42680806E+00 0.18632236E+04</pdfrwt>
<pdfrwt beam="2">  1       -2 0.48129424E-01 0.18632236E+04</pdfrwt>
<totfact> 0.92262868E+00</totfact>
</mgrwt>
</event>
<event>
 6    1  0.2238133E-007  0.3404936E+04  0.7818608E-02  0.8136696E-01
          1   -1    0    0  501    0  0.00000000000E+00  0.00000000000E+00  0.31718851577E+04  0.31718851577E+04  0.00000000000E+00 0. -1.
         -1   -1    0    0    0  501 -0.00000000000E+00 -0.00000000000E+00 -0.91377761017E+03  0.91377761017E+03  0.00000000000E+00 0.  1.
         23    2    1    2    0    0 -0.62026033532E+02 -0.69348497756E+03  0.29918080222E+04  0.30741861100E+04  0.12221438055E+03 0.  0.
         11    1    3    3    0    0 -0.13449269344E+01 -0.17637852125E+03  0.10009760066E+04  0.10163976374E+04  0.00000000000E+00 0.  1.
        -11    1    3    3    0    0 -0.60681106598E+02 -0.51710645631E+03  0.19908320156E+04  0.20577884726E+04  0.00000000000E+00 0. -1.
         22    1    1    2    0    0  0.62026033532E+02  0.69348497756E+03 -0.73370047460E+03  0.10114766578E+04  0.00000000000E+00 0.  1.
<mgrwt>
<rscale>  0 0.34049362E+04</rscale>
<asrwt>0</asrwt>
<pdfrwt beam="1">  1        1 0.48798233E+00 0.34049362E+04</pdfrwt>
<pdfrwt beam="2">  1       -1 0.14058117E+00 0.34049362E+04</pdfrwt>
<totfact> 0.15198873E-01</totfact>
</mgrwt>
</event>
<event>
 6    1  0.2238133E-007  0.2175012E+04  0.7818608E-02  0.8528901E-01
         -2   -1    0    0    0  501 -0.00000000000E+00  0.00000000000E+00  0.46806265434E+03  0.46806265434E+03  0.00000000000E+00 0.  1.
          2   -1    0    0  501    0  0.00000000000E+00 -0.00000000000E+00 -0.25267337547E+04  0.25267337547E+04  0.00000000000E+00 0. -1.
         23    2    1    2    0    0  0.69004916415E+03 -0.77462193278E+03 -0.59073461493E+03  0.11972857657E+04  0.91207629923E+02 0.  0.
         11    1    3    3    0    0  0.19692648440E+03 -0.27432980839E+03 -0.21942604186E+03  0.40272158109E+03  0.00000000000E+00 0.  1.
        -11    1    3    3    0    0  0.49312267976E+03 -0.50029212439E+03 -0.37130857307E+03  0.79456418460E+03  0.00000000000E+00 0. -1.
         22    1    1    2    0    0 -0.69004916415E+03  0.77462193278E+03 -0.14679364854E+04  0.17975106433E+04  0.00000000000E+00 0. -1.
<mgrwt>
<rscale>  0 0.21750124E+04</rscale>
<asrwt>0</asrwt>
<pdfrwt beam="1">  1        2 0.38872827E+00 0.21750124E+04</pdfrwt>
<pdfrwt beam="2">  1       -2 0.72009640E-01 0.21750124E+04</pdfrwt>
<totfact> 0.53755221E+00</totfact>
</mgrwt>
</event>
<event>
 6    1  0.2238133E-007  0.5728603E+03  0.7818608E-02  0.9963369E-01
          2   -1    0    0  501    0  0.00000000000E+00  0.00000000000E+00  0.16470545988E+04  0.16470545988E+04  0.00000000000E+00 0. -1.
         -2   -1    0    0    0  501 -0.00000000000E+00 -0.00000000000E+00 -0.49811487493E+02  0.49811487493E+02  0.00000000000E+00 0.  1.
         23    2    1    2    0    0 -0.39410750236E+02  0.26943140599E+03  0.64006741792E+03  0.70171192849E+03  0.92557232792E+02 0.  0.
         13    1    3    3    0    0 -0.68098095825E+02  0.22113184678E+03  0.51016809480E+03  0.56018579888E+03  0.00000000000E+00 0. -1.
        -13    1    3    3    0    0  0.28687345589E+02  0.48299559210E+02  0.12989932312E+03  0.14152612962E+03  0.00000000000E+00 0.  1.
         22    1    1    2    0    0  0.39410750236E+02 -0.26943140599E+03  0.95717569336E+03  0.99515415777E+03  0.00000000000E+00 0. -1.
<mgrwt>
<rscale>  0 0.57286033E+03</rscale>
<asrwt>0</asrwt>
<pdfrwt beam="1">  1        2 0.25339297E+00 0.57286033E+03</pdfrwt>
<pdfrwt beam="2">  1       -2 0.76633070E-02 0.57286033E+03</pdfrwt>
<totfact> 0.11321336E+03</totfact>
</mgrwt>
</event>
<event>
 6    1  0.2238133E-007  0.2099673E+04  0.7818608E-02  0.8561387E-01
          2   -1    0    0  501    0  0.00000000000E+00  0.00000000000E+00  0.15833745903E+04  0.15833745903E+04  0.00000000000E+00 0. -1.
         -2   -1    0    0    0  501 -0.00000000000E+00 -0.00000000000E+00 -0.69608074035E+03  0.69608074035E+03  0.00000000000E+00 0.  1.
         23    2    1    2    0    0  0.76544505079E+02 -0.12703846638E+03  0.15702835147E+04  0.15805470997E+04  0.10169063119E+03 0.  0.
         11    1    3    3    0    0  0.36225191838E+02 -0.67532871484E+02  0.12477541277E+04  0.12501053221E+04  0.00000000000E+00 0. -1.
        -11    1    3    3    0    0  0.40319313240E+02 -0.59505594896E+02  0.32252938704E+03  0.33044177754E+03  0.00000000000E+00 0.  1.
         22    1    1    2    0    0 -0.76544505079E+02  0.12703846638E+03 -0.68298966475E+03  0.69890823100E+03  0.00000000000E+00 0.  1.
<mgrwt>
<rscale>  0 0.20996729E+04</rscale>
<asrwt>0</asrwt>
<pdfrwt beam="1">  1        2 0.24359609E+00 0.20996729E+04</pdfrwt>
<pdfrwt beam="2">  1       -2 0.10708935E+00 0.20996729E+04</pdfrwt>
<totfact> 0.73617353E+00</totfact>
</mgrwt>
</event>
<event>
 6    1  0.2238133E-007  0.3055677E+04  0.7818608E-02  0.8228008E-01
         -2   -1    0    0    0  501 -0.00000000000E+00  0.00000000000E+00  0.11412760278E+04  0.11412760278E+04  0.00000000000E+00 0.  1.
          2   -1    0    0  501    0  0.00000000000E+00 -0.00000000000E+00 -0.20453337503E+04  0.20453337503E+04  0.00000000000E+00 0. -1.
         23    2    1    2    0    0 -0.65176079639E+03  0.64868072396E+03 -0.17231064713E+04  0.19551798490E+04  0.89741368068E+02 0.  0.
         13    1    3    3    0    0 -0.43374667195E+03  0.38789588588E+03 -0.11505479709E+04  0.12893254155E+04  0.00000000000E+00 0.  1.
        -13    1    3    3    0    0 -0.21801412445E+03  0.26078483808E+03 -0.57255850036E+03  0.66585443346E+03  0.00000000000E+00 0. -1.
         22    1    1    2    0    0  0.65176079639E+03 -0.64868072396E+03  0.81904874879E+03  0.12314299291E+04  0.00000000000E+00 0.  1.
<mgrwt>
<rscale>  0 0.30556769E+04</rscale>
<asrwt>0</asrwt>
<pdfrwt beam="1">  1        2 0.31466673E+00 0.30556769E+04</pdfrwt>
<pdfrwt beam="2">  1       -2 0.17558093E+00 0.30556769E+04</pdfrwt>
<totfact> 0.10455950E+00</totfact>
</mgrwt>
</event>
<event>
 6    1  0.2238133E-007  0.2451716E+04  0.7818608E-02  0.8420392E-01
          2   -1    0    0  501    0  0.00000000000E+00  0.00000000000E+00  0.16546088134E+04  0.16546088134E+04  0.00000000000E+00 0. -1.
         -2   -1    0    0    0  501 -0.00000000000E+00 -0.00000000000E+00 -0.90820705756E+03  0.90820705756E+03  0.00000000000E+00 0.  1.
         23    2    1    2    0    0  0.10041809423E+04 -0.61850252595E+03  0.30598310153E+02  0.11832147285E+04  0.90200319062E+02 0.  0.
         13    1    3    3    0    0  0.60920196979E+03 -0.41883468540E+03  0.42091156358E+02  0.74048713637E+03  0.00000000000E+00 0. -1.
        -13    1    3    3    0    0  0.39497897252E+03 -0.19966784055E+03 -0.11492846205E+02  0.44272759209E+03  0.00000000000E+00 0.  1.
         22    1    1    2    0    0 -0.10041809423E+04  0.61850252595E+03  0.71580344566E+03  0.13796011425E+04  0.00000000000E+00 0.  1.
<mgrwt>
<rscale>  0 0.24517156E+04</rscale>
<asrwt>0</asrwt>
<pdfrwt beam="1">  1        2 0.25455520E+00 0.24517156E+04</pdfrwt>
<pdfrwt beam="2">  1       -2 0.13972416E+00 0.24517156E+04</pdfrwt>
<totfact> 0.33608031E+00</totfact>
</mgrwt>
</event>
<event>
 6    1  0.2238133E-007  0.3237688E+04  0.7818608E-02  0.8178934E-01
         -2   -1    0    0    0  501 -0.00000000000E+00  0.00000000000E+00  0.85088746589E+03  0.85088746589E+03  0.00000000000E+00 0.  1.
          2   -1    0    0  501    0  0.00000000000E+00 -0.00000000000E+00 -0.30799085510E+04  0.30799085510E+04  0.00000000000E+00 0. -1.
         23    2    1    2    0    0 -0.14606233556E+04  0.49467355654E+03 -0.17082093125E+04  0.23031082652E+04  0.90587587864E+02 0.  0.
         11    1    3    3    0    0 -0.46637291698E+03  0.17492907783E+03 -0.49406714956E+03  0.70157410745E+03  0.00000000000E+00 0.  1.
        -11    1    3    3    0    0 -0.99425043866E+03  0.31974447871E+03 -0.12141421630E+04  0.16015341577E+04  0.00000000000E+00 0. -1.
         22    1    1    2    0    0  0.14606233556E+04 -0.49467355654E+03 -0.52081177254E+03  0.16276877517E+04  0.00000000000E+00 0. -1.
<mgrwt>
<rscale>  0 0.32376878E+04</rscale>
<asrwt>0</asrwt>
<pdfrwt beam="1">  1        2 0.47383208E+00 0.32376878E+04</pdfrwt>
<pdfrwt beam="2">  1       -2 0.13090577E+00 0.32376878E+04</pdfrwt>
<totfact> 0.55475098E-01</totfact>
</mgrwt>
</event>
<event>
 6    1  0.2238133E-007  0.4999413E+04  0.7818608E-02  0.7828598E-01
          2   -1    0    0  501    0  0.00000000000E+00  0.00000000000E+00  0.29131261795E+04  0.29131261795E+04  0.00000000000E+00 0. -1.
         -2   -1    0    0    0  501 -0.00000000000E+00 -0.00000000000E+00 -0.21449575023E+04  0.21449575023E+04  0.00000000000E+00 0.  1.
         23    2    1    2    0    0  0.23925860249E+04  0.48147176354E+03  0.92696664149E+03  0.26123732044E+04  0.94570920328E+02 0.  0.
         11    1    3    3    0    0  0.10824269378E+04  0.17495067473E+03  0.43882039896E+03  0.11810246216E+04  0.00000000000E+00 0.  1.
        -11    1    3    3    0    0  0.13101590871E+04  0.30652108880E+03  0.48814624253E+03  0.14313485828E+04  0.00000000000E+00 0. -1.
         22    1    1    2    0    0 -0.23925860249E+04 -0.48147176354E+03 -0.15879796425E+03  0.24457104774E+04  0.00000000000E+00 0. -1.
<mgrwt>
<rscale>  0 0.49994127E+04</rscale>
<asrwt>0</asrwt>
<pdfrwt beam="1">  1        2 0.44817326E+00 0.49994127E+04</pdfrwt>
<pdfrwt beam="2">  1       -2 0.32999346E+00 0.49994127E+04</pdfrwt>
<totfact> 0.29796553E-02</totfact>
</mgrwt>
</event>
<event>
 6    1  0.2238133E-007  0.1566237E+04  0.7818608E-02  0.8841563E-01
         -2   -1    0    0    0  501 -0.00000000000E+00  0.00000000000E+00  0.23177660113E+03  0.23177660113E+03  0.00000000000E+00 0.  1.
          2   -1    0    0  501    0  0.00000000000E+00 -0.00000000000E+00 -0.26459729955E+04  0.26459729955E+04  0.00000000000E+00 0. -1.
         23    2    1    2    0    0  0.82595367512E+02 -0.94227549976E+02 -0.26266284211E+04  0.26311158766E+04  0.88842938214E+02 0.  0.
         11    1    3    3    0    0 -0.65004272332E+00 -0.58198862017E+02 -0.72848830283E+03  0.73080964516E+03  0.00000000000E+00 0.  1.
        -11    1    3    3    0    0  0.83245410235E+02 -0.36028687959E+02 -0.18981401183E+04  0.19003062314E+04  0.00000000000E+00 0. -1.
         22    1    1    2    0    0 -0.82595367512E+02  0.94227549976E+02  0.21243202669E+03  0.24663372006E+03  0.00000000000E+00 0.  1.
<mgrwt>
<rscale>  0 0.15662371E+04</rscale>
<asrwt>0</asrwt>
<pdfrwt beam="1">  1        2 0.40707274E+00 0.15662371E+04</pdfrwt>
<pdfrwt beam="2">  1       -2 0.35657941E-01 0.15662371E+04</pdfrwt>
<totfact> 0.20385923E+01</totfact>
</mgrwt>
</event>
<event>
 6    1  0.2238133E-007  0.3750756E+04  0.7818608E-02  0.8056806E-01
         -2   -1    0    0    0  501 -0.00000000000E+00  0.00000000000E+00  0.22288061112E+04  0.22288061112E+04  0.00000000000E+00 0.  1.
          2   -1    0    0  501    0  0.00000000000E+00 -0.00000000000E+00 -0.15779941400E+04  0.15779941400E+04  0.00000000000E+00 0. -1.
         23    2    1    2    0    0 -0.10411338448E+04  0.55832916592E+03 -0.11511974261E+04  0.16520545566E+04  0.91310480562E+02 0.  0.
         13    1    3    3    0    0 -0.77325034662E+03  0.41183428832E+03 -0.90771040755E+03  0.12615315151E+04  0.00000000000E+00 0.  1.
        -13    1    3    3    0    0 -0.26788349818E+03  0.14649487760E+03 -0.24348701855E+03  0.39052304152E+03  0.00000000000E+00 0. -1.
         22    1    1    2    0    0  0.10411338448E+04 -0.55832916592E+03  0.18020093973E+04  0.21547456945E+04  0.00000000000E+00 0.  1.
<mgrwt>
<rscale>  0 0.37507562E+04</rscale>
<asrwt>0</asrwt>
<pdfrwt beam="1">  1        2 0.24276833E+00 0.37507562E+04</pdfrwt>
<pdfrwt beam="2">  1       -2 0.34289325E+00 0.37507562E+04</pdfrwt>
<totfact> 0.15923625E-01</totfact>
</mgrwt>
</event>
<event>
 6    1  0.2238133E-007  0.3821077E+04  0.7818608E-02  0.8041647E-01
         -1   -1    0    0    0  501 -0.00000000000E+00  0.00000000000E+00  0.17622357176E+04  0.17622357176E+04  0.00000000000E+00 0.  1.
          1   -1    0    0  501    0  0.00000000000E+00 -0.00000000000E+00 -0.20713218694E+04  0.20713218694E+04  0.00000000000E+00 0. -1.
         23    2    1    2    0    0  0.46743244318E+03  0.71979670585E+03  0.15566022312E+04  0.17799282316E+04  0.92377576360E+02 0.  0.
         11    1    3    3    0    0  0.22001296580E+03  0.40055869619E+03  0.89106312959E+03  0.10014222262E+04  0.00000000000E+00 0.  1.
        -11    1    3    3    0    0  0.24741947738E+03  0.31923800966E+03  0.66553910162E+03  0.77850600537E+03  0.00000000000E+00 0. -1.
         22    1    1    2    0    0 -0.46743244318E+03 -0.71979670585E+03 -0.18656883831E+04  0.20536293554E+04  0.00000000000E+00 0. -1.
<mgrwt>
<rscale>  0 0.38210770E+04</rscale>
<asrwt>0</asrwt>
<pdfrwt beam="1">  1        1 0.31866490E+00 0.38210770E+04</pdfrwt>
<pdfrwt beam="2">  1       -1 0.27111319E+00 0.38210770E+04</pdfrwt>
<totfact> 0.10759131E-01</totfact>
</mgrwt>
</event>
<event>
 6    1  0.2238133E-007  0.1060377E+04  0.7818608E-02  0.9244695E-01
          2   -1    0    0  501    0  0.00000000000E+00  0.00000000000E+00  0.10252032686E+04  0.10252032686E+04  0.00000000000E+00 0. -1.
         -2   -1    0    0    0  501 -0.00000000000E+00 -0.00000000000E+00 -0.27418960634E+03  0.27418960634E+03  0.00000000000E+00 0.  1.
         23    2    1    2    0    0  0.34547289267E+03 -0.39727992610E+03  0.35808922001E+03  0.64245111452E+03  0.85631103090E+02 0.  0.
         11    1    3    3    0    0  0.19122338269E+03 -0.26680825352E+03  0.18749670658E+03  0.37803179920E+03  0.00000000000E+00 0. -1.
        -11    1    3    3    0    0  0.15424950998E+03 -0.13047167258E+03  0.17059251344E+03  0.26441931532E+03  0.00000000000E+00 0.  1.
         22    1    1    2    0    0 -0.34547289267E+03  0.39727992610E+03  0.39292444223E+03  0.65694176039E+03  0.00000000000E+00 0. -1.
<mgrwt>
<rscale>  0 0.10603774E+04</rscale>
<asrwt>0</asrwt>
<pdfrwt beam="1">  1        2 0.15772358E+00 0.10603774E+04</pdfrwt>
<pdfrwt beam="2">  1       -2 0.42183017E-01 0.10603774E+04</pdfrwt>
<totfact> 0.12855826E+02</totfact>
</mgrwt>
</event>
<event>
 6    1  0.2238133E-007  0.1775114E+04  0.7818608E-02  0.8719646E-01
          2   -1    0    0  501    0  0.00000000000E+00  0.00000000000E+00  0.31757511338E+04  0.31757511338E+04  0.00000000000E+00 0. -1.
         -2   -1    0    0    0  501 -0.00000000000E+00 -0.00000000000E+00 -0.24805402725E+03  0.24805402725E+03  0.00000000000E+00 0.  1.
         23    2    1    2    0    0  0.62469777147E+03 -0.57002837001E+03  0.96373895703E+03  0.12855088155E+04  0.92522911563E+02 0.  0.
         13    1    3    3    0    0  0.34969345932E+03 -0.30095555703E+03  0.45842312691E+03  0.65039336257E+03  0.00000000000E+00 0. -1.
        -13    1    3    3    0    0  0.27500431215E+03 -0.26907281298E+03  0.50531583012E+03  0.63511545293E+03  0.00000000000E+00 0.  1.
         22    1    1    2    0    0 -0.62469777147E+03  0.57002837001E+03  0.19639581495E+04  0.21382963455E+04  0.00000000000E+00 0. -1.
<mgrwt>
<rscale>  0 0.17751145E+04</rscale>
<asrwt>0</asrwt>
<pdfrwt beam="1">  1        2 0.48857707E+00 0.17751145E+04</pdfrwt>
<pdfrwt beam="2">  1       -2 0.38162160E-01 0.17751145E+04</pdfrwt>
<totfact> 0.82924709E+00</totfact>
</mgrwt>
</event>
<event>
 6    1  0.2238133E-007  0.1318732E+04  0.7818608E-02  0.9014841E-01
          2   -1    0    0  501    0  0.00000000000E+00  0.00000000000E+00  0.60536963732E+03  0.60536963732E+03  0.00000000000E+00 0. -1.
         -2   -1    0    0    0  501 -0.00000000000E+00 -0.00000000000E+00 -0.71817837238E+03  0.71817837238E+03  0.00000000000E+00 0.  1.
         23    2    1    2    0    0  0.10125154995E+03  0.42689261492E+03 -0.54644620023E+03  0.70667635996E+03  0.91098007336E+02 0.  0.
         11    1    3    3    0    0 -0.58882277358E+01  0.95345395737E+02 -0.80892404078E+02  0.12517586329E+03  0.00000000000E+00 0.  1.
        -11    1    3    3    0    0  0.10713977769E+03  0.33154721919E+03 -0.46555379615E+03  0.58150049667E+03  0.00000000000E+00 0. -1.
         22    1    1    2    0    0 -0.10125154995E+03 -0.42689261492E+03  0.43363746517E+03  0.61687164973E+03  0.00000000000E+00 0. -1.
<mgrwt>
<rscale>  0 0.13187318E+04</rscale>
<asrwt>0</asrwt>
<pdfrwt beam="1">  1        2 0.93133791E-01 0.13187318E+04</pdfrwt>
<pdfrwt beam="2">  1       -2 0.11048898E+00 0.13187318E+04</pdfrwt>
<totfact> 0.31218474E+01</totfact>
</mgrwt>
</event>
<event>
 6    1  0.2238133E-007  0.1852137E+04  0.7818608E-02  0.8679054E-01
         -2   -1    0    0    0  501 -0.00000000000E+00  0.00000000000E+00  0.31113031899E+04  0.31113031899E+04  0.00000000000E+00 0.  1.
          2   -1    0    0  501    0  0.00000000000E+00 -0.00000000000E+00 -0.27564113675E+03  0.27564113675E+03  0.00000000000E+00 0. -1.
         23    2    1    2    0    0  0.48374117187E+03 -0.56239782226E+03  0.41483650184E+03  0.85500965497E+03  0.93034160332E+02 0.  0.
         13    1    3    3    0    0  0.21610131102E+03 -0.18845371384E+03  0.13745686061E+03  0.31797636298E+03  0.00000000000E+00 0.  1.
        -13    1    3    3    0    0  0.26763986085E+03 -0.37394410842E+03  0.27737964123E+03  0.53703329199E+03  0.00000000000E+00 0. -1.
         22    1    1    2    0    0 -0.48374117187E+03  0.56239782226E+03  0.24208255514E+04  0.25319346717E+04  0.00000000000E+00 0.  1.
<mgrwt>
<rscale>  0 0.18521373E+04</rscale>
<asrwt>0</asrwt>
<pdfrwt beam="1">  1        2 0.42406331E-01 0.18521373E+04</pdfrwt>
<pdfrwt beam="2">  1       -2 0.47866200E+00 0.18521373E+04</pdfrwt>
<totfact> 0.25568191E-01</totfact>
</mgrwt>
</event>
<event>
 6    1  0.2238133E-007  0.3003425E+04  0.7818608E-02  0.8242754E-01
         -2   -1    0    0    0  501 -0.00000000000E+00  0.00000000000E+00  0.89338854847E+03  0.89338854847E+03  0.00000000000E+00 0.  1.
          2   -1    0    0  501    0  0.00000000000E+00 -0.00000000000E+00 -0.25242544182E+04  0.25242544182E+04  0.00000000000E+00 0. -1.
         23    2    1    2    0    0 -0.12260876115E+04  0.18470158531E+03 -0.17773591172E+04  0.21690975017E+04  0.92590677799E+02 0.  0.
         11    1    3    3    0    0 -0.22478367488E+03  0.21443861538E+02 -0.38496424424E+03  0.44630147774E+03  0.00000000000E+00 0.  1.
        -11    1    3    3    0    0 -0.10013039366E+04  0.16325772377E+03 -0.13923948730E+04  0.17227960240E+04  0.00000000000E+00 0. -1.
         22    1    1    2    0    0  0.12260876115E+04 -0.18470158531E+03  0.14649324744E+03  0.12485454650E+04  0.00000000000E+00 0.  1.
<mgrwt>
<rscale>  0 0.30034247E+04</rscale>
<asrwt>0</asrwt>
<pdfrwt beam="1">  1        2 0.38834683E+00 0.30034247E+04</pdfrwt>
<pdfrwt beam="2">  1       -2 0.13744439E+00 0.30034247E+04</pdfrwt>
<totfact> 0.10862569E+00</totfact>
</mgrwt>
</event>
<event>
 6    1  0.2238133E-007  0.1474272E+04  0.7818608E-02  0.8901744E-01
         -1   -1    0    0    0  501 -0.00000000000E+00  0.00000000000E+00  0.93154718478E+03  0.93154718478E+03  0.00000000000E+00 0.  1.
          1   -1    0    0  501    0  0.00000000000E+00 -0.00000000000E+00 -0.58329811133E+03  0.58329811133E+03  0.00000000000E+00 0. -1.
         23    2    1    2    0    0 -0.51553764721E+03  0.52097147982E+03  0.21941886859E+03  0.77067624935E+03  0.92773341788E+02 0.  0.
         11    1    3    3    0    0 -0.43291100380E+03  0.46697278905E+03  0.16430777064E+03  0.65762646420E+03  0.00000000000E+00 0. -1.
        -11    1    3    3    0    0 -0.82626643407E+02  0.53998690774E+02  0.55111097948E+02  0.11304978515E+03  0.00000000000E+00 0.  1.
         22    1    1    2    0    0  0.51553764721E+03 -0.52097147982E+03  0.12883020486E+03  0.74416904676E+03  0.00000000000E+00 0.  1.
<mgrwt>
<rscale>  0 0.14742723E+04</rscale>
<asrwt>0</asrwt>
<pdfrwt beam="1">  1        1 0.89738171E-01 0.14742723E+04</pdfrwt>
<pdfrwt beam="2">  1       -1 0.14331495E+00 0.14742723E+04</pdfrwt>
<totfact> 0.13629905E+01</totfact>
</mgrwt>
</event>
<event>
 6    1  0.2238133E-007  0.1373268E+04  0.7818608E-02  0.8973399E-01
         -2   -1    0    0    0  501 -0.00000000000E+00  0.00000000000E+00  0.21861474693E+03  0.21861474693E+03  0.00000000000E+00 0.  1.
          2   -1    0    0  501    0  0.00000000000E+00 -0.00000000000E+00 -0.21566089570E+04  0.21566089570E+04  0.00000000000E+00 0. -1.
         23    2    1    2    0    0 -0.13732388953E+03  0.50984816662E+03 -0.22230440637E+03  0.58012078038E+03  0.91202341509E+02 0.  0.
         13    1    3    3    0    0 -0.32364654921E+02  0.13394407535E+03 -0.16164961837E+02  0.13874362040E+03  0.00000000000E+00 0. -1.
        -13    1    3    3    0    0 -0.10495923461E+03  0.37590409127E+03 -0.20613944454E+03  0.44137715999E+03  0.00000000000E+00 0.  1.
         22    1    1    2    0    0  0.13732388953E+03 -0.50984816662E+03 -0.17156898037E+04  0.17951029236E+04  0.00000000000E+00 0. -1.
<mgrwt>
<rscale>  0 0.13732684E+04</rscale>
<asrwt>0</asrwt>
<pdfrwt beam="1">  1        2 0.33178600E+00 0.13732684E+04</pdfrwt>
<pdfrwt beam="2">  1       -2 0.33633038E-01 0.13732684E+04</pdfrwt>
<totfact> 0.44093244E+01</totfact>
</mgrwt>
</event>
<event>
 6    1  0.2238133E-007  0.2026504E+04  0.7818608E-02  0.8594329E-01
         -2   -1    0    0    0  501 -0.00000000000E+00  0.00000000000E+00  0.39495597228E+03  0.39495597228E+03  0.00000000000E+00 0.  1.
          2   -1    0    0  501    0  0.00000000000E+00 -0.00000000000E+00 -0.25994780534E+04  0.25994780534E+04  0.00000000000E+00 0. -1.
         23    2    1    2    0    0 -0.32772839031E+03  0.83809320590E+03 -0.17858225583E+04  0.20019042226E+04  0.93017133856E+02 0.  0.
         11    1    3    3    0    0 -0.28272275927E+03  0.69954050799E+03 -0.14171187354E+04  0.16054639800E+04  0.00000000000E+00 0.  1.
        -11    1    3    3    0    0 -0.45005631035E+02  0.13855269790E+03 -0.36870382289E+03  0.39644024258E+03  0.00000000000E+00 0. -1.
         22    1    1    2    0    0  0.32772839031E+03 -0.83809320590E+03 -0.41869952283E+03  0.99252980308E+03  0.00000000000E+00 0.  1.
<mgrwt>
<rscale>  0 0.20265038E+04</rscale>
<asrwt>0</asrwt>
<pdfrwt beam="1">  1        2 0.39991970E+00 0.20265038E+04</pdfrwt>
<pdfrwt beam="2">  1       -2 0.60762458E-01 0.20265038E+04</pdfrwt>
<totfact> 0.71242222E+00</totfact>
</mgrwt>
</event>
<event>
 6    1  0.2238133E-007  0.3006970E+04  0.7818608E-02  0.8241743E-01
          2   -1    0    0  501    0  0.00000000000E+00  0.00000000000E+00  0.17093531471E+04  0.17093531471E+04  0.00000000000E+00 0. -1.
         -2   -1    0    0    0  501 -0.00000000000E+00 -0.00000000000E+00 -0.13224107267E+04  0.13224107267E+04  0.00000000000E+00 0.  1.
         23    2    1    2    0    0  0.63265365268E+03  0.12418772859E+04  0.75911220352E+03  0.15891897215E+04  0.82236220207E+02 0.  0.
         13    1    3    3    0    0  0.45634195522E+03  0.81991675264E+03  0.49045515077E+03  0.10588001305E+04  0.00000000000E+00 0.  1.
        -13    1    3    3    0    0  0.17631169745E+03  0.42196053321E+03  0.26865705275E+03  0.53038959100E+03  0.00000000000E+00 0. -1.
         22    1    1    2    0    0 -0.63265365268E+03 -0.12418772859E+04 -0.37216978315E+03  0.14425741523E+04  0.00000000000E+00 0.  1.
<mgrwt>
<rscale>  0 0.30069699E+04</rscale>
<asrwt>0</asrwt>
<pdfrwt beam="1">  1        2 0.26297741E+00 0.30069699E+04</pdfrwt>
<pdfrwt beam="2">  1       -2 0.20344780E+00 0.30069699E+04</pdfrwt>
<totfact> 0.10468575E+00</totfact>
</mgrwt>
</event>
<event>
 6    1  0.2238133E-007  0.5278582E+04  0.7818608E-02  0.7786914E-01
          2   -1    0    0  501    0  0.00000000000E+00  0.00000000000E+00  0.18463736193E+04  0.18463736193E+04  0.00000000000E+00 0. -1.
         -2   -1    0    0    0  501 -0.00000000000E+00 -0.00000000000E+00 -0.37727229347E+04  0.37727229347E+04  0.00000000000E+00 0.  1.
         23    2    1    2    0    0 -0.23347268671E+04 -0.68265963567E+03 -0.20514582886E+04  0.31833983015E+04  0.92573828870E+02 0.  0.
         13    1    3    3    0    0 -0.13143378489E+04 -0.39348186944E+03 -0.10979346308E+04  0.17572058548E+04  0.00000000000E+00 0. -1.
        -13    1    3    3    0    0 -0.10203890182E+04 -0.28917776623E+03 -0.95352365784E+03  0.14261924467E+04  0.00000000000E+00 0.  1.
         22    1    1    2    0    0  0.23347268671E+04  0.68265963567E+03  0.12510897321E+03  0.24356982525E+04  0.00000000000E+00 0.  1.
<mgrwt>
<rscale>  0 0.52785817E+04</rscale>
<asrwt>0</asrwt>
<pdfrwt beam="1">  1        2 0.28405748E+00 0.52785817E+04</pdfrwt>
<pdfrwt beam="2">  1       -2 0.58041891E+00 0.52785817E+04</pdfrwt>
<totfact> 0.35924507E-03</totfact>
</mgrwt>
</event>
<event>
 6    1  0.2238133E-007  0.4098656E+04  0.7818608E-02  0.7984935E-01
         -2   -1    0    0    0  501 -0.00000000000E+00  0.00000000000E+00  0.25125516100E+04  0.25125516100E+04  0.00000000000E+00 0.  1.
          2   -1    0    0  501    0  0.00000000000E+00 -0.00000000000E+00 -0.16715060503E+04  0.16715060503E+04  0.00000000000E+00 0. -1.
         23    2    1    2    0    0 -0.17360997726E+04  0.10804548376E+04  0.29872722128E+03  0.20685118071E+04  0.89878065916E+02 0.  0.
         13    1    3    3    0    0 -0.10533230239E+04  0.64606914375E+03  0.13678249270E+03  0.12432233031E+04  0.00000000000E+00 0.  1.
        -13    1    3    3    0    0 -0.68277674874E+03  0.43438569390E+03  0.16194472858E+03  0.82528850398E+03  0.00000000000E+00 0. -1.
         22    1    1    2    0    0  0.17360997726E+04 -0.10804548376E+04  0.54231833851E+03  0.21155458532E+04  0.00000000000E+00 0. -1.
<mgrwt>
<rscale>  0 0.40986560E+04</rscale>
<asrwt>0</asrwt>
<pdfrwt beam="1">  1        2 0.25715478E+00 0.40986560E+04</pdfrwt>
<pdfrwt beam="2">  1       -2 0.38654640E+00 0.40986560E+04</pdfrwt>
<totfact> 0.72273972E-02</totfact>
</mgrwt>
</event>
<event>
 6    1  0.2238133E-007  0.3038751E+04  0.7818608E-02  0.8232751E-01
          2   -1    0    0  501    0  0.00000000000E+00  0.00000000000E+00  0.18014555304E+04  0.18014555304E+04  0.00000000000E+00 0. -1.
         -2   -1    0    0    0  501 -0.00000000000E+00 -0.00000000000E+00 -0.12814645033E+04  0.12814645033E+04  0.00000000000E+00 0.  1.
         23    2    1    2    0    0  0.50602903807E+03  0.13946950522E+04  0.58596757994E+03  0.15977962741E+04  0.91407072131E+02 0.  0.
         11    1    3    3    0    0  0.33544078238E+03  0.86201838207E+03  0.40668864612E+03  0.10104414206E+04  0.00000000000E+00 0.  1.
        -11    1    3    3    0    0  0.17058825569E+03  0.53267667008E+03  0.17927893382E+03  0.58735485351E+03  0.00000000000E+00 0. -1.
         22    1    1    2    0    0 -0.50602903807E+03 -0.13946950522E+04 -0.65976552923E+02  0.14851237596E+04  0.00000000000E+00 0.  1.
<mgrwt>
<rscale>  0 0.30387506E+04</rscale>
<asrwt>0</asrwt>
<pdfrwt beam="1">  1        2 0.27714700E+00 0.30387506E+04</pdfrwt>
<pdfrwt beam="2">  1       -2 0.19714839E+00 0.30387506E+04</pdfrwt>
<totfact> 0.10208163E+00</totfact>
</mgrwt>
</event>
<event>
 6    1  0.2238133E-007  0.2826838E+04  0.7818608E-02  0.8294984E-01
         -2   -1    0    0    0  501 -0.00000000000E+00  0.00000000000E+00  0.16651518413E+04  0.16651518413E+04  0.00000000000E+00 0.  1.
          2   -1    0    0  501    0  0.00000000000E+00 -0.00000000000E+00 -0.11997426205E+04  0.11997426205E+04  0.00000000000E+00 0. -1.
         23    2    1    2    0    0 -0.30078726914E+03  0.21819135815E+03  0.16134701459E+04  0.16581946906E+04  0.90792456965E+02 0.  0.
         11    1    3    3    0    0 -0.59147625548E+02  0.47178050754E+02  0.51525773103E+03  0.52078281411E+03  0.00000000000E+00 0. -1.
        -11    1    3    3    0    0 -0.24163964359E+03  0.17101330740E+03  0.10982124148E+04  0.11374118765E+04  0.00000000000E+00 0.  1.
         22    1    1    2    0    0  0.30078726914E+03 -0.21819135815E+03 -0.11480609251E+04  0.12066997712E+04  0.00000000000E+00 0. -1.
<mgrwt>
<rscale>  0 0.28268383E+04</rscale>
<asrwt>0</asrwt>
<pdfrwt beam="1">  1        2 0.18457579E+00 0.28268383E+04</pdfrwt>
<pdfrwt beam="2">  1       -2 0.25617721E+00 0.28268383E+04</pdfrwt>
<totfact> 0.96869837E-01</totfact>
</mgrwt>
</event>
<event>
 6    1  0.2238133E-007  0.2371966E+04  0.7818608E-02  0.8450074E-01
          2   -1    0    0  501    0  0.00000000000E+00  0.00000000000E+00  0.21227063746E+04  0.21227063746E+04  0.00000000000E+00 0. -1.
         -2   -1    0    0    0  501 -0.00000000000E+00 -0.00000000000E+00 -0.66262382450E+03  0.66262382450E+03  0.00000000000E+00 0.  1.
         23    2    1    2    0    0  0.63180584452E+03 -0.93397520372E+03  0.11559518079E+04  0.16174330227E+04  0.91524282881E+02 0.  0.
         13    1    3    3    0    0  0.25249345517E+03 -0.36436460381E+03  0.39169869957E+03  0.59155927907E+03  0.00000000000E+00 0. -1.
        -13    1    3    3    0    0  0.37931238935E+03 -0.56961059992E+03  0.76425310832E+03  0.10258737436E+04  0.00000000000E+00 0.  1.
         22    1    1    2    0    0 -0.63180584452E+03  0.93397520372E+03  0.30413074221E+03  0.11678971764E+04  0.00000000000E+00 0.  1.
<mgrwt>
<rscale>  0 0.23719661E+04</rscale>
<asrwt>0</asrwt>
<pdfrwt beam="1">  1        2 0.32657021E+00 0.23719661E+04</pdfrwt>
<pdfrwt beam="2">  1       -2 0.10194213E+00 0.23719661E+04</pdfrwt>
<totfact> 0.40576393E+00</totfact>
</mgrwt>
</event>
<event>
 6    1  0.2238133E-007  0.2009391E+04  0.7818608E-02  0.8602243E-01
          2   -1    0    0  501    0  0.00000000000E+00  0.00000000000E+00  0.14424950942E+04  0.14424950942E+04  0.00000000000E+00 0. -1.
         -2   -1    0    0    0  501 -0.00000000000E+00 -0.00000000000E+00 -0.69976844826E+03  0.69976844826E+03  0.00000000000E+00 0.  1.
         23    2    1    2    0    0 -0.13872419390E+03  0.13540315613E+03  0.14208764804E+04  0.14369511189E+04  0.91433740854E+02 0.  0.
         11    1    3    3    0    0 -0.11518008231E+03  0.11742694806E+03  0.87848343169E+03  0.89374978559E+03  0.00000000000E+00 0. -1.
        -11    1    3    3    0    0 -0.23544111586E+02  0.17976208072E+02  0.54239304873E+03  0.54320133335E+03  0.00000000000E+00 0.  1.
         22    1    1    2    0    0  0.13872419390E+03 -0.13540315613E+03 -0.67814983451E+03  0.70531242348E+03  0.00000000000E+00 0.  1.
<mgrwt>
<rscale>  0 0.20093905E+04</rscale>
<asrwt>0</asrwt>
<pdfrwt beam="1">  1        2 0.22192232E+00 0.20093905E+04</pdfrwt>
<pdfrwt beam="2">  1       -2 0.10765668E+00 0.20093905E+04</pdfrwt>
<totfact> 0.87941498E+00</totfact>
</mgrwt>
</event>
<event>
 6    1  0.2238133E-007  0.4043378E+04  0.7818608E-02  0.7995853E-01
          2   -1    0    0  501    0  0.00000000000E+00  0.00000000000E+00  0.17678101504E+04  0.17678101504E+04  0.00000000000E+00 0. -1.
         -2   -1    0    0    0  501 -0.00000000000E+00 -0.00000000000E+00 -0.23120278618E+04  0.23120278618E+04  0.00000000000E+00 0.  1.
         23    2    1    2    0    0  0.13766242650E+04  0.77911027780E+03  0.99644375587E+03  0.18717291045E+04  0.91446652024E+02 0.  0.
         11    1    3    3    0    0  0.77541529989E+03  0.45769911867E+03  0.51702425002E+03  0.10383021938E+04  0.00000000000E+00 0.  1.
        -11    1    3    3    0    0  0.60120896509E+03  0.32141115913E+03  0.47941950585E+03  0.83342691072E+03  0.00000000000E+00 0. -1.
         22    1    1    2    0    0 -0.13766242650E+04 -0.77911027780E+03 -0.15406614673E+04  0.22081089078E+04  0.00000000000E+00 0.  1.
<mgrwt>
<rscale>  0 0.40433780E+04</rscale>
<asrwt>0</asrwt>
<pdfrwt beam="1">  1        2 0.27197079E+00 0.40433780E+04</pdfrwt>
<pdfrwt beam="2">  1       -2 0.35569659E+00 0.40433780E+04</pdfrwt>
<totfact> 0.10119482E-01</totfact>
</mgrwt>
</event>
<event>
 6    1  0.2238133E-007  0.1193429E+04  0.7818608E-02  0.9118628E-01
         -2   -1    0    0    0  501 -0.00000000000E+00  0.00000000000E+00  0.31886858435E+03  0.31886858435E+03  0.00000000000E+00 0.  1.
          2   -1    0    0  501    0  0.00000000000E+00 -0.00000000000E+00 -0.11166613495E+04  0.11166613495E+04  0.00000000000E+00 0. -1.
         23    2    1    2    0    0  0.27119462307E+03  0.48247893470E+03 -0.14528900910E+03  0.57990525113E+03  0.94067837799E+02 0.  0.
         13    1    3    3    0    0  0.11830313998E+03  0.30199176610E+03 -0.96461487738E+02  0.33837771549E+03  0.00000000000E+00 0. -1.
        -13    1    3    3    0    0  0.15289148308E+03  0.18048716860E+03 -0.48827521361E+02  0.24152753564E+03  0.00000000000E+00 0.  1.
         22    1    1    2    0    0 -0.27119462307E+03 -0.48247893470E+03 -0.65250375602E+03  0.85562468270E+03  0.00000000000E+00 0.  1.
<mgrwt>
<rscale>  0 0.11934290E+04</rscale>
<asrwt>0</asrwt>
<pdfrwt beam="1">  1        2 0.17179405E+00 0.11934290E+04</pdfrwt>
<pdfrwt beam="2">  1       -2 0.49056707E-01 0.11934290E+04</pdfrwt>
<totfact> 0.82609333E+01</totfact>
</mgrwt>
</event>
<event>
 6    1  0.2238133E-007  0.1393866E+04  0.7818608E-02  0.8958271E-01
          2   -1    0    0  501    0  0.00000000000E+00  0.00000000000E+00  0.20370553015E+04  0.20370553015E+04  0.00000000000E+00 0. -1.
         -2   -1    0    0    0  501 -0.00000000000E+00 -0.00000000000E+00 -0.23843995949E+03  0.23843995949E+03  0.00000000000E+00 0.  1.
         23    2    1    2    0    0 -0.99540363643E+02 -0.49406370299E+03  0.16818755893E+04  0.17581603632E+04  0.91734062319E+02 0.  0.
         13    1    3    3    0    0 -0.14080743390E+02 -0.11721462905E+03  0.27696020586E+03  0.30107223756E+03  0.00000000000E+00 0.  1.
        -13    1    3    3    0    0 -0.85459620253E+02 -0.37684907394E+03  0.14049153835E+04  0.14570881257E+04  0.00000000000E+00 0. -1.
         22    1    1    2    0    0  0.99540363643E+02  0.49406370299E+03  0.11673975268E+03  0.51733489778E+03  0.00000000000E+00 0.  1.
<mgrwt>
<rscale>  0 0.13938657E+04</rscale>
<asrwt>0</asrwt>
<pdfrwt beam="1">  1        2 0.31339311E+00 0.13938657E+04</pdfrwt>
<pdfrwt beam="2">  1       -2 0.36683072E-01 0.13938657E+04</pdfrwt>
<totfact> 0.43454562E+01</totfact>
</mgrwt>
</event>
<event>
 6    1  0.2238133E-007  0.2016874E+04  0.7818608E-02  0.8598772E-01
         -2   -1    0    0    0  501 -0.00000000000E+00  0.00000000000E+00  0.37313548406E+03  0.37313548406E+03  0.00000000000E+00 0.  1.
          2   -1    0    0  501    0  0.00000000000E+00 -0.00000000000E+00 -0.27254050419E+04  0.27254050419E+04  0.00000000000E+00 0. -1.
         23    2    1    2    0    0  0.80850203650E+03 -0.55623386167E+03 -0.83644855867E+03  0.12927761578E+04  0.92478921342E+02 0.  0.
         11    1    3    3    0    0  0.56851348941E+03 -0.42079688658E+03 -0.55680607024E+03  0.90017254304E+03  0.00000000000E+00 0. -1.
        -11    1    3    3    0    0  0.23998854708E+03 -0.13543697510E+03 -0.27964248844E+03  0.39260361472E+03  0.00000000000E+00 0.  1.
         22    1    1    2    0    0 -0.80850203650E+03  0.55623386167E+03 -0.15158209991E+04  0.18057643682E+04  0.00000000000E+00 0.  1.
<mgrwt>
<rscale>  0 0.20168741E+04</rscale>
<asrwt>0</asrwt>
<pdfrwt beam="1">  1        2 0.41929308E+00 0.20168741E+04</pdfrwt>
<pdfrwt beam="2">  1       -2 0.57405459E-01 0.20168741E+04</pdfrwt>
<totfact> 0.67714381E+00</totfact>
</mgrwt>
</event>
<event>
 6    1  0.2898932E-007  0.3012447E+04  0.7818608E-02  0.8240186E-01
          2   -1    0    0  501    0  0.00000000000E+00  0.00000000000E+00  0.14203401800E+04  0.14203401800E+04  0.00000000000E+00 0. -1.
         -2   -1    0    0    0  501 -0.00000000000E+00 -0.00000000000E+00 -0.15972997107E+04  0.15972997107E+04  0.00000000000E+00 0.  1.
         23    2    1    2    0    0  0.37155308390E+03 -0.84822837304E+02  0.13697781368E+04  0.14246414539E+04  0.89802673574E+02 0.  0.
         11    1    3    3    0    0  0.13334015935E+03  0.10807581370E+02  0.52069585714E+03  0.53760634069E+03  0.00000000000E+00 0. -1.
        -11    1    3    3    0    0  0.23821292454E+03 -0.95630418674E+02  0.84908227964E+03  0.88703511317E+03  0.00000000000E+00 0.  1.
         22    1    1    2    0    0 -0.37155308390E+03  0.84822837304E+02 -0.15467376674E+04  0.15929984368E+04  0.00000000000E+00 0.  1.
<mgrwt>
<rscale>  0 0.30124468E+04</rscale>
<asrwt>0</asrwt>
<pdfrwt beam="1">  1        2 0.21851388E+00 0.30124468E+04</pdfrwt>
<pdfrwt beam="2">  1       -2 0.24573842E+00 0.30124468E+04</pdfrwt>
<totfact> 0.82245420E-01</totfact>
</mgrwt>
</event>
<event>
 6    1  0.2238133E-007  0.1305803E+04  0.7818608E-02  0.9024976E-01
         -1   -1    0    0    0  501 -0.00000000000E+00  0.00000000000E+00  0.33363587768E+03  0.33363587768E+03  0.00000000000E+00 0.  1.
          1   -1    0    0  501    0  0.00000000000E+00 -0.00000000000E+00 -0.12776813695E+04  0.12776813695E+04  0.00000000000E+00 0. -1.
         23    2    1    2    0    0  0.24401827030E+03  0.28645729052E+03  0.17909966446E+03  0.42680986536E+03  0.92126412213E+02 0.  0.
         11    1    3    3    0    0  0.82349784664E+02  0.11640831206E+03  0.11606100998E+03  0.18385467138E+03  0.00000000000E+00 0.  1.
        -11    1    3    3    0    0  0.16166848563E+03  0.17004897846E+03  0.63038654475E+02  0.24295519397E+03  0.00000000000E+00 0. -1.
         22    1    1    2    0    0 -0.24401827030E+03 -0.28645729052E+03 -0.11231451563E+04  0.11845073818E+04  0.00000000000E+00 0. -1.
<mgrwt>
<rscale>  0 0.13058030E+04</rscale>
<asrwt>0</asrwt>
<pdfrwt beam="1">  1        1 0.19656636E+00 0.13058030E+04</pdfrwt>
<pdfrwt beam="2">  1       -1 0.51328597E-01 0.13058030E+04</pdfrwt>
<totfact> 0.35181486E+01</totfact>
</mgrwt>
</event>
<event>
 6    1  0.2238133E-007  0.1376039E+04  0.7818608E-02  0.8971348E-01
         -2   -1    0    0    0  501 -0.00000000000E+00  0.00000000000E+00  0.23139886106E+03  0.23139886106E+03  0.00000000000E+00 0.  1.
          2   -1    0    0  501    0  0.00000000000E+00 -0.00000000000E+00 -0.20456923463E+04  0.20456923463E+04  0.00000000000E+00 0. -1.
         23    2    1    2    0    0 -0.56235672854E+02  0.39159425583E+03  0.14317680921E+02  0.40617503898E+03  0.90910143586E+02 0.  0.
         13    1    3    3    0    0  0.18635066915E+02  0.11483281828E+03 -0.17735051229E+02  0.11767911418E+03  0.00000000000E+00 0. -1.
        -13    1    3    3    0    0 -0.74870739769E+02  0.27676143755E+03  0.32052732150E+02  0.28849592480E+03  0.00000000000E+00 0.  1.
         22    1    1    2    0    0  0.56235672854E+02 -0.39159425583E+03 -0.18286111662E+04  0.18709161684E+04  0.00000000000E+00 0. -1.
<mgrwt>
<rscale>  0 0.13760391E+04</rscale>
<asrwt>0</asrwt>
<pdfrwt beam="1">  1        2 0.31472189E+00 0.13760391E+04</pdfrwt>
<pdfrwt beam="2">  1       -2 0.35599826E-01 0.13760391E+04</pdfrwt>
<totfact> 0.45591751E+01</totfact>
</mgrwt>
</event>
<event>
 6    1  0.2238133E-007  0.1998444E+04  0.7818608E-02  0.8607348E-01
          2   -1    0    0  501    0  0.00000000000E+00  0.00000000000E+00  0.14665617499E+04  0.14665617499E+04  0.00000000000E+00 0. -1.
         -2   -1    0    0    0  501 -0.00000000000E+00 -0.00000000000E+00 -0.68080669946E+03  0.68080669946E+03  0.00000000000E+00 0.  1.
         23    2    1    2    0    0  0.85470999343E+03 -0.35325135737E+03 -0.71323225775E+01  0.92917877584E+03  0.89479791557E+02 0.  0.
         11    1    3    3    0    0  0.37917246922E+03 -0.11952432228E+03 -0.30983054461E+02  0.39877032825E+03  0.00000000000E+00 0. -1.
        -11    1    3    3    0    0  0.47553752422E+03 -0.23372703508E+03  0.23850731884E+02  0.53040844759E+03  0.00000000000E+00 0.  1.
         22    1    1    2    0    0 -0.85470999343E+03  0.35325135737E+03  0.79288737298E+03  0.12181896735E+04  0.00000000000E+00 0. -1.
<mgrwt>
<rscale>  0 0.19984445E+04</rscale>
<asrwt>0</asrwt>
<pdfrwt beam="1">  1        2 0.22562488E+00 0.19984445E+04</pdfrwt>
<pdfrwt beam="2">  1       -2 0.10473949E+00 0.19984445E+04</pdfrwt>
<totfact> 0.91120842E+00</totfact>
</mgrwt>
</event>
<event>
 6    1  0.2238133E-007  0.6090171E+03  0.7818608E-02  0.9886873E-01
         -2   -1    0    0    0  501 -0.00000000000E+00  0.00000000000E+00  0.61896509800E+02  0.61896509800E+02  0.00000000000E+00 0.  1.
          2   -1    0    0  501    0  0.00000000000E+00 -0.00000000000E+00 -0.14980722599E+04  0.14980722599E+04  0.00000000000E+00 0. -1.
         23    2    1    2    0    0 -0.29271641773E+03  0.30713839436E+01 -0.87417845315E+03  0.92630221986E+03  0.90307806698E+02 0.  0.
         13    1    3    3    0    0 -0.11375828665E+03  0.43378232780E+02 -0.38878357475E+03  0.40740064661E+03  0.00000000000E+00 0. -1.
        -13    1    3    3    0    0 -0.17895813109E+03 -0.40306848837E+02 -0.48539487840E+03  0.51890157325E+03  0.00000000000E+00 0.  1.
         22    1    1    2    0    0  0.29271641773E+03 -0.30713839436E+01 -0.56199729695E+03  0.63366654984E+03  0.00000000000E+00 0.  1.
<mgrwt>
<rscale>  0 0.60901706E+03</rscale>
<asrwt>0</asrwt>
<pdfrwt beam="1">  1        2 0.23047268E+00 0.60901706E+03</pdfrwt>
<pdfrwt beam="2">  1       -2 0.95225388E-02 0.60901706E+03</pdfrwt>
<totfact> 0.96317429E+02</totfact>
</mgrwt>
</event>
<event>
 6    1  0.2238133E-007  0.2364329E+04  0.7818608E-02  0.8452980E-01
          2   -1    0    0  501    0  0.00000000000E+00  0.00000000000E+00  0.23385836516E+04  0.23385836516E+04  0.00000000000E+00 0. -1.
         -2   -1    0    0    0  501 -0.00000000000E+00 -0.00000000000E+00 -0.59758940732E+03  0.59758940732E+03  0.00000000000E+00 0.  1.
         23    2    1    2    0    0 -0.76885716587E+03 -0.19752168536E+03  0.19568333184E+04  0.21135293550E+04  0.87484516289E+02 0.  0.
         11    1    3    3    0    0 -0.18150327360E+03 -0.69555681338E+02  0.40168831821E+03  0.44624537658E+03  0.00000000000E+00 0.  1.
        -11    1    3    3    0    0 -0.58735389227E+03 -0.12796600402E+03  0.15551450002E+04  0.16672839784E+04  0.00000000000E+00 0. -1.
         22    1    1    2    0    0  0.76885716587E+03  0.19752168536E+03 -0.21583907415E+03  0.82264370393E+03  0.00000000000E+00 0.  1.
<mgrwt>
<rscale>  0 0.23643289E+04</rscale>
<asrwt>0</asrwt>
<pdfrwt beam="1">  1        2 0.35978210E+00 0.23643289E+04</pdfrwt>
<pdfrwt beam="2">  1       -2 0.91936833E-01 0.23643289E+04</pdfrwt>
<totfact> 0.39098883E+00</totfact>
</mgrwt>
</event>
<event>
 6    1  0.2238133E-007  0.2887738E+04  0.7818608E-02  0.8276535E-01
         -2   -1    0    0    0  501 -0.00000000000E+00  0.00000000000E+00  0.16012885872E+04  0.16012885872E+04  0.00000000000E+00 0.  1.
          2   -1    0    0  501    0  0.00000000000E+00 -0.00000000000E+00 -0.13019251827E+04  0.13019251827E+04  0.00000000000E+00 0. -1.
         23    2    1    2    0    0  0.41437527705E+03  0.24102430103E+03  0.15175658313E+04  0.15940855346E+04  0.91121102373E+02 0.  0.
         13    1    3    3    0    0  0.54583912828E+02  0.23417551179E+01  0.21463501758E+03  0.22147929503E+03  0.00000000000E+00 0.  1.
        -13    1    3    3    0    0  0.35979136422E+03  0.23868254591E+03  0.13029308137E+04  0.13726062396E+04  0.00000000000E+00 0. -1.
         22    1    1    2    0    0 -0.41437527705E+03 -0.24102430103E+03 -0.12182024268E+04  0.13091282354E+04  0.00000000000E+00 0. -1.
<mgrwt>
<rscale>  0 0.28877382E+04</rscale>
<asrwt>0</asrwt>
<pdfrwt beam="1">  1        2 0.20029618E+00 0.28877382E+04</pdfrwt>
<pdfrwt beam="2">  1       -2 0.24635209E+00 0.28877382E+04</pdfrwt>
<totfact> 0.96404588E-01</totfact>
</mgrwt>
</event>
<event>
 6    1  0.2238133E-007  0.1812166E+04  0.7818608E-02  0.8699856E-01
         -2   -1    0    0    0  501 -0.00000000000E+00  0.00000000000E+00  0.41396739680E+03  0.41396739680E+03  0.00000000000E+00 0.  1.
          2   -1    0    0  501    0  0.00000000000E+00 -0.00000000000E+00 -0.19832157687E+04  0.19832157687E+04  0.00000000000E+00 0. -1.
         23    2    1    2    0    0 -0.58851265648E+03 -0.66336770618E+03 -0.10178970656E+04  0.13529647385E+04  0.89416368424E+02 0.  0.
         13    1    3    3    0    0 -0.42826324080E+03 -0.48070886944E+03 -0.79725476511E+03  0.10247465936E+04  0.00000000000E+00 0.  1.
        -13    1    3    3    0    0 -0.16024941568E+03 -0.18265883673E+03 -0.22064230051E+03  0.32821814490E+03  0.00000000000E+00 0. -1.
         22    1    1    2    0    0  0.58851265648E+03  0.66336770618E+03 -0.55135130632E+03  0.10442184271E+04  0.00000000000E+00 0.  1.
<mgrwt>
<rscale>  0 0.18121663E+04</rscale>
<asrwt>0</asrwt>
<pdfrwt beam="1">  1        2 0.30511012E+00 0.18121663E+04</pdfrwt>
<pdfrwt beam="2">  1       -2 0.63687291E-01 0.18121663E+04</pdfrwt>
<totfact> 0.14685210E+01</totfact>
</mgrwt>
</event>
<event>
 6    1  0.2238133E-007  0.2918719E+04  0.7818608E-02  0.8267330E-01
          2   -1    0    0  501    0  0.00000000000E+00  0.00000000000E+00  0.11897940290E+04  0.11897940290E+04  0.00000000000E+00 0. -1.
         -2   -1    0    0    0  501 -0.00000000000E+00 -0.00000000000E+00 -0.17899988915E+04  0.17899988915E+04  0.00000000000E+00 0.  1.
         23    2    1    2    0    0 -0.98408893198E+03  0.10109216525E+04 -0.67607893405E+03  0.15669410216E+04  0.88475005964E+02 0.  0.
         11    1    3    3    0    0 -0.20553923731E+03  0.23883552519E+03 -0.11665598296E+03  0.33600209006E+03  0.00000000000E+00 0. -1.
        -11    1    3    3    0    0 -0.77854969468E+03  0.77208612732E+03 -0.55942295109E+03  0.12309389316E+04  0.00000000000E+00 0.  1.
         22    1    1    2    0    0  0.98408893198E+03 -0.10109216525E+04  0.75874071538E+02  0.14128518989E+04  0.00000000000E+00 0. -1.
<mgrwt>
<rscale>  0 0.29187189E+04</rscale>
<asrwt>0</asrwt>
<pdfrwt beam="1">  1        2 0.18304524E+00 0.29187189E+04</pdfrwt>
<pdfrwt beam="2">  1       -2 0.27538444E+00 0.29187189E+04</pdfrwt>
<totfact> 0.74379365E-01</totfact>
</mgrwt>
</event>
<event>
 6    1  0.2238133E-007  0.4234889E+04  0.7818608E-02  0.7958769E-01
         -2   -1    0    0    0  501 -0.00000000000E+00  0.00000000000E+00  0.15632707618E+04  0.15632707618E+04  0.00000000000E+00 0.  1.
          2   -1    0    0  501    0  0.00000000000E+00 -0.00000000000E+00 -0.28680709481E+04  0.28680709481E+04  0.00000000000E+00 0. -1.
         23    2    1    2    0    0  0.32067376378E+03 -0.54767491036E+03  0.14602455919E+04  0.15943965878E+04  0.83688830378E+02 0.  0.
         13    1    3    3    0    0  0.21249990950E+03 -0.43219169807E+03  0.11198979160E+04  0.12190640745E+04  0.00000000000E+00 0. -1.
        -13    1    3    3    0    0  0.10817385429E+03 -0.11548321229E+03  0.34034767582E+03  0.37533251326E+03  0.00000000000E+00 0.  1.
         22    1    1    2    0    0 -0.32067376378E+03  0.54767491036E+03 -0.27650457782E+04  0.28369451221E+04  0.00000000000E+00 0. -1.
<mgrwt>
<rscale>  0 0.42348891E+04</rscale>
<asrwt>0</asrwt>
<pdfrwt beam="1">  1        2 0.44124168E+00 0.42348891E+04</pdfrwt>
<pdfrwt beam="2">  1       -2 0.24050320E+00 0.42348891E+04</pdfrwt>
<totfact> 0.11962020E-01</totfact>
</mgrwt>
</event>
<event>
 6    1  0.2238133E-007  0.5528043E+03  0.7818608E-02  0.1000847E+00
          2   -1    0    0  501    0  0.00000000000E+00  0.00000000000E+00  0.15082814891E+04  0.15082814891E+04  0.00000000000E+00 0. -1.
         -2   -1    0    0    0  501 -0.00000000000E+00 -0.00000000000E+00 -0.50652443983E+02  0.50652443983E+02  0.00000000000E+00 0.  1.
         23    2    1    2    0    0 -0.16853704148E+03 -0.19494087986E+03  0.53172339616E+03  0.59783666862E+03  0.90951807713E+02 0.  0.
         11    1    3    3    0    0 -0.18196873747E+01 -0.55379342751E+02  0.94787827742E+02  0.10979487763E+03  0.00000000000E+00 0.  1.
        -11    1    3    3    0    0 -0.16671735411E+03 -0.13956153711E+03  0.43693556842E+03  0.48804179099E+03  0.00000000000E+00 0. -1.
         22    1    1    2    0    0  0.16853704148E+03  0.19494087986E+03  0.92590564896E+03  0.96109726447E+03  0.00000000000E+00 0. -1.
<mgrwt>
<rscale>  0 0.55280428E+03</rscale>
<asrwt>0</asrwt>
<pdfrwt beam="1">  1        2 0.23204327E+00 0.55280428E+03</pdfrwt>
<pdfrwt beam="2">  1       -2 0.77926848E-02 0.55280428E+03</pdfrwt>
<totfact> 0.13140881E+03</totfact>
</mgrwt>
</event>
<event>
 6    1  0.2238133E-007  0.3363930E+04  0.7818608E-02  0.8146816E-01
         -2   -1    0    0    0  501 -0.00000000000E+00  0.00000000000E+00  0.23750020560E+04  0.23750020560E+04  0.00000000000E+00 0.  1.
          2   -1    0    0  501    0  0.00000000000E+00 -0.00000000000E+00 -0.11911594985E+04  0.11911594985E+04  0.00000000000E+00 0. -1.
         23    2    1    2    0    0  0.26280705065E+03 -0.15482968208E+04  0.12271584356E+04  0.19951214988E+04  0.91111898852E+02 0.  0.
         13    1    3    3    0    0  0.73436749822E+02 -0.45423029685E+03  0.41280119973E+03  0.61816094126E+03  0.00000000000E+00 0. -1.
        -13    1    3    3    0    0  0.18937030083E+03 -0.10940665239E+04  0.81435723582E+03  0.13769605576E+04  0.00000000000E+00 0.  1.
         22    1    1    2    0    0 -0.26280705065E+03  0.15482968208E+04 -0.43315878109E+02  0.15710400556E+04  0.00000000000E+00 0. -1.
<mgrwt>
<rscale>  0 0.33639300E+04</rscale>
<asrwt>0</asrwt>
<pdfrwt beam="1">  1        2 0.18325531E+00 0.33639300E+04</pdfrwt>
<pdfrwt beam="2">  1       -2 0.36538493E+00 0.33639300E+04</pdfrwt>
<totfact> 0.19784468E-01</totfact>
</mgrwt>
</event>
<event>
 6    1  0.2238133E-007  0.9113800E+03  0.7818608E-02  0.9411467E-01
         -2   -1    0    0    0  501 -0.00000000000E+00  0.00000000000E+00  0.13453659144E+03  0.13453659144E+03  0.00000000000E+00 0.  1.
          2   -1    0    0  501    0  0.00000000000E+00 -0.00000000000E+00 -0.15434713249E+04  0.15434713249E+04  0.00000000000E+00 0. -1.
         23    2    1    2    0    0  0.29423668562E+03 -0.22308781815E+03 -0.23297746852E+03  0.44544193808E+03  0.88298457465E+02 0.  0.
         13    1    3    3    0    0  0.13803776787E+03 -0.15796510454E+03 -0.11598068715E+03  0.23970590190E+03  0.00000000000E+00 0.  1.
        -13    1    3    3    0    0  0.15619891775E+03 -0.65122713609E+02 -0.11699678136E+03  0.20573603618E+03  0.00000000000E+00 0. -1.
         22    1    1    2    0    0 -0.29423668562E+03  0.22308781815E+03 -0.11759572649E+04  0.12325659782E+04  0.00000000000E+00 0. -1.
<mgrwt>
<rscale>  0 0.91137999E+03</rscale>
<asrwt>0</asrwt>
<pdfrwt beam="1">  1        2 0.23745712E+00 0.91137999E+03</pdfrwt>
<pdfrwt beam="2">  1       -2 0.20697938E-01 0.91137999E+03</pdfrwt>
<totfact> 0.24197302E+02</totfact>
</mgrwt>
</event>
<event>
 6    1  0.2238133E-007  0.4157351E+04  0.7818608E-02  0.7973535E-01
         -2   -1    0    0    0  501 -0.00000000000E+00  0.00000000000E+00  0.11986584824E+04  0.11986584824E+04  0.00000000000E+00 0.  1.
          2   -1    0    0  501    0  0.00000000000E+00 -0.00000000000E+00 -0.36047733937E+04  0.36047733937E+04  0.00000000000E+00 0. -1.
         23    2    1    2    0    0  0.36015441882E+03  0.20064887279E+04 -0.74000513392E+03  0.21706329832E+04  0.91278304306E+02 0.  0.
         11    1    3    3    0    0  0.28196689405E+03  0.16927958009E+04 -0.59532880164E+03  0.18164468985E+04  0.00000000000E+00 0.  1.
        -11    1    3    3    0    0  0.78187524772E+02  0.31369292699E+03 -0.14467633228E+03  0.35418608471E+03  0.00000000000E+00 0. -1.
         22    1    1    2    0    0 -0.36015441882E+03 -0.20064887279E+04 -0.16661097774E+04  0.26327988930E+04  0.00000000000E+00 0. -1.
<mgrwt>
<rscale>  0 0.41573512E+04</rscale>
<asrwt>0</asrwt>
<pdfrwt beam="1">  1        2 0.55458051E+00 0.41573512E+04</pdfrwt>
<pdfrwt beam="2">  1       -2 0.18440900E+00 0.41573512E+04</pdfrwt>
<totfact> 0.90030420E-02</totfact>
</mgrwt>
</event>
<event>
 6    1  0.2238133E-007  0.2838705E+04  0.7818608E-02  0.8291352E-01
         -2   -1    0    0    0  501 -0.00000000000E+00  0.00000000000E+00  0.60646058514E+03  0.60646058514E+03  0.00000000000E+00 0.  1.
          2   -1    0    0  501    0  0.00000000000E+00 -0.00000000000E+00 -0.33218334504E+04  0.33218334504E+04  0.00000000000E+00 0. -1.
         23    2    1    2    0    0 -0.49360190603E+03 -0.55013673341E+03  0.31536263622E+03  0.80873462001E+03  0.91130819091E+02 0.  0.
         11    1    3    3    0    0 -0.22490836912E+03 -0.30229002618E+03  0.12770478784E+03  0.39783356729E+03  0.00000000000E+00 0.  1.
        -11    1    3    3    0    0 -0.26869353691E+03 -0.24784670724E+03  0.18765784837E+03  0.41090105272E+03  0.00000000000E+00 0. -1.
         22    1    1    2    0    0  0.49360190603E+03  0.55013673341E+03 -0.30307355015E+04  0.31195594155E+04  0.00000000000E+00 0. -1.
<mgrwt>
<rscale>  0 0.28387047E+04</rscale>
<asrwt>0</asrwt>
<pdfrwt beam="1">  1        2 0.51105131E+00 0.28387047E+04</pdfrwt>
<pdfrwt beam="2">  1       -2 0.93301627E-01 0.28387047E+04</pdfrwt>
<totfact> 0.90774051E-01</totfact>
</mgrwt>
</event>
<event>
 6    1  0.2238133E-007  0.2206084E+04  0.7818608E-02  0.8515900E-01
          2   -1    0    0  501    0  0.00000000000E+00  0.00000000000E+00  0.97984433366E+03  0.97984433366E+03  0.00000000000E+00 0. -1.
         -2   -1    0    0    0  501 -0.00000000000E+00 -0.00000000000E+00 -0.12417294807E+04  0.12417294807E+04  0.00000000000E+00 0.  1.
         23    2    1    2    0    0  0.16850077890E+03  0.25350713365E+03  0.93450123454E+03  0.98707037032E+03  0.91416515583E+02 0.  0.
         11    1    3    3    0    0  0.11852067107E+03  0.16198997907E+03  0.47101757854E+03  0.51200142782E+03  0.00000000000E+00 0. -1.
        -11    1    3    3    0    0  0.49980107827E+02  0.91517154573E+02  0.46348365600E+03  0.47506894251E+03  0.00000000000E+00 0.  1.
         22    1    1    2    0    0 -0.16850077890E+03 -0.25350713365E+03 -0.11963863816E+04  0.12345034440E+04  0.00000000000E+00 0.  1.
<mgrwt>
<rscale>  0 0.22060839E+04</rscale>
<asrwt>0</asrwt>
<pdfrwt beam="1">  1        2 0.15074528E+00 0.22060839E+04</pdfrwt>
<pdfrwt beam="2">  1       -2 0.19103531E+00 0.22060839E+04</pdfrwt>
<totfact> 0.36163080E+00</totfact>
</mgrwt>
</event>
<event>
 6    1  0.2238133E-007  0.2770449E+04  0.7818608E-02  0.8312502E-01
         -2   -1    0    0    0  501 -0.00000000000E+00  0.00000000000E+00  0.91158216549E+03  0.91158216549E+03  0.00000000000E+00 0.  1.
          2   -1    0    0  501    0  0.00000000000E+00 -0.00000000000E+00 -0.21049636120E+04  0.21049636120E+04  0.00000000000E+00 0. -1.
         23    2    1    2    0    0 -0.26646256471E+03 -0.25194235882E+03  0.85540509497E+03  0.93519920781E+03  0.91664776304E+02 0.  0.
         13    1    3    3    0    0 -0.10806681799E+02 -0.30793344946E+02  0.14282355390E+03  0.14650454605E+03  0.00000000000E+00 0.  1.
        -13    1    3    3    0    0 -0.25565588291E+03 -0.22114901388E+03  0.71258154107E+03  0.78869466175E+03  0.00000000000E+00 0. -1.
         22    1    1    2    0    0  0.26646256471E+03  0.25194235882E+03 -0.20487865415E+04  0.20813465697E+04  0.00000000000E+00 0. -1.
<mgrwt>
<rscale>  0 0.27704493E+04</rscale>
<asrwt>0</asrwt>
<pdfrwt beam="1">  1        2 0.32384055E+00 0.27704493E+04</pdfrwt>
<pdfrwt beam="2">  1       -2 0.14024341E+00 0.27704493E+04</pdfrwt>
<totfact> 0.18208381E+00</totfact>
</mgrwt>
</event>
<event>
 6    1  0.2238133E-007  0.1072844E+04  0.7818608E-02  0.9232072E-01
          1   -1    0    0  501    0  0.00000000000E+00  0.00000000000E+00  0.18566122463E+03  0.18566122463E+03  0.00000000000E+00 0. -1.
         -1   -1    0    0    0  501 -0.00000000000E+00 -0.00000000000E+00 -0.15498576794E+04  0.15498576794E+04  0.00000000000E+00 0.  1.
         23    2    1    2    0    0 -0.49038337371E+03  0.29931651622E+02 -0.10198723741E+04  0.11355765489E+04  0.89569424987E+02 0.  0.
         11    1    3    3    0    0 -0.31903580438E+03 -0.23450299936E+02 -0.64763272255E+03  0.72233088288E+03  0.00000000000E+00 0. -1.
        -11    1    3    3    0    0 -0.17134756933E+03  0.53381951558E+02 -0.37223965154E+03  0.41324566598E+03  0.00000000000E+00 0.  1.
         22    1    1    2    0    0  0.49038337371E+03 -0.29931651622E+02 -0.34432408064E+03  0.59994235514E+03  0.00000000000E+00 0.  1.
<mgrwt>
<rscale>  0 0.10728438E+04</rscale>
<asrwt>0</asrwt>
<pdfrwt beam="1">  1        1 0.28563265E-01 0.10728438E+04</pdfrwt>
<pdfrwt beam="2">  1       -1 0.23843965E+00 0.10728438E+04</pdfrwt>
<totfact> 0.13635391E+01</totfact>
</mgrwt>
</event>
<event>
 6    1  0.2238133E-007  0.1279812E+04  0.7818608E-02  0.9045729E-01
         -2   -1    0    0    0  501 -0.00000000000E+00  0.00000000000E+00  0.91931911240E+02  0.91931911240E+02  0.00000000000E+00 0.  1.
          2   -1    0    0  501    0  0.00000000000E+00 -0.00000000000E+00 -0.44541634848E+04  0.44541634848E+04  0.00000000000E+00 0. -1.
         23    2    1    2    0    0 -0.27975997764E+03 -0.96129297245E+02 -0.41947566328E+04  0.42061625458E+04  0.91179308860E+02 0.  0.
         11    1    3    3    0    0 -0.14547218273E+03 -0.49864294517E+02 -0.15544132638E+04  0.15620016641E+04  0.00000000000E+00 0.  1.
        -11    1    3    3    0    0 -0.13428779491E+03 -0.46265002728E+02 -0.26403433690E+04  0.26441608818E+04  0.00000000000E+00 0. -1.
         22    1    1    2    0    0  0.27975997764E+03  0.96129297245E+02 -0.16747494071E+03  0.33993285020E+03  0.00000000000E+00 0.  1.
<mgrwt>
<rscale>  0 0.12798121E+04</rscale>
<asrwt>0</asrwt>
<pdfrwt beam="1">  1        2 0.68525577E+00 0.12798121E+04</pdfrwt>
<pdfrwt beam="2">  1       -2 0.14143374E-01 0.12798121E+04</pdfrwt>
<totfact> 0.54502878E+00</totfact>
</mgrwt>
</event>
<event>
 6    1  0.2238133E-007  0.1089799E+04  0.7818608E-02  0.9215192E-01
          1   -1    0    0  501    0  0.00000000000E+00  0.00000000000E+00  0.36916340933E+03  0.36916340933E+03  0.00000000000E+00 0. -1.
         -1   -1    0    0    0  501 -0.00000000000E+00 -0.00000000000E+00 -0.80429261425E+03  0.80429261425E+03  0.00000000000E+00 0.  1.
         23    2    1    2    0    0 -0.36434667540E+03 -0.37449958604E+03 -0.37085814409E+03  0.64702539274E+03  0.90042523189E+02 0.  0.
         11    1    3    3    0    0 -0.13361440647E+03 -0.92725245164E+02 -0.81713957500E+02  0.18201085560E+03  0.00000000000E+00 0. -1.
        -11    1    3    3    0    0 -0.23073226893E+03 -0.28177434088E+03 -0.28914418659E+03  0.46501453713E+03  0.00000000000E+00 0.  1.
         22    1    1    2    0    0  0.36434667540E+03  0.37449958604E+03 -0.64271060833E+02  0.52643063084E+03  0.00000000000E+00 0. -1.
<mgrwt>
<rscale>  0 0.10897989E+04</rscale>
<asrwt>0</asrwt>
<pdfrwt beam="1">  1        1 0.56794371E-01 0.10897989E+04</pdfrwt>
<pdfrwt beam="2">  1       -1 0.12373732E+00 0.10897989E+04</pdfrwt>
<totfact> 0.38212791E+01</totfact>
</mgrwt>
</event>
<event>
 6    1  0.2238133E-007  0.3562643E+04  0.7818608E-02  0.8099103E-01
         -2   -1    0    0    0  501 -0.00000000000E+00  0.00000000000E+00  0.21109930850E+04  0.21109930850E+04  0.00000000000E+00 0.  1.
          2   -1    0    0  501    0  0.00000000000E+00 -0.00000000000E+00 -0.15031341409E+04  0.15031341409E+04  0.00000000000E+00 0. -1.
         23    2    1    2    0    0  0.10879010786E+04 -0.12124128095E+04 -0.42431550140E+03  0.16856932335E+04  0.89690887488E+02 0.  0.
         13    1    3    3    0    0  0.43001946243E+03 -0.42266580729E+03 -0.13507496875E+03  0.61790644106E+03  0.00000000000E+00 0. -1.
        -13    1    3    3    0    0  0.65788161617E+03 -0.78974700217E+03 -0.28924053265E+03  0.10677867924E+04  0.00000000000E+00 0.  1.
         22    1    1    2    0    0 -0.10879010786E+04  0.12124128095E+04  0.10321744455E+04  0.19284339925E+04  0.00000000000E+00 0.  1.
<mgrwt>
<rscale>  0 0.35626427E+04</rscale>
<asrwt>0</asrwt>
<pdfrwt beam="1">  1        2 0.23125141E+00 0.35626427E+04</pdfrwt>
<pdfrwt beam="2">  1       -2 0.32476817E+00 0.35626427E+04</pdfrwt>
<totfact> 0.23115496E-01</totfact>
</mgrwt>
</event>
<event>
 6    1  0.2238133E-007  0.2242828E+04  0.7818608E-02  0.8500811E-01
          2   -1    0    0  501    0  0.00000000000E+00  0.00000000000E+00  0.15409700732E+04  0.15409700732E+04  0.00000000000E+00 0. -1.
         -2   -1    0    0    0  501 -0.00000000000E+00 -0.00000000000E+00 -0.81608928202E+03  0.81608928202E+03  0.00000000000E+00 0.  1.
         23    2    1    2    0    0 -0.63309061056E+03 -0.32849649874E+03 -0.54392220850E+03  0.90152690185E+03  0.90474941349E+02 0.  0.
         11    1    3    3    0    0 -0.13526277712E+03 -0.80944676436E+02 -0.76730440047E+02  0.17531577210E+03  0.00000000000E+00 0. -1.
        -11    1    3    3    0    0 -0.49782783343E+03 -0.24755182230E+03 -0.46719176845E+03  0.72621112975E+03  0.00000000000E+00 0.  1.
         22    1    1    2    0    0  0.63309061056E+03  0.32849649874E+03  0.12688029997E+04  0.14555324534E+04  0.00000000000E+00 0. -1.
<mgrwt>
<rscale>  0 0.22428278E+04</rscale>
<asrwt>0</asrwt>
<pdfrwt beam="1">  1        2 0.23707232E+00 0.22428278E+04</pdfrwt>
<pdfrwt beam="2">  1       -2 0.12555220E+00 0.22428278E+04</pdfrwt>
<totfact> 0.51995110E+00</totfact>
</mgrwt>
</event>
<event>
 6    1  0.2238133E-007  0.3372966E+04  0.7818608E-02  0.8144573E-01
          2   -1    0    0  501    0  0.00000000000E+00  0.00000000000E+00  0.38134620014E+04  0.38134620014E+04  0.00000000000E+00 0. -1.
         -2   -1    0    0    0  501 -0.00000000000E+00 -0.00000000000E+00 -0.74583790299E+03  0.74583790299E+03  0.00000000000E+00 0.  1.
         23    2    1    2    0    0  0.16241415674E+04  0.44289344848E+03  0.16397356227E+04  0.23518452760E+04  0.91939393713E+02 0.  0.
         11    1    3    3    0    0  0.10930529546E+04  0.34128374715E+03  0.11278768537E+04  0.16072789287E+04  0.00000000000E+00 0.  1.
        -11    1    3    3    0    0  0.53108861276E+03  0.10160970133E+03  0.51185876901E+03  0.74456634722E+03  0.00000000000E+00 0. -1.
         22    1    1    2    0    0 -0.16241415674E+04 -0.44289344848E+03  0.14278884757E+04  0.22074546284E+04  0.00000000000E+00 0. -1.
<mgrwt>
<rscale>  0 0.33729658E+04</rscale>
<asrwt>0</asrwt>
<pdfrwt beam="1">  1        2 0.58668645E+00 0.33729658E+04</pdfrwt>
<pdfrwt beam="2">  1       -2 0.11474429E+00 0.33729658E+04</pdfrwt>
<totfact> 0.23562740E-01</totfact>
</mgrwt>
</event>
<event>
 6    1  0.2238133E-007  0.2363335E+04  0.7818608E-02  0.8453360E-01
          2   -1    0    0  501    0  0.00000000000E+00  0.00000000000E+00  0.19982263625E+04  0.19982263625E+04  0.00000000000E+00 0. -1.
         -2   -1    0    0    0  501 -0.00000000000E+00 -0.00000000000E+00 -0.69878844783E+03  0.69878844783E+03  0.00000000000E+00 0.  1.
         23    2    1    2    0    0  0.73767870345E+03 -0.88218927578E+03  0.95205447823E+03  0.14957225729E+04  0.91381057099E+02 0.  0.
         11    1    3    3    0    0  0.32413809700E+03 -0.44959774218E+03  0.48693241536E+03  0.73777151804E+03  0.00000000000E+00 0.  1.
        -11    1    3    3    0    0  0.41354060645E+03 -0.43259153360E+03  0.46512206287E+03  0.75795105481E+03  0.00000000000E+00 0. -1.
         22    1    1    2    0    0 -0.73767870345E+03  0.88218927578E+03  0.34738343639E+03  0.12012922374E+04  0.00000000000E+00 0.  1.
<mgrwt>
<rscale>  0 0.23633345E+04</rscale>
<asrwt>0</asrwt>
<pdfrwt beam="1">  1        2 0.30741944E+00 0.23633345E+04</pdfrwt>
<pdfrwt beam="2">  1       -2 0.10750592E+00 0.23633345E+04</pdfrwt>
<totfact> 0.41943874E+00</totfact>
</mgrwt>
</event>
<event>
 6    1  0.2238133E-007  0.1831227E+04  0.7818608E-02  0.8689868E-01
         -2   -1    0    0    0  501 -0.00000000000E+00  0.00000000000E+00  0.58265631762E+03  0.58265631762E+03  0.00000000000E+00 0.  1.
          2   -1    0    0  501    0  0.00000000000E+00 -0.00000000000E+00 -0.14388375452E+04  0.14388375452E+04  0.00000000000E+00 0. -1.
         23    2    1    2    0    0  0.53500284150E+03 -0.54632365183E+03 -0.98075149101E+03  0.12467582154E+04  0.88515464947E+02 0.  0.
         11    1    3    3    0    0  0.11691461575E+03 -0.82838025001E+02 -0.22237175914E+03  0.26453802189E+03  0.00000000000E+00 0. -1.
        -11    1    3    3    0    0  0.41808822575E+03 -0.46348562682E+03 -0.75837973187E+03  0.98222019348E+03  0.00000000000E+00 0.  1.
         22    1    1    2    0    0 -0.53500284150E+03  0.54632365183E+03  0.12457026340E+03  0.77473564748E+03  0.00000000000E+00 0.  1.
<mgrwt>
<rscale>  0 0.18312267E+04</rscale>
<asrwt>0</asrwt>
<pdfrwt beam="1">  1        2 0.22135962E+00 0.18312267E+04</pdfrwt>
<pdfrwt beam="2">  1       -2 0.89639434E-01 0.18312267E+04</pdfrwt>
<totfact> 0.13812412E+01</totfact>
</mgrwt>
</event>
<event>
 6    1  0.2238133E-007  0.1944276E+04  0.7818608E-02  0.8633126E-01
         -2   -1    0    0    0  501 -0.00000000000E+00  0.00000000000E+00  0.59504056560E+03  0.59504056560E+03  0.00000000000E+00 0.  1.
          2   -1    0    0  501    0  0.00000000000E+00 -0.00000000000E+00 -0.15882155639E+04  0.15882155639E+04  0.00000000000E+00 0. -1.
         23    2    1    2    0    0  0.27976525620E+03  0.75384830219E+02 -0.15369213022E+04  0.15671299134E+04  0.99083829194E+02 0.  0.
         11    1    3    3    0    0  0.19263633787E+03  0.80958767826E+02 -0.88197714824E+03  0.90639217272E+03  0.00000000000E+00 0. -1.
        -11    1    3    3    0    0  0.87128918339E+02 -0.55739376066E+01 -0.65494415392E+03  0.66073774067E+03  0.00000000000E+00 0.  1.
         22    1    1    2    0    0 -0.27976525620E+03 -0.75384830219E+02  0.54374630387E+03  0.61612621611E+03  0.00000000000E+00 0.  1.
<mgrwt>
<rscale>  0 0.19442764E+04</rscale>
<asrwt>0</asrwt>
<pdfrwt beam="1">  1        2 0.24434086E+00 0.19442764E+04</pdfrwt>
<pdfrwt beam="2">  1       -2 0.91544701E-01 0.19442764E+04</pdfrwt>
<totfact> 0.10736291E+01</totfact>
</mgrwt>
</event>
<event>
 6    1  0.2238133E-007  0.2294426E+04  0.7818608E-02  0.8480122E-01
         -2   -1    0    0    0  501 -0.00000000000E+00  0.00000000000E+00  0.87713026770E+03  0.87713026770E+03  0.00000000000E+00 0.  1.
          2   -1    0    0  501    0  0.00000000000E+00 -0.00000000000E+00 -0.15004582035E+04  0.15004582035E+04  0.00000000000E+00 0. -1.
         23    2    1    2    0    0 -0.83101959508E+03  0.76287385937E+03 -0.10272350070E+03  0.11351718460E+04  0.74114166466E+02 0.  0.
         11    1    3    3    0    0 -0.44968974114E+03  0.40593880049E+03 -0.18389085782E+02  0.60609020080E+03  0.00000000000E+00 0. -1.
        -11    1    3    3    0    0 -0.38132985394E+03  0.35693505889E+03 -0.84334414916E+02  0.52908164522E+03  0.00000000000E+00 0.  1.
         22    1    1    2    0    0  0.83101959508E+03 -0.76287385937E+03 -0.52060443515E+03  0.12424166252E+04  0.00000000000E+00 0.  1.
<mgrwt>
<rscale>  0 0.22944257E+04</rscale>
<asrwt>0</asrwt>
<pdfrwt beam="1">  1        2 0.23083972E+00 0.22944257E+04</pdfrwt>
<pdfrwt beam="2">  1       -2 0.13494312E+00 0.22944257E+04</pdfrwt>
<totfact> 0.45452777E+00</totfact>
</mgrwt>
</event>
<event>
 6    1  0.2238133E-007  0.1578225E+04  0.7818608E-02  0.8834038E-01
          2   -1    0    0  501    0  0.00000000000E+00  0.00000000000E+00  0.26451297419E+04  0.26451297419E+04  0.00000000000E+00 0. -1.
         -2   -1    0    0    0  501 -0.00000000000E+00 -0.00000000000E+00 -0.23541312676E+03  0.23541312676E+03  0.00000000000E+00 0.  1.
         23    2    1    2    0    0  0.13088729261E+03 -0.77334728064E+03  0.11038715703E+04  0.13572474997E+04  0.91601484673E+02 0.  0.
         13    1    3    3    0    0  0.17769273526E+02 -0.37849595639E+03  0.52396018631E+03  0.64661365043E+03  0.00000000000E+00 0. -1.
        -13    1    3    3    0    0  0.11311801908E+03 -0.39485132425E+03  0.57991138394E+03  0.71063384927E+03  0.00000000000E+00 0.  1.
         22    1    1    2    0    0 -0.13088729261E+03  0.77334728064E+03  0.13058450448E+04  0.15232953689E+04  0.00000000000E+00 0. -1.
<mgrwt>
<rscale>  0 0.15782247E+04</rscale>
<asrwt>0</asrwt>
<pdfrwt beam="1">  1        2 0.40694302E+00 0.15782247E+04</pdfrwt>
<pdfrwt beam="2">  1       -2 0.36217406E-01 0.15782247E+04</pdfrwt>
<totfact> 0.19787110E+01</totfact>
</mgrwt>
</event>
<event>
 6    1  0.2238133E-007  0.4432707E+03  0.7818608E-02  0.1029748E+00
         -2   -1    0    0    0  501 -0.00000000000E+00  0.00000000000E+00  0.39116184401E+02  0.39116184401E+02  0.00000000000E+00 0.  1.
          2   -1    0    0  501    0  0.00000000000E+00 -0.00000000000E+00 -0.12558033785E+04  0.12558033785E+04  0.00000000000E+00 0. -1.
         23    2    1    2    0    0 -0.11084856516E+03 -0.28619933446E+02 -0.11564031343E+04  0.11655338107E+04  0.89968605908E+02 0.  0.
         13    1    3    3    0    0 -0.38727620995E+02 -0.50803337936E+02 -0.70283447817E+03  0.70573161434E+03  0.00000000000E+00 0. -1.
        -13    1    3    3    0    0 -0.72120944167E+02  0.22183404490E+02 -0.45356865610E+03  0.45980219641E+03  0.00000000000E+00 0.  1.
         22    1    1    2    0    0  0.11084856516E+03  0.28619933446E+02 -0.60284059806E+02  0.12938575214E+03  0.00000000000E+00 0.  1.
<mgrwt>
<rscale>  0 0.44327074E+03</rscale>
<asrwt>0</asrwt>
<pdfrwt beam="1">  1        2 0.19320052E+00 0.44327074E+03</pdfrwt>
<pdfrwt beam="2">  1       -2 0.60178747E-02 0.44327074E+03</pdfrwt>
<totfact> 0.27386655E+03</totfact>
</mgrwt>
</event>
<event>
 6    1  0.2238133E-007  0.1441294E+04  0.7818608E-02  0.8924459E-01
         -2   -1    0    0    0  501 -0.00000000000E+00  0.00000000000E+00  0.34164178009E+03  0.34164178009E+03  0.00000000000E+00 0.  1.
          2   -1    0    0  501    0  0.00000000000E+00 -0.00000000000E+00 -0.15201060601E+04  0.15201060601E+04  0.00000000000E+00 0. -1.
         23    2    1    2    0    0 -0.18334706408E+03 -0.10362860813E+02 -0.14881161112E+04  0.15017370190E+04  0.83671854072E+02 0.  0.
         11    1    3    3    0    0 -0.87147964006E+02 -0.25835829368E+02 -0.99115345460E+03  0.99531272888E+03  0.00000000000E+00 0. -1.
        -11    1    3    3    0    0 -0.96199100074E+02  0.15472968555E+02 -0.49696265658E+03  0.50642429014E+03  0.00000000000E+00 0.  1.
         22    1    1    2    0    0  0.18334706408E+03  0.10362860813E+02  0.30965183119E+03  0.36001082116E+03  0.00000000000E+00 0.  1.
<mgrwt>
<rscale>  0 0.14412935E+04</rscale>
<asrwt>0</asrwt>
<pdfrwt beam="1">  1        2 0.23386247E+00 0.14412935E+04</pdfrwt>
<pdfrwt beam="2">  1       -2 0.52560273E-01 0.14412935E+04</pdfrwt>
<totfact> 0.40978744E+01</totfact>
</mgrwt>
</event>
<event>
 6    1  0.2238133E-007  0.2385524E+04  0.7818608E-02  0.8444943E-01
          2   -1    0    0  501    0  0.00000000000E+00  0.00000000000E+00  0.18488214959E+04  0.18488214959E+04  0.00000000000E+00 0. -1.
         -2   -1    0    0    0  501 -0.00000000000E+00 -0.00000000000E+00 -0.76950676757E+03  0.76950676757E+03  0.00000000000E+00 0.  1.
         23    2    1    2    0    0  0.26710705481E+02  0.30803046221E+03  0.18029012920E+04  0.18314523249E+04  0.90378771605E+02 0.  0.
         13    1    3    3    0    0  0.39309714924E+02  0.18711075235E+03  0.13045346351E+04  0.13184711986E+04  0.00000000000E+00 0. -1.
        -13    1    3    3    0    0 -0.12599009443E+02  0.12091970986E+03  0.49836665687E+03  0.51298112631E+03  0.00000000000E+00 0.  1.
         22    1    1    2    0    0 -0.26710705481E+02 -0.30803046221E+03 -0.72358656370E+03  0.78687593851E+03  0.00000000000E+00 0.  1.
<mgrwt>
<rscale>  0 0.23855236E+04</rscale>
<asrwt>0</asrwt>
<pdfrwt beam="1">  1        2 0.28443407E+00 0.23855236E+04</pdfrwt>
<pdfrwt beam="2">  1       -2 0.11838566E+00 0.23855236E+04</pdfrwt>
<totfact> 0.40083606E+00</totfact>
</mgrwt>
</event>
<event>
 6    1  0.2238133E-007  0.2113298E+04  0.7818608E-02  0.8555408E-01
         -2   -1    0    0    0  501 -0.00000000000E+00  0.00000000000E+00  0.16623926954E+04  0.16623926954E+04  0.00000000000E+00 0.  1.
          2   -1    0    0  501    0  0.00000000000E+00 -0.00000000000E+00 -0.67162633623E+03  0.67162633623E+03  0.00000000000E+00 0. -1.
         23    2    1    2    0    0 -0.91680593671E+03 -0.28988149234E+03  0.97469367205E+03  0.13723419879E+04  0.93436461002E+02 0.  0.
         13    1    3    3    0    0 -0.39805914143E+03 -0.17352584023E+03  0.45205044502E+03  0.62682685181E+03  0.00000000000E+00 0.  1.
        -13    1    3    3    0    0 -0.51874679529E+03 -0.11635565212E+03  0.52264322703E+03  0.74551513610E+03  0.00000000000E+00 0. -1.
         22    1    1    2    0    0  0.91680593671E+03  0.28988149234E+03  0.16072687147E+02  0.96167704374E+03  0.00000000000E+00 0. -1.
<mgrwt>
<rscale>  0 0.21132976E+04</rscale>
<asrwt>0</asrwt>
<pdfrwt beam="1">  1        2 0.10332713E+00 0.21132976E+04</pdfrwt>
<pdfrwt beam="2">  1       -2 0.25575272E+00 0.21132976E+04</pdfrwt>
<totfact> 0.23536461E+00</totfact>
</mgrwt>
</event>
<event>
 6    1  0.2238133E-007  0.1052167E+04  0.7818608E-02  0.9253110E-01
          2   -1    0    0  501    0  0.00000000000E+00  0.00000000000E+00  0.14578663785E+04  0.14578663785E+04  0.00000000000E+00 0. -1.
         -2   -1    0    0    0  501 -0.00000000000E+00 -0.00000000000E+00 -0.18984154101E+03  0.18984154101E+03  0.00000000000E+00 0.  1.
         23    2    1    2    0    0  0.24674615834E+03  0.36709027142E+02  0.13570646352E+04  0.13828319016E+04  0.91479093330E+02 0.  0.
         11    1    3    3    0    0  0.32148481739E+02 -0.66848048050E+01  0.38587120797E+03  0.38726580102E+03  0.00000000000E+00 0. -1.
        -11    1    3    3    0    0  0.21459767660E+03  0.43393831947E+02  0.97119342722E+03  0.99556610053E+03  0.00000000000E+00 0.  1.
         22    1    1    2    0    0 -0.24674615834E+03 -0.36709027142E+02 -0.89039797680E+02  0.26487601798E+03  0.00000000000E+00 0.  1.
<mgrwt>
<rscale>  0 0.10521665E+04</rscale>
<asrwt>0</asrwt>
<pdfrwt beam="1">  1        2 0.22428713E+00 0.10521665E+04</pdfrwt>
<pdfrwt beam="2">  1       -2 0.29206392E-01 0.10521665E+04</pdfrwt>
<totfact> 0.14379809E+02</totfact>
</mgrwt>
</event>
<event>
 6    1  0.2238133E-007  0.1323871E+04  0.7818608E-02  0.9010847E-01
          2   -1    0    0  501    0  0.00000000000E+00  0.00000000000E+00  0.13077116017E+04  0.13077116017E+04  0.00000000000E+00 0. -1.
         -2   -1    0    0    0  501 -0.00000000000E+00 -0.00000000000E+00 -0.33505737347E+03  0.33505737347E+03  0.00000000000E+00 0.  1.
         23    2    1    2    0    0 -0.47698154226E+03 -0.21646188298E+03  0.98472668840E+03  0.11188292050E+04  0.87891982773E+02 0.  0.
         13    1    3    3    0    0 -0.20306928625E+03 -0.96836250580E+02  0.51600667686E+03  0.56291854207E+03  0.00000000000E+00 0. -1.
        -13    1    3    3    0    0 -0.27391225601E+03 -0.11962563240E+03  0.46872001154E+03  0.55591066291E+03  0.00000000000E+00 0.  1.
         22    1    1    2    0    0  0.47698154226E+03  0.21646188298E+03 -0.12072460217E+02  0.52393977014E+03  0.00000000000E+00 0.  1.
<mgrwt>
<rscale>  0 0.13238707E+04</rscale>
<asrwt>0</asrwt>
<pdfrwt beam="1">  1        2 0.20118640E+00 0.13238707E+04</pdfrwt>
<pdfrwt beam="2">  1       -2 0.51547289E-01 0.13238707E+04</pdfrwt>
<totfact> 0.56905982E+01</totfact>
</mgrwt>
</event>
<event>
 6    1  0.2238133E-007  0.4309971E+04  0.7818608E-02  0.7944777E-01
          2   -1    0    0  501    0  0.00000000000E+00  0.00000000000E+00  0.28188441591E+04  0.28188441591E+04  0.00000000000E+00 0. -1.
         -2   -1    0    0    0  501 -0.00000000000E+00 -0.00000000000E+00 -0.16474705254E+04  0.16474705254E+04  0.00000000000E+00 0.  1.
         23    2    1    2    0    0 -0.20669049553E+03 -0.38284560719E+03  0.27720401686E+04  0.28075726683E+04  0.94688286617E+02 0.  0.
         13    1    3    3    0    0 -0.17819109490E+03 -0.28000270963E+03  0.18679838779E+04  0.18972394028E+04  0.00000000000E+00 0. -1.
        -13    1    3    3    0    0 -0.28499400632E+02 -0.10284289756E+03  0.90405629078E+03  0.91033326552E+03  0.00000000000E+00 0.  1.
         22    1    1    2    0    0  0.20669049553E+03  0.38284560719E+03 -0.16006665349E+04  0.16587420161E+04  0.00000000000E+00 0.  1.
<mgrwt>
<rscale>  0 0.43099711E+04</rscale>
<asrwt>0</asrwt>
<pdfrwt beam="1">  1        2 0.43366833E+00 0.43099711E+04</pdfrwt>
<pdfrwt beam="2">  1       -2 0.25345700E+00 0.43099711E+04</pdfrwt>
<totfact> 0.10601710E-01</totfact>
</mgrwt>
</event>
<event>
 6    1  0.2238133E-007  0.3450474E+04  0.7818608E-02  0.8125628E-01
         -2   -1    0    0    0  501 -0.00000000000E+00  0.00000000000E+00  0.16980088842E+04  0.16980088842E+04  0.00000000000E+00 0.  1.
          2   -1    0    0  501    0  0.00000000000E+00 -0.00000000000E+00 -0.17529020905E+04  0.17529020905E+04  0.00000000000E+00 0. -1.
         23    2    1    2    0    0 -0.97411767992E+03 -0.13255210760E+04  0.48871239843E+03  0.17184507498E+04  0.91223867058E+02 0.  0.
         13    1    3    3    0    0 -0.75218694731E+03 -0.10513734103E+04  0.41868472783E+03  0.13588480978E+04  0.00000000000E+00 0.  1.
        -13    1    3    3    0    0 -0.22193073261E+03 -0.27414766572E+03  0.70027670593E+02  0.35960265203E+03  0.00000000000E+00 0. -1.
         22    1    1    2    0    0  0.97411767992E+03  0.13255210760E+04 -0.54360560468E+03  0.17324602249E+04  0.00000000000E+00 0. -1.
<mgrwt>
<rscale>  0 0.34504744E+04</rscale>
<asrwt>0</asrwt>
<pdfrwt beam="1">  1        2 0.26967725E+00 0.34504744E+04</pdfrwt>
<pdfrwt beam="2">  1       -2 0.26123213E+00 0.34504744E+04</pdfrwt>
<totfact> 0.41460586E-01</totfact>
</mgrwt>
</event>
<event>
 6    1  0.2238133E-007  0.3831905E+04  0.7818608E-02  0.8039343E-01
          2   -1    0    0  501    0  0.00000000000E+00  0.00000000000E+00  0.26282813795E+04  0.26282813795E+04  0.00000000000E+00 0. -1.
         -2   -1    0    0    0  501 -0.00000000000E+00 -0.00000000000E+00 -0.13966820798E+04  0.13966820798E+04  0.00000000000E+00 0.  1.
         23    2    1    2    0    0  0.24839685197E+03 -0.10222912094E+02  0.26104864084E+04  0.26238442058E+04  0.90075657812E+02 0.  0.
         13    1    3    3    0    0  0.19584947175E+03  0.33335873937E+01  0.23256434227E+04  0.23338777728E+04  0.00000000000E+00 0. -1.
        -13    1    3    3    0    0  0.52547380221E+02 -0.13556499488E+02  0.28484298564E+03  0.28996643308E+03  0.00000000000E+00 0.  1.
         22    1    1    2    0    0 -0.24839685197E+03  0.10222912094E+02 -0.13788871087E+04  0.14011192535E+04  0.00000000000E+00 0.  1.
<mgrwt>
<rscale>  0 0.38319048E+04</rscale>
<asrwt>0</asrwt>
<pdfrwt beam="1">  1        2 0.40435098E+00 0.38319048E+04</pdfrwt>
<pdfrwt beam="2">  1       -2 0.21487417E+00 0.38319048E+04</pdfrwt>
<totfact> 0.24952288E-01</totfact>
</mgrwt>
</event>
<event>
 6    1  0.2238133E-007  0.3168281E+04  0.7818608E-02  0.8197245E-01
          1   -1    0    0  501    0  0.00000000000E+00  0.00000000000E+00  0.16508338148E+04  0.16508338148E+04  0.00000000000E+00 0. -1.
         -1   -1    0    0    0  501 -0.00000000000E+00 -0.00000000000E+00 -0.15201414720E+04  0.15201414720E+04  0.00000000000E+00 0.  1.
         23    2    1    2    0    0  0.77838292110E+03 -0.13476901262E+04  0.35215370862E+03  0.15989721746E+04  0.10271870509E+03 0.  0.
         13    1    3    3    0    0  0.52293059192E+03 -0.92918164354E+03  0.28834643736E+03  0.11045264137E+04  0.00000000000E+00 0.  1.
        -13    1    3    3    0    0  0.25545232918E+03 -0.41850848269E+03  0.63807271262E+02  0.49444576086E+03  0.00000000000E+00 0. -1.
         22    1    1    2    0    0 -0.77838292110E+03  0.13476901262E+04 -0.22146136588E+03  0.15720031122E+04  0.00000000000E+00 0.  1.
<mgrwt>
<rscale>  0 0.31682809E+04</rscale>
<asrwt>0</asrwt>
<pdfrwt beam="1">  1        1 0.25397443E+00 0.31682809E+04</pdfrwt>
<pdfrwt beam="2">  1       -1 0.23386792E+00 0.31682809E+04</pdfrwt>
<totfact> 0.38443535E-01</totfact>
</mgrwt>
</event>
<event>
 6    1  0.2238133E-007  0.3192536E+04  0.7818608E-02  0.8190791E-01
         -2   -1    0    0    0  501 -0.00000000000E+00  0.00000000000E+00  0.13751630319E+04  0.13751630319E+04  0.00000000000E+00 0.  1.
          2   -1    0    0  501    0  0.00000000000E+00 -0.00000000000E+00 -0.18529234247E+04  0.18529234247E+04  0.00000000000E+00 0. -1.
         23    2    1    2    0    0 -0.71006443861E+03 -0.93344848551E+03  0.85389287829E+03  0.14535955391E+04  0.91045930989E+02 0.  0.
         11    1    3    3    0    0 -0.27351854909E+03 -0.40716539254E+03  0.31437425332E+03  0.58260383172E+03  0.00000000000E+00 0. -1.
        -11    1    3    3    0    0 -0.43654588952E+03 -0.52628309297E+03  0.53951862497E+03  0.87099170736E+03  0.00000000000E+00 0.  1.
         22    1    1    2    0    0  0.71006443861E+03  0.93344848551E+03 -0.13316532711E+04  0.17744909176E+04  0.00000000000E+00 0. -1.
<mgrwt>
<rscale>  0 0.31925362E+04</rscale>
<asrwt>0</asrwt>
<pdfrwt beam="1">  1        2 0.28506514E+00 0.31925362E+04</pdfrwt>
<pdfrwt beam="2">  1       -2 0.21156354E+00 0.31925362E+04</pdfrwt>
<totfact> 0.76032113E-01</totfact>
</mgrwt>
</event>
<event>
 6    1  0.2238133E-007  0.1751565E+04  0.7818608E-02  0.8732489E-01
         -1   -1    0    0    0  501 -0.00000000000E+00  0.00000000000E+00  0.40173084339E+03  0.40173084339E+03  0.00000000000E+00 0.  1.
          1   -1    0    0  501    0  0.00000000000E+00 -0.00000000000E+00 -0.19092255243E+04  0.19092255243E+04  0.00000000000E+00 0. -1.
         23    2    1    2    0    0 -0.59281736064E+03 -0.75398126114E+02 -0.15962714185E+04  0.17068052196E+04  0.89354998255E+02 0.  0.
         11    1    3    3    0    0 -0.47449440519E+03 -0.50801824095E+02 -0.11657305900E+04  0.12596243783E+04  0.00000000000E+00 0.  1.
        -11    1    3    3    0    0 -0.11832295545E+03 -0.24596302018E+02 -0.43054082855E+03  0.44718084139E+03  0.00000000000E+00 0. -1.
         22    1    1    2    0    0  0.59281736064E+03  0.75398126114E+02  0.88776737655E+02  0.60415114801E+03  0.00000000000E+00 0.  1.
<mgrwt>
<rscale>  0 0.17515648E+04</rscale>
<asrwt>0</asrwt>
<pdfrwt beam="1">  1        1 0.29372701E+00 0.17515648E+04</pdfrwt>
<pdfrwt beam="2">  1       -1 0.61804744E-01 0.17515648E+04</pdfrwt>
<totfact> 0.86407580E+00</totfact>
</mgrwt>
</event>
<event>
 6    1  0.2238133E-007  0.1046812E+04  0.7818608E-02  0.9258641E-01
          2   -1    0    0  501    0  0.00000000000E+00  0.00000000000E+00  0.10579997166E+04  0.10579997166E+04  0.00000000000E+00 0. -1.
         -2   -1    0    0    0  501 -0.00000000000E+00 -0.00000000000E+00 -0.25893577459E+03  0.25893577459E+03  0.00000000000E+00 0.  1.
         23    2    1    2    0    0 -0.26411098761E+03 -0.14628008877E+03 -0.12882927980E+03  0.34115974379E+03  0.92954339866E+02 0.  0.
         11    1    3    3    0    0 -0.16794620309E+03 -0.12606903235E+03 -0.12151644654E+03  0.24262228840E+03  0.00000000000E+00 0. -1.
        -11    1    3    3    0    0 -0.96164784519E+02 -0.20211056427E+02 -0.73128332569E+01  0.98537455385E+02  0.00000000000E+00 0.  1.
         22    1    1    2    0    0  0.26411098761E+03  0.14628008877E+03  0.92789322183E+03  0.97577574742E+03  0.00000000000E+00 0. -1.
<mgrwt>
<rscale>  0 0.10468123E+04</rscale>
<asrwt>0</asrwt>
<pdfrwt beam="1">  1        2 0.16276918E+00 0.10468123E+04</pdfrwt>
<pdfrwt beam="2">  1       -2 0.39836274E-01 0.10468123E+04</pdfrwt>
<totfact> 0.13726822E+02</totfact>
</mgrwt>
</event>
<event>
 6    1  0.2238133E-007  0.4247962E+04  0.7818608E-02  0.7956311E-01
         -2   -1    0    0    0  501 -0.00000000000E+00  0.00000000000E+00  0.15977316896E+04  0.15977316896E+04  0.00000000000E+00 0.  1.
          2   -1    0    0  501    0  0.00000000000E+00 -0.00000000000E+00 -0.28235628778E+04  0.28235628778E+04  0.00000000000E+00 0. -1.
         23    2    1    2    0    0  0.11928458179E+04 -0.13651446657E+04  0.53771299531E+03  0.18921466495E+04  0.67694713237E+02 0.  0.
         13    1    3    3    0    0  0.14794413324E+03 -0.15280514517E+03  0.82995879903E+02  0.22830942826E+03  0.00000000000E+00 0. -1.
        -13    1    3    3    0    0  0.10449016847E+04 -0.12123395205E+04  0.45471711541E+03  0.16638372212E+04  0.00000000000E+00 0.  1.
         22    1    1    2    0    0 -0.11928458179E+04  0.13651446657E+04 -0.17635441836E+04  0.25291479180E+04  0.00000000000E+00 0. -1.
<mgrwt>
<rscale>  0 0.42479623E+04</rscale>
<asrwt>0</asrwt>
<pdfrwt beam="1">  1        2 0.43439428E+00 0.42479623E+04</pdfrwt>
<pdfrwt beam="2">  1       -2 0.24580488E+00 0.42479623E+04</pdfrwt>
<totfact> 0.11797275E-01</totfact>
</mgrwt>
</event>
<event>
 6    1  0.2576957E-007  0.3293253E+04  0.7818608E-02  0.8164614E-01
          2   -1    0    0  501    0  0.00000000000E+00  0.00000000000E+00  0.16760103786E+04  0.16760103786E+04  0.00000000000E+00 0. -1.
         -2   -1    0    0    0  501 -0.00000000000E+00 -0.00000000000E+00 -0.16177575573E+04  0.16177575573E+04  0.00000000000E+00 0.  1.
         23    2    1    2    0    0  0.98672334390E+03 -0.10541226091E+04 -0.75980685260E+03  0.16342441902E+04  0.93006385325E+02 0.  0.
         11    1    3    3    0    0  0.22218258422E+03 -0.22838434273E+03 -0.21156536192E+03  0.38247145135E+03  0.00000000000E+00 0.  1.
        -11    1    3    3    0    0  0.76454075968E+03 -0.82573826634E+03 -0.54824149068E+03  0.12517727389E+04  0.00000000000E+00 0. -1.
         22    1    1    2    0    0 -0.98672334390E+03  0.10541226091E+04  0.81805967386E+03  0.16595237456E+04  0.00000000000E+00 0. -1.
<mgrwt>
<rscale>  0 0.32932528E+04</rscale>
<asrwt>0</asrwt>
<pdfrwt beam="1">  1        2 0.25784775E+00 0.32932528E+04</pdfrwt>
<pdfrwt beam="2">  1       -2 0.24888578E+00 0.32932528E+04</pdfrwt>
<totfact> 0.55177238E-01</totfact>
</mgrwt>
</event>
<event>
 6    1  0.2238133E-007  0.1990157E+04  0.7818608E-02  0.8611236E-01
          2   -1    0    0  501    0  0.00000000000E+00  0.00000000000E+00  0.24112105539E+04  0.24112105539E+04  0.00000000000E+00 0. -1.
         -2   -1    0    0    0  501 -0.00000000000E+00 -0.00000000000E+00 -0.41065739189E+03  0.41065739189E+03  0.00000000000E+00 0.  1.
         23    2    1    2    0    0 -0.26730950579E+03 -0.52845192392E+03 -0.12819901920E+03  0.61227484823E+03  0.87918675361E+02 0.  0.
         11    1    3    3    0    0 -0.93304020962E+02 -0.26457501671E+03 -0.34891162978E+02  0.28270651398E+03  0.00000000000E+00 0.  1.
        -11    1    3    3    0    0 -0.17400548483E+03 -0.26387690721E+03 -0.93307856221E+02  0.32956833425E+03  0.00000000000E+00 0. -1.
         22    1    1    2    0    0  0.26730950579E+03  0.52845192392E+03  0.21287521812E+04  0.22095930976E+04  0.00000000000E+00 0. -1.
<mgrwt>
<rscale>  0 0.19901572E+04</rscale>
<asrwt>0</asrwt>
<pdfrwt beam="1">  1        2 0.37095546E+00 0.19901572E+04</pdfrwt>
<pdfrwt beam="2">  1       -2 0.63178062E-01 0.19901572E+04</pdfrwt>
<totfact> 0.84545561E+00</totfact>
</mgrwt>
</event>
<event>
 6    1  0.2238133E-007  0.1503690E+04  0.7818608E-02  0.8882002E-01
          2   -1    0    0  501    0  0.00000000000E+00  0.00000000000E+00  0.10501893840E+04  0.10501893840E+04  0.00000000000E+00 0. -1.
         -2   -1    0    0    0  501 -0.00000000000E+00 -0.00000000000E+00 -0.53825651307E+03  0.53825651307E+03  0.00000000000E+00 0.  1.
         23    2    1    2    0    0 -0.20138440025E+03  0.63384502710E+03 -0.11116450606E+03  0.67709221367E+03  0.61490839643E+02 0.  0.
         11    1    3    3    0    0 -0.11052023864E+03  0.36657631035E+03 -0.33646119672E+02  0.38435006938E+03  0.00000000000E+00 0. -1.
        -11    1    3    3    0    0 -0.90864161617E+02  0.26726871675E+03 -0.77518386384E+02  0.29274214430E+03  0.00000000000E+00 0.  1.
         22    1    1    2    0    0  0.20138440025E+03 -0.63384502710E+03  0.62309737701E+03  0.91135368342E+03  0.00000000000E+00 0. -1.
<mgrwt>
<rscale>  0 0.15036905E+04</rscale>
<asrwt>0</asrwt>
<pdfrwt beam="1">  1        2 0.16156760E+00 0.15036905E+04</pdfrwt>
<pdfrwt beam="2">  1       -2 0.82808695E-01 0.15036905E+04</pdfrwt>
<totfact> 0.28908792E+01</totfact>
</mgrwt>
</event>
<event>
 6    1  0.2238133E-007  0.5100035E+04  0.7818608E-02  0.7813258E-01
          2   -1    0    0  501    0  0.00000000000E+00  0.00000000000E+00  0.29270159671E+04  0.29270159671E+04  0.00000000000E+00 0. -1.
         -2   -1    0    0    0  501 -0.00000000000E+00 -0.00000000000E+00 -0.22215766273E+04  0.22215766273E+04  0.00000000000E+00 0.  1.
         23    2    1    2    0    0  0.20685630769E+04 -0.11117041887E+04  0.13542072270E+04  0.27122553480E+04  0.87249369454E+02 0.  0.
         13    1    3    3    0    0  0.10531739281E+04 -0.53341690864E+03  0.71848350384E+03  0.13820012542E+04  0.00000000000E+00 0. -1.
        -13    1    3    3    0    0  0.10153891488E+04 -0.57828728009E+03  0.63572372316E+03  0.13302540938E+04  0.00000000000E+00 0.  1.
         22    1    1    2    0    0 -0.20685630769E+04  0.11117041887E+04 -0.64876788719E+03  0.24363372464E+04  0.00000000000E+00 0. -1.
<mgrwt>
<rscale>  0 0.51000354E+04</rscale>
<asrwt>0</asrwt>
<pdfrwt beam="1">  1        2 0.45031015E+00 0.51000354E+04</pdfrwt>
<pdfrwt beam="2">  1       -2 0.34178102E+00 0.51000354E+04</pdfrwt>
<totfact> 0.24464595E-02</totfact>
</mgrwt>
</event>
<event>
 6    1  0.2238133E-007  0.5863424E+03  0.7818608E-02  0.9934153E-01
         -2   -1    0    0    0  501 -0.00000000000E+00  0.00000000000E+00  0.18589671840E+03  0.18589671840E+03  0.00000000000E+00 0.  1.
          2   -1    0    0  501    0  0.00000000000E+00 -0.00000000000E+00 -0.46235002992E+03  0.46235002992E+03  0.00000000000E+00 0. -1.
         23    2    1    2    0    0 -0.22916771984E+03  0.76648425110E+02 -0.31099211101E+03  0.40414481561E+03  0.90686900849E+02 0.  0.
         13    1    3    3    0    0 -0.20571982908E+03  0.88852824323E+02 -0.30234013891E+03  0.37633101395E+03  0.00000000000E+00 0. -1.
        -13    1    3    3    0    0 -0.23447890761E+02 -0.12204399212E+02 -0.86519720944E+01  0.27813801653E+02  0.00000000000E+00 0.  1.
         22    1    1    2    0    0  0.22916771984E+03 -0.76648425110E+02  0.34538799481E+02  0.24410193272E+03  0.00000000000E+00 0.  1.
<mgrwt>
<rscale>  0 0.58634240E+03</rscale>
<asrwt>0</asrwt>
<pdfrwt beam="1">  1        2 0.71130773E-01 0.58634240E+03</pdfrwt>
<pdfrwt beam="2">  1       -2 0.28599495E-01 0.58634240E+03</pdfrwt>
<totfact> 0.75914766E+02</totfact>
</mgrwt>
</event>
<event>
 6    1  0.2238133E-007  0.1236376E+04  0.7818608E-02  0.9081599E-01
          2   -1    0    0  501    0  0.00000000000E+00  0.00000000000E+00  0.15684694546E+04  0.15684694546E+04  0.00000000000E+00 0. -1.
         -2   -1    0    0    0  501 -0.00000000000E+00 -0.00000000000E+00 -0.24364922704E+03  0.24364922704E+03  0.00000000000E+00 0.  1.
         23    2    1    2    0    0  0.37181645014E+03  0.47625078676E+03  0.83249852060E+03  0.10327324182E+04  0.91761518615E+02 0.  0.
         13    1    3    3    0    0  0.27898048226E+03  0.30062547725E+03  0.60218609446E+03  0.72858347457E+03  0.00000000000E+00 0.  1.
        -13    1    3    3    0    0  0.92835967881E+02  0.17562530950E+03  0.23031242614E+03  0.30414894362E+03  0.00000000000E+00 0. -1.
         22    1    1    2    0    0 -0.37181645014E+03 -0.47625078676E+03  0.49232170695E+03  0.77938626343E+03  0.00000000000E+00 0.  1.
<mgrwt>
<rscale>  0 0.12363759E+04</rscale>
<asrwt>0</asrwt>
<pdfrwt beam="1">  1        2 0.24130299E+00 0.12363759E+04</pdfrwt>
<pdfrwt beam="2">  1       -2 0.37484498E-01 0.12363759E+04</pdfrwt>
<totfact> 0.76717623E+01</totfact>
</mgrwt>
</event>
<event>
 6    1  0.2238133E-007  0.2986260E+04  0.7818608E-02  0.8247665E-01
          2   -1    0    0  501    0  0.00000000000E+00  0.00000000000E+00  0.96152798170E+03  0.96152798170E+03  0.00000000000E+00 0. -1.
         -2   -1    0    0    0  501 -0.00000000000E+00 -0.00000000000E+00 -0.23186396281E+04  0.23186396281E+04  0.00000000000E+00 0.  1.
         23    2    1    2    0    0 -0.83246089986E+03  0.77579389200E+03  0.38029715899E+03  0.12032861328E+04  0.91783851879E+02 0.  0.
         11    1    3    3    0    0 -0.18985289950E+03  0.23198645543E+03  0.97313846217E+02  0.31516951569E+03  0.00000000000E+00 0. -1.
        -11    1    3    3    0    0 -0.64260800036E+03  0.54380743657E+03  0.28298331278E+03  0.88811661706E+03  0.00000000000E+00 0.  1.
         22    1    1    2    0    0  0.83246089986E+03 -0.77579389200E+03 -0.17374088054E+04  0.20768814771E+04  0.00000000000E+00 0.  1.
<mgrwt>
<rscale>  0 0.29862598E+04</rscale>
<asrwt>0</asrwt>
<pdfrwt beam="1">  1        2 0.14792738E+00 0.29862598E+04</pdfrwt>
<pdfrwt beam="2">  1       -2 0.35671379E+00 0.29862598E+04</pdfrwt>
<totfact> 0.32251029E-01</totfact>
</mgrwt>
</event>
<event>
 6    1  0.2238133E-007  0.2105764E+04  0.7818608E-02  0.8558708E-01
         -1   -1    0    0    0  501 -0.00000000000E+00  0.00000000000E+00  0.64015711453E+03  0.64015711453E+03  0.00000000000E+00 0.  1.
          1   -1    0    0  501    0  0.00000000000E+00 -0.00000000000E+00 -0.17317010624E+04  0.17317010624E+04  0.00000000000E+00 0. -1.
         23    2    1    2    0    0  0.44409933751E+03 -0.68731064370E+03 -0.12893352319E+04  0.15299902927E+04  0.94153135343E+02 0.  0.
         11    1    3    3    0    0  0.16895459531E+03 -0.34769148331E+03 -0.59707443956E+03  0.71128960995E+03  0.00000000000E+00 0.  1.
        -11    1    3    3    0    0  0.27514474219E+03 -0.33961916039E+03 -0.69226079237E+03  0.81870068274E+03  0.00000000000E+00 0. -1.
         22    1    1    2    0    0 -0.44409933751E+03  0.68731064370E+03  0.19779128404E+03  0.84186788427E+03  0.00000000000E+00 0.  1.
<mgrwt>
<rscale>  0 0.21057642E+04</rscale>
<asrwt>0</asrwt>
<pdfrwt beam="1">  1        1 0.26641555E+00 0.21057642E+04</pdfrwt>
<pdfrwt beam="2">  1       -1 0.98485709E-01 0.21057642E+04</pdfrwt>
<totfact> 0.41131525E+00</totfact>
</mgrwt>
</event>
<event>
 6    1  0.2238133E-007  0.3421696E+04  0.7818608E-02  0.8132602E-01
          2   -1    0    0  501    0  0.00000000000E+00  0.00000000000E+00  0.24423768042E+04  0.24423768042E+04  0.00000000000E+00 0. -1.
         -2   -1    0    0    0  501 -0.00000000000E+00 -0.00000000000E+00 -0.11984228238E+04  0.11984228238E+04  0.00000000000E+00 0.  1.
         23    2    1    2    0    0  0.28792878259E+03  0.12914087809E+04  0.17746367784E+04  0.22152247069E+04  0.85118644864E+02 0.  0.
         13    1    3    3    0    0  0.47377784419E+02  0.13379246676E+03  0.22529875175E+03  0.26627918837E+03  0.00000000000E+00 0.  1.
        -13    1    3    3    0    0  0.24055099817E+03  0.11576163142E+04  0.15493380266E+04  0.19489455186E+04  0.00000000000E+00 0. -1.
         22    1    1    2    0    0 -0.28792878259E+03 -0.12914087809E+04 -0.53068279799E+03  0.14255749210E+04  0.00000000000E+00 0.  1.
<mgrwt>
<rscale>  0 0.34216955E+04</rscale>
<asrwt>0</asrwt>
<pdfrwt beam="1">  1        2 0.37575028E+00 0.34216955E+04</pdfrwt>
<pdfrwt beam="2">  1       -2 0.18437274E+00 0.34216955E+04</pdfrwt>
<totfact> 0.52590627E-01</totfact>
</mgrwt>
</event>
<event>
 6    1  0.2238133E-007  0.1241149E+04  0.7818608E-02  0.9077582E-01
          2   -1    0    0  501    0  0.00000000000E+00  0.00000000000E+00  0.12392667255E+04  0.12392667255E+04  0.00000000000E+00 0. -1.
         -2   -1    0    0    0  501 -0.00000000000E+00 -0.00000000000E+00 -0.31075853940E+03  0.31075853940E+03  0.00000000000E+00 0.  1.
         23    2    1    2    0    0 -0.44038586968E+03  0.32702101512E+03  0.11341732739E+03  0.56755105838E+03  0.91478167739E+02 0.  0.
         11    1    3    3    0    0 -0.18581861788E+03  0.18742549894E+03  0.77111046934E+02  0.27495997884E+03  0.00000000000E+00 0. -1.
        -11    1    3    3    0    0 -0.25456725180E+03  0.13959551618E+03  0.36306280458E+02  0.29259107954E+03  0.00000000000E+00 0.  1.
         22    1    1    2    0    0  0.44038586968E+03 -0.32702101512E+03  0.81509085875E+03  0.98247420657E+03  0.00000000000E+00 0. -1.
<mgrwt>
<rscale>  0 0.12411490E+04</rscale>
<asrwt>0</asrwt>
<pdfrwt beam="1">  1        2 0.19065642E+00 0.12411490E+04</pdfrwt>
<pdfrwt beam="2">  1       -2 0.47809007E-01 0.12411490E+04</pdfrwt>
<totfact> 0.73193349E+01</totfact>
</mgrwt>
</event>
<event>
 6    1  0.2238133E-007  0.3932643E+04  0.7818608E-02  0.8018274E-01
         -2   -1    0    0    0  501 -0.00000000000E+00  0.00000000000E+00  0.17508122537E+04  0.17508122537E+04  0.00000000000E+00 0.  1.
          2   -1    0    0  501    0  0.00000000000E+00 -0.00000000000E+00 -0.22083577346E+04  0.22083577346E+04  0.00000000000E+00 0. -1.
         23    2    1    2    0    0 -0.12686752188E+04 -0.14038405729E+04  0.30577411861E+03  0.19188361981E+04  0.90163066117E+02 0.  0.
         11    1    3    3    0    0 -0.99580026840E+03 -0.10446690726E+04  0.23174956961E+03  0.14617316815E+04  0.00000000000E+00 0. -1.
        -11    1    3    3    0    0 -0.27287495044E+03 -0.35917150027E+03  0.74024549003E+02  0.45710451654E+03  0.00000000000E+00 0.  1.
         22    1    1    2    0    0  0.12686752188E+04  0.14038405729E+04 -0.76331959953E+03  0.20403337903E+04  0.00000000000E+00 0. -1.
<mgrwt>
<rscale>  0 0.39326428E+04</rscale>
<asrwt>0</asrwt>
<pdfrwt beam="1">  1        2 0.33974734E+00 0.39326428E+04</pdfrwt>
<pdfrwt beam="2">  1       -2 0.26935573E+00 0.39326428E+04</pdfrwt>
<totfact> 0.19817446E-01</totfact>
</mgrwt>
</event>
<event>
 6    1  0.2238133E-007  0.2423709E+04  0.7818608E-02  0.8430680E-01
         -2   -1    0    0    0  501 -0.00000000000E+00  0.00000000000E+00  0.12227810052E+04  0.12227810052E+04  0.00000000000E+00 0.  1.
          2   -1    0    0  501    0  0.00000000000E+00 -0.00000000000E+00 -0.12010253198E+04  0.12010253198E+04  0.00000000000E+00 0. -1.
         23    2    1    2    0    0 -0.95139379648E+03 -0.74508023188E+03  0.72957296664E+02  0.12142955508E+04  0.94319720065E+02 0.  0.
         11    1    3    3    0    0 -0.83072991447E+03 -0.64340762314E+03  0.31835174921E+02  0.10512369089E+04  0.00000000000E+00 0. -1.
        -11    1    3    3    0    0 -0.12066388201E+03 -0.10167260874E+03  0.41122121744E+02  0.16305864186E+03  0.00000000000E+00 0.  1.
         22    1    1    2    0    0  0.95139379648E+03  0.74508023188E+03 -0.51201611289E+02  0.12095107742E+04  0.00000000000E+00 0.  1.
<mgrwt>
<rscale>  0 0.24237087E+04</rscale>
<asrwt>0</asrwt>
<pdfrwt beam="1">  1        2 0.18477313E+00 0.24237087E+04</pdfrwt>
<pdfrwt beam="2">  1       -2 0.18812016E+00 0.24237087E+04</pdfrwt>
<totfact> 0.27089349E+00</totfact>
</mgrwt>
</event>
<event>
 6    1  0.2238133E-007  0.1311077E+04  0.7818608E-02  0.9020827E-01
          2   -1    0    0  501    0  0.00000000000E+00  0.00000000000E+00  0.63920840910E+03  0.63920840910E+03  0.00000000000E+00 0. -1.
         -2   -1    0    0    0  501 -0.00000000000E+00 -0.00000000000E+00 -0.67228573199E+03  0.67228573199E+03  0.00000000000E+00 0.  1.
         23    2    1    2    0    0  0.61066816148E+03  0.15926057610E+03 -0.18082949950E+03  0.66333502465E+03  0.95050052543E+02 0.  0.
         11    1    3    3    0    0  0.19592168442E+03  0.60987014978E+02 -0.14178804111E+02  0.20568364278E+03  0.00000000000E+00 0.  1.
        -11    1    3    3    0    0  0.41474647706E+03  0.98273561125E+02 -0.16665069539E+03  0.45765138186E+03  0.00000000000E+00 0. -1.
         22    1    1    2    0    0 -0.61066816148E+03 -0.15926057610E+03  0.14775217661E+03  0.64815911645E+03  0.00000000000E+00 0. -1.
<mgrwt>
<rscale>  0 0.13110770E+04</rscale>
<asrwt>0</asrwt>
<pdfrwt beam="1">  1        2 0.98339755E-01 0.13110770E+04</pdfrwt>
<pdfrwt beam="2">  1       -2 0.10342857E+00 0.13110770E+04</pdfrwt>
<totfact> 0.34271807E+01</totfact>
</mgrwt>
</event>
<event>
 6    1  0.2422303E-007  0.5185801E+04  0.7818608E-02  0.7800468E-01
         -2   -1    0    0    0  501 -0.00000000000E+00  0.00000000000E+00  0.21942992683E+04  0.21942992683E+04  0.00000000000E+00 0.  1.
          2   -1    0    0  501    0  0.00000000000E+00 -0.00000000000E+00 -0.30639093219E+04  0.30639093219E+04  0.00000000000E+00 0. -1.
         23    2    1    2    0    0 -0.13174660023E+04 -0.45488166619E+03  0.17809025455E+04  0.22635715445E+04  0.97510322920E+02 0.  0.
         11    1    3    3    0    0 -0.75160399172E+03 -0.25679774956E+03  0.93614876985E+03  0.12276922105E+04  0.00000000000E+00 0. -1.
        -11    1    3    3    0    0 -0.56586201058E+03 -0.19808391663E+03  0.84475377566E+03  0.10358793340E+04  0.00000000000E+00 0.  1.
         22    1    1    2    0    0  0.13174660023E+04  0.45488166619E+03 -0.26505125991E+04  0.29946370457E+04  0.00000000000E+00 0. -1.
<mgrwt>
<rscale>  0 0.51858014E+04</rscale>
<asrwt>0</asrwt>
<pdfrwt beam="1">  1        2 0.47137066E+00 0.51858014E+04</pdfrwt>
<pdfrwt beam="2">  1       -2 0.33758450E+00 0.51858014E+04</pdfrwt>
<totfact> 0.21180237E-02</totfact>
</mgrwt>
</event>
<event>
 6    1  0.2238133E-007  0.3497400E+04  0.7818608E-02  0.8114406E-01
          2   -1    0    0  501    0  0.00000000000E+00  0.00000000000E+00  0.24750725899E+04  0.24750725899E+04  0.00000000000E+00 0. -1.
         -2   -1    0    0    0  501 -0.00000000000E+00 -0.00000000000E+00 -0.12354999718E+04  0.12354999718E+04  0.00000000000E+00 0.  1.
         23    2    1    2    0    0 -0.23560759391E+03 -0.12666987410E+04 -0.63134431149E+03  0.14389284884E+04  0.10900879013E+03 0.  0.
         11    1    3    3    0    0 -0.76585236733E+02 -0.62287306709E+03 -0.26421247503E+03  0.68091437653E+03  0.00000000000E+00 0.  1.
        -11    1    3    3    0    0 -0.15902235718E+03 -0.64382567390E+03 -0.36713183646E+03  0.75801411187E+03  0.00000000000E+00 0. -1.
         22    1    1    2    0    0  0.23560759391E+03  0.12666987410E+04  0.18709169296E+04  0.22716440734E+04  0.00000000000E+00 0. -1.
<mgrwt>
<rscale>  0 0.34974002E+04</rscale>
<asrwt>0</asrwt>
<pdfrwt beam="1">  1        2 0.38078040E+00 0.34974002E+04</pdfrwt>
<pdfrwt beam="2">  1       -2 0.19007692E+00 0.34974002E+04</pdfrwt>
<totfact> 0.45787221E-01</totfact>
</mgrwt>
</event>
<event>
 6    1  0.2238133E-007  0.2451194E+04  0.7818608E-02  0.8420582E-01
         -2   -1    0    0    0  501 -0.00000000000E+00  0.00000000000E+00  0.14627171231E+04  0.14627171231E+04  0.00000000000E+00 0.  1.
          2   -1    0    0  501    0  0.00000000000E+00 -0.00000000000E+00 -0.10269160970E+04  0.10269160970E+04  0.00000000000E+00 0. -1.
         23    2    1    2    0    0 -0.11012016465E+03 -0.11417072807E+04 -0.21508460321E+03  0.11708178168E+04  0.94504011576E+02 0.  0.
         11    1    3    3    0    0 -0.71387851817E+02 -0.73215441281E+03 -0.18385468828E+03  0.75825382029E+03  0.00000000000E+00 0.  1.
        -11    1    3    3    0    0 -0.38732312829E+02 -0.40955286785E+03 -0.31229914929E+02  0.41256399650E+03  0.00000000000E+00 0. -1.
         22    1    1    2    0    0  0.11012016465E+03  0.11417072807E+04  0.65088562934E+03  0.13188154032E+04  0.00000000000E+00 0.  1.
<mgrwt>
<rscale>  0 0.24511938E+04</rscale>
<asrwt>0</asrwt>
<pdfrwt beam="1">  1        2 0.15798709E+00 0.24511938E+04</pdfrwt>
<pdfrwt beam="2">  1       -2 0.22503340E+00 0.24511938E+04</pdfrwt>
<totfact> 0.19910485E+00</totfact>
</mgrwt>
</event>
<event>
 6    1  0.2238133E-007  0.1354914E+04  0.7818608E-02  0.8987116E-01
          2   -1    0    0  501    0  0.00000000000E+00  0.00000000000E+00  0.18713919817E+04  0.18713919817E+04  0.00000000000E+00 0. -1.
         -2   -1    0    0    0  501 -0.00000000000E+00 -0.00000000000E+00 -0.24524425135E+03  0.24524425135E+03  0.00000000000E+00 0.  1.
         23    2    1    2    0    0 -0.32152553521E+03  0.21455253768E+03  0.16788153997E+04  0.17265268322E+04  0.11429039684E+03 0.  0.
         11    1    3    3    0    0 -0.79292607581E+02  0.88231433450E+02  0.71367018021E+03  0.72346197522E+03  0.00000000000E+00 0.  1.
        -11    1    3    3    0    0 -0.24223292763E+03  0.12632110423E+03  0.96514521953E+03  0.10030648570E+04  0.00000000000E+00 0. -1.
         22    1    1    2    0    0  0.32152553521E+03 -0.21455253768E+03 -0.52667669367E+02  0.39010940083E+03  0.00000000000E+00 0.  1.
<mgrwt>
<rscale>  0 0.13549142E+04</rscale>
<asrwt>0</asrwt>
<pdfrwt beam="1">  1        2 0.28790645E+00 0.13549142E+04</pdfrwt>
<pdfrwt beam="2">  1       -2 0.37729886E-01 0.13549142E+04</pdfrwt>
<totfact> 0.50987853E+01</totfact>
</mgrwt>
</event>
<event>
 6    1  0.2238133E-007  0.2192350E+04  0.7818608E-02  0.8521619E-01
         -2   -1    0    0    0  501 -0.00000000000E+00  0.00000000000E+00  0.68764033189E+03  0.68764033189E+03  0.00000000000E+00 0.  1.
          2   -1    0    0  501    0  0.00000000000E+00 -0.00000000000E+00 -0.17474242367E+04  0.17474242367E+04  0.00000000000E+00 0. -1.
         23    2    1    2    0    0  0.27223741468E+03  0.34711716883E+03 -0.16429813172E+04  0.17038171681E+04  0.94877787678E+02 0.  0.
         11    1    3    3    0    0  0.25064660116E+03  0.26079470970E+03 -0.13503241477E+04  0.13979316518E+04  0.00000000000E+00 0. -1.
        -11    1    3    3    0    0  0.21590813526E+02  0.86322459122E+02 -0.29265716952E+03  0.30588551624E+03  0.00000000000E+00 0.  1.
         22    1    1    2    0    0 -0.27223741468E+03 -0.34711716883E+03  0.58319741244E+03  0.73124740049E+03  0.00000000000E+00 0.  1.
<mgrwt>
<rscale>  0 0.21923498E+04</rscale>
<asrwt>0</asrwt>
<pdfrwt beam="1">  1        2 0.26883450E+00 0.21923498E+04</pdfrwt>
<pdfrwt beam="2">  1       -2 0.10579082E+00 0.21923498E+04</pdfrwt>
<totfact> 0.60941590E+00</totfact>
</mgrwt>
</event>
<event>
 6    1  0.2238133E-007  0.1259658E+04  0.7818608E-02  0.9062183E-01
          2   -1    0    0  501    0  0.00000000000E+00  0.00000000000E+00  0.11485911686E+04  0.11485911686E+04  0.00000000000E+00 0. -1.
         -2   -1    0    0    0  501 -0.00000000000E+00 -0.00000000000E+00 -0.34536595454E+03  0.34536595454E+03  0.00000000000E+00 0.  1.
         23    2    1    2    0    0  0.31441523887E+03 -0.24275666186E+03  0.97823815170E+03  0.10598865440E+04  0.92853999997E+02 0.  0.
         11    1    3    3    0    0  0.12948727171E+03 -0.14413326981E+03  0.54961066604E+03  0.58276344877E+03  0.00000000000E+00 0. -1.
        -11    1    3    3    0    0  0.18492796716E+03 -0.98623392049E+02  0.42862748566E+03  0.47712309519E+03  0.00000000000E+00 0.  1.
         22    1    1    2    0    0 -0.31441523887E+03  0.24275666186E+03 -0.17501293768E+03  0.43407057913E+03  0.00000000000E+00 0.  1.
<mgrwt>
<rscale>  0 0.12596575E+04</rscale>
<asrwt>0</asrwt>
<pdfrwt beam="1">  1        2 0.17670633E+00 0.12596575E+04</pdfrwt>
<pdfrwt beam="2">  1       -2 0.53133224E-01 0.12596575E+04</pdfrwt>
<totfact> 0.66767010E+01</totfact>
</mgrwt>
</event>
<event>
 6    1  0.2238133E-007  0.2915172E+04  0.7818608E-02  0.8268378E-01
          2   -1    0    0  501    0  0.00000000000E+00  0.00000000000E+00  0.29727352060E+04  0.29727352060E+04  0.00000000000E+00 0. -1.
         -2   -1    0    0    0  501 -0.00000000000E+00 -0.00000000000E+00 -0.71468102380E+03  0.71468102380E+03  0.00000000000E+00 0.  1.
         23    2    1    2    0    0  0.57935057732E+03  0.80244099016E+03 -0.22078698890E+03  0.10182942420E+04  0.92831216492E+02 0.  0.
         11    1    3    3    0    0  0.36471547552E+03  0.43085018726E+03 -0.11014873459E+03  0.57513651047E+03  0.00000000000E+00 0.  1.
        -11    1    3    3    0    0  0.21463510180E+03  0.37159080290E+03 -0.11063825430E+03  0.44315773156E+03  0.00000000000E+00 0. -1.
         22    1    1    2    0    0 -0.57935057732E+03 -0.80244099016E+03  0.24788411711E+04  0.26691219878E+04  0.00000000000E+00 0. -1.
<mgrwt>
<rscale>  0 0.29151723E+04</rscale>
<asrwt>0</asrwt>
<pdfrwt beam="1">  1        2 0.45734387E+00 0.29151723E+04</pdfrwt>
<pdfrwt beam="2">  1       -2 0.10995093E+00 0.29151723E+04</pdfrwt>
<totfact> 0.10261697E+00</totfact>
</mgrwt>
</event>
<event>
 6    1  0.2238133E-007  0.3880380E+04  0.7818608E-02  0.8029122E-01
          2   -1    0    0  501    0  0.00000000000E+00  0.00000000000E+00  0.23031254684E+04  0.23031254684E+04  0.00000000000E+00 0. -1.
         -2   -1    0    0    0  501 -0.00000000000E+00 -0.00000000000E+00 -0.16344469306E+04  0.16344469306E+04  0.00000000000E+00 0.  1.
         23    2    1    2    0    0  0.28728215289E+02  0.18292031847E+04 -0.31775052582E+03  0.18591470578E+04  0.93020345463E+02 0.  0.
         13    1    3    3    0    0 -0.15871890964E+02  0.83951831732E+03 -0.10913148296E+03  0.84673053719E+03  0.00000000000E+00 0.  1.
        -13    1    3    3    0    0  0.44600106252E+02  0.98968486738E+03 -0.20861904285E+03  0.10124165206E+04  0.00000000000E+00 0. -1.
         22    1    1    2    0    0 -0.28728215289E+02 -0.18292031847E+04  0.98642906358E+03  0.20784253412E+04  0.00000000000E+00 0. -1.
<mgrwt>
<rscale>  0 0.38803795E+04</rscale>
<asrwt>0</asrwt>
<pdfrwt beam="1">  1        2 0.35432699E+00 0.38803795E+04</pdfrwt>
<pdfrwt beam="2">  1       -2 0.25145337E+00 0.38803795E+04</pdfrwt>
<totfact> 0.22642333E-01</totfact>
</mgrwt>
</event>
<event>
 6    1  0.2238133E-007  0.4580292E+04  0.7818608E-02  0.7896729E-01
         -2   -1    0    0    0  501 -0.00000000000E+00  0.00000000000E+00  0.19822215779E+04  0.19822215779E+04  0.00000000000E+00 0.  1.
          2   -1    0    0  501    0  0.00000000000E+00 -0.00000000000E+00 -0.26459042464E+04  0.26459042464E+04  0.00000000000E+00 0. -1.
         23    2    1    2    0    0  0.99864202218E+02  0.13462074354E+04  0.15362184666E+04  0.20470771377E+04  0.91160914638E+02 0.  0.
         11    1    3    3    0    0  0.56430311518E+02  0.59852317689E+03  0.75050057850E+03  0.96159528476E+03  0.00000000000E+00 0. -1.
        -11    1    3    3    0    0  0.43433890700E+02  0.74768425856E+03  0.78571788812E+03  0.10854818529E+04  0.00000000000E+00 0.  1.
         22    1    1    2    0    0 -0.99864202218E+02 -0.13462074354E+04 -0.21999011352E+04  0.25810486866E+04  0.00000000000E+00 0. -1.
<mgrwt>
<rscale>  0 0.45802919E+04</rscale>
<asrwt>0</asrwt>
<pdfrwt beam="1">  1        2 0.40706219E+00 0.45802919E+04</pdfrwt>
<pdfrwt beam="2">  1       -2 0.30495717E+00 0.45802919E+04</pdfrwt>
<totfact> 0.63788947E-02</totfact>
</mgrwt>
</event>
<event>
 6    1  0.2238133E-007  0.3266607E+04  0.7818608E-02  0.8171445E-01
         -1   -1    0    0    0  501 -0.00000000000E+00  0.00000000000E+00  0.92732264809E+03  0.92732264809E+03  0.00000000000E+00 0.  1.
          1   -1    0    0  501    0  0.00000000000E+00 -0.00000000000E+00 -0.28767549981E+04  0.28767549981E+04  0.00000000000E+00 0. -1.
         23    2    1    2    0    0 -0.22204323685E+03  0.16575272168E+03 -0.28484821461E+04  0.28632972788E+04  0.88564137113E+02 0.  0.
         11    1    3    3    0    0 -0.14854755373E+03  0.14694549485E+03 -0.23212069387E+04  0.23305924154E+04  0.00000000000E+00 0.  1.
        -11    1    3    3    0    0 -0.73495683120E+02  0.18807226821E+02 -0.52727520737E+03  0.53270486344E+03  0.00000000000E+00 0. -1.
         22    1    1    2    0    0  0.22204323685E+03 -0.16575272168E+03  0.89904979610E+03  0.94078036738E+03  0.00000000000E+00 0.  1.
<mgrwt>
<rscale>  0 0.32666068E+04</rscale>
<asrwt>0</asrwt>
<pdfrwt beam="1">  1        1 0.44257769E+00 0.32666068E+04</pdfrwt>
<pdfrwt beam="2">  1       -1 0.14266502E+00 0.32666068E+04</pdfrwt>
<totfact> 0.24349228E-01</totfact>
</mgrwt>
</event>
<event>
 6    1  0.2238133E-007  0.2137890E+04  0.7818608E-02  0.8544734E-01
          2   -1    0    0  501    0  0.00000000000E+00  0.00000000000E+00  0.23862913090E+04  0.23862913090E+04  0.00000000000E+00 0. -1.
         -2   -1    0    0    0  501 -0.00000000000E+00 -0.00000000000E+00 -0.47883663111E+03  0.47883663111E+03  0.00000000000E+00 0.  1.
         23    2    1    2    0    0  0.49674044928E+03 -0.93971481873E+03  0.83037124394E+03  0.13518785429E+04  0.90797452927E+02 0.  0.
         13    1    3    3    0    0  0.13876059344E+03 -0.18729587660E+03  0.19820970646E+03  0.30597603733E+03  0.00000000000E+00 0.  1.
        -13    1    3    3    0    0  0.35797985584E+03 -0.75241894213E+03  0.63216153748E+03  0.10459025056E+04  0.00000000000E+00 0. -1.
         22    1    1    2    0    0 -0.49674044928E+03  0.93971481873E+03  0.10770834339E+04  0.15132493972E+04  0.00000000000E+00 0.  1.
<mgrwt>
<rscale>  0 0.21378903E+04</rscale>
<asrwt>0</asrwt>
<pdfrwt beam="1">  1        2 0.36712173E+00 0.21378903E+04</pdfrwt>
<pdfrwt beam="2">  1       -2 0.73667175E-01 0.21378903E+04</pdfrwt>
<totfact> 0.61794960E+00</totfact>
</mgrwt>
</event>
<event>
 6    1  0.2238133E-007  0.3540975E+04  0.7818608E-02  0.8104148E-01
         -2   -1    0    0    0  501 -0.00000000000E+00  0.00000000000E+00  0.14975867517E+04  0.14975867517E+04  0.00000000000E+00 0.  1.
          2   -1    0    0  501    0  0.00000000000E+00 -0.00000000000E+00 -0.20931176793E+04  0.20931176793E+04  0.00000000000E+00 0. -1.
         23    2    1    2    0    0  0.95310521656E+03 -0.74996243452E+03  0.10083564279E+04  0.15799066152E+04  0.92027278641E+02 0.  0.
         13    1    3    3    0    0  0.66781474832E+03 -0.47418263758E+03  0.69909074541E+03  0.10768256972E+04  0.00000000000E+00 0.  1.
        -13    1    3    3    0    0  0.28529046824E+03 -0.27577979694E+03  0.30926568244E+03  0.50308091795E+03  0.00000000000E+00 0. -1.
         22    1    1    2    0    0 -0.95310521656E+03  0.74996243452E+03 -0.16038873554E+04  0.20107978158E+04  0.00000000000E+00 0. -1.
<mgrwt>
<rscale>  0 0.35409746E+04</rscale>
<asrwt>0</asrwt>
<pdfrwt beam="1">  1        2 0.32201810E+00 0.35409746E+04</pdfrwt>
<pdfrwt beam="2">  1       -2 0.23039796E+00 0.35409746E+04</pdfrwt>
<totfact> 0.41274501E-01</totfact>
</mgrwt>
</event>
<event>
 6    1  0.2238133E-007  0.1842125E+04  0.7818608E-02  0.8684213E-01
         -2   -1    0    0    0  501 -0.00000000000E+00  0.00000000000E+00  0.57834148377E+03  0.57834148377E+03  0.00000000000E+00 0.  1.
          2   -1    0    0  501    0  0.00000000000E+00 -0.00000000000E+00 -0.14668777469E+04  0.14668777469E+04  0.00000000000E+00 0. -1.
         23    2    1    2    0    0 -0.61696824320E+02  0.79196910209E+03  0.67379928110E+02  0.80232047314E+03  0.90313510110E+02 0.  0.
         13    1    3    3    0    0 -0.46963779337E+02  0.41048722478E+03  0.77733139175E+02  0.42041384278E+03  0.00000000000E+00 0.  1.
        -13    1    3    3    0    0 -0.14733044983E+02  0.38148187731E+03 -0.10353211064E+02  0.38190663036E+03  0.00000000000E+00 0. -1.
         22    1    1    2    0    0  0.61696824320E+02 -0.79196910209E+03 -0.95591619128E+03  0.12428987576E+04  0.00000000000E+00 0. -1.
<mgrwt>
<rscale>  0 0.18421251E+04</rscale>
<asrwt>0</asrwt>
<pdfrwt beam="1">  1        2 0.22567350E+00 0.18421251E+04</pdfrwt>
<pdfrwt beam="2">  1       -2 0.88975612E-01 0.18421251E+04</pdfrwt>
<totfact> 0.13532613E+01</totfact>
</mgrwt>
</event>
<event>
 6    1  0.2238133E-007  0.2713481E+04  0.7818608E-02  0.8330644E-01
         -2   -1    0    0    0  501 -0.00000000000E+00  0.00000000000E+00  0.55826725836E+03  0.55826725836E+03  0.00000000000E+00 0.  1.
          2   -1    0    0  501    0  0.00000000000E+00 -0.00000000000E+00 -0.32972458229E+04  0.32972458229E+04  0.00000000000E+00 0. -1.
         23    2    1    2    0    0  0.12673016685E+04  0.40961264524E+03 -0.10148623753E+04  0.16768867544E+04  0.90374267578E+02 0.  0.
         11    1    3    3    0    0  0.11234192432E+04  0.38564491534E+03 -0.88011583025E+03  0.14783087199E+04  0.00000000000E+00 0.  1.
        -11    1    3    3    0    0  0.14388242531E+03  0.23967729900E+02 -0.13474654506E+03  0.19857803452E+03  0.00000000000E+00 0. -1.
         22    1    1    2    0    0 -0.12673016685E+04 -0.40961264524E+03 -0.17241161892E+04  0.21786263269E+04  0.00000000000E+00 0. -1.
<mgrwt>
<rscale>  0 0.27134807E+04</rscale>
<asrwt>0</asrwt>
<pdfrwt beam="1">  1        2 0.50726860E+00 0.27134807E+04</pdfrwt>
<pdfrwt beam="2">  1       -2 0.85887269E-01 0.27134807E+04</pdfrwt>
<totfact> 0.11533196E+00</totfact>
</mgrwt>
</event>
<event>
 6    1  0.2238133E-007  0.1886714E+04  0.7818608E-02  0.8661498E-01
         -2   -1    0    0    0  501 -0.00000000000E+00  0.00000000000E+00  0.46754479636E+03  0.46754479636E+03  0.00000000000E+00 0.  1.
          2   -1    0    0  501    0  0.00000000000E+00 -0.00000000000E+00 -0.19033948777E+04  0.19033948777E+04  0.00000000000E+00 0. -1.
         23    2    1    2    0    0 -0.68393826990E+02 -0.32626663233E+03 -0.18256278323E+04  0.18580514541E+04  0.91162454602E+02 0.  0.
         13    1    3    3    0    0 -0.88307544124E+02 -0.21280730919E+03 -0.12137620545E+04  0.12354365618E+04  0.00000000000E+00 0. -1.
        -13    1    3    3    0    0  0.19913717133E+02 -0.11345932314E+03 -0.61186577778E+03  0.62261489233E+03  0.00000000000E+00 0.  1.
         22    1    1    2    0    0  0.68393826990E+02  0.32626663233E+03  0.38977775100E+03  0.51288821991E+03  0.00000000000E+00 0.  1.
<mgrwt>
<rscale>  0 0.18867139E+04</rscale>
<asrwt>0</asrwt>
<pdfrwt beam="1">  1        2 0.29282998E+00 0.18867139E+04</pdfrwt>
<pdfrwt beam="2">  1       -2 0.71929968E-01 0.18867139E+04</pdfrwt>
<totfact> 0.12412781E+01</totfact>
</mgrwt>
</event>
<event>
 6    1  0.2238133E-007  0.6749742E+04  0.7818608E-02  0.7603810E-01
          2   -1    0    0  501    0  0.00000000000E+00  0.00000000000E+00  0.33541642185E+04  0.33541642185E+04  0.00000000000E+00 0. -1.
         -2   -1    0    0    0  501 -0.00000000000E+00 -0.00000000000E+00 -0.33957051609E+04  0.33957051609E+04  0.00000000000E+00 0.  1.
         23    2    1    2    0    0  0.95767349881E+03 -0.18292243228E+04 -0.26895142633E+04  0.33920482314E+04  0.96457648795E+02 0.  0.
         13    1    3    3    0    0  0.61891769777E+03 -0.10948470157E+04 -0.15973765281E+04  0.20330668648E+04  0.00000000000E+00 0.  1.
        -13    1    3    3    0    0  0.33875580105E+03 -0.73437730713E+03 -0.10921377353E+04  0.13589813666E+04  0.00000000000E+00 0. -1.
         22    1    1    2    0    0 -0.95767349881E+03  0.18292243228E+04  0.26479733209E+04  0.33578211480E+04  0.00000000000E+00 0. -1.
<mgrwt>
<rscale>  0 0.67497415E+04</rscale>
<asrwt>0</asrwt>
<pdfrwt beam="1">  1        2 0.51602526E+00 0.67497415E+04</pdfrwt>
<pdfrwt beam="2">  1       -2 0.52241618E+00 0.67497415E+04</pdfrwt>
<totfact> 0.80072301E-04</totfact>
</mgrwt>
</event>
<event>
 6    1  0.2238133E-007  0.2683371E+04  0.7818608E-02  0.8340421E-01
          2   -1    0    0  501    0  0.00000000000E+00  0.00000000000E+00  0.32361298746E+04  0.32361298746E+04  0.00000000000E+00 0. -1.
         -2   -1    0    0    0  501 -0.00000000000E+00 -0.00000000000E+00 -0.55625690535E+03  0.55625690535E+03  0.00000000000E+00 0.  1.
         23    2    1    2    0    0  0.29787256457E+02 -0.13143714089E+04  0.17088605777E+04  0.21579680620E+04  0.90344902133E+02 0.  0.
         11    1    3    3    0    0  0.58617274541E+02 -0.60174218166E+03  0.78055047447E+03  0.98731387170E+03  0.00000000000E+00 0.  1.
        -11    1    3    3    0    0 -0.28830018085E+02 -0.71262922721E+03  0.92831010328E+03  0.11706541903E+04  0.00000000000E+00 0. -1.
         22    1    1    2    0    0 -0.29787256457E+02  0.13143714089E+04  0.97101239150E+03  0.16344187179E+04  0.00000000000E+00 0.  1.
<mgrwt>
<rscale>  0 0.26833707E+04</rscale>
<asrwt>0</asrwt>
<pdfrwt beam="1">  1        2 0.49786612E+00 0.26833707E+04</pdfrwt>
<pdfrwt beam="2">  1       -2 0.85577987E-01 0.26833707E+04</pdfrwt>
<totfact> 0.12796994E+00</totfact>
</mgrwt>
</event>
<event>
 6    1  0.2238133E-007  0.2117200E+04  0.7818608E-02  0.8553704E-01
         -2   -1    0    0    0  501 -0.00000000000E+00  0.00000000000E+00  0.16110554785E+04  0.16110554785E+04  0.00000000000E+00 0.  1.
          2   -1    0    0  501    0  0.00000000000E+00 -0.00000000000E+00 -0.69559005964E+03  0.69559005964E+03  0.00000000000E+00 0. -1.
         23    2    1    2    0    0  0.84536908918E+02 -0.58877327244E+03  0.14100681262E+04  0.15330614811E+04  0.90470596986E+02 0.  0.
         13    1    3    3    0    0  0.41708945781E+02 -0.44491348755E+03  0.96700097686E+03  0.10652598447E+04  0.00000000000E+00 0. -1.
        -13    1    3    3    0    0  0.42827963137E+02 -0.14385978489E+03  0.44306714933E+03  0.46780163633E+03  0.00000000000E+00 0.  1.
         22    1    1    2    0    0 -0.84536908918E+02  0.58877327244E+03 -0.49460270731E+03  0.77358405709E+03  0.00000000000E+00 0. -1.
<mgrwt>
<rscale>  0 0.21172002E+04</rscale>
<asrwt>0</asrwt>
<pdfrwt beam="1">  1        2 0.10701386E+00 0.21172002E+04</pdfrwt>
<pdfrwt beam="2">  1       -2 0.24785469E+00 0.21172002E+04</pdfrwt>
<totfact> 0.25174074E+00</totfact>
</mgrwt>
</event>
<event>
 6    1  0.2238133E-007  0.1559308E+04  0.7818608E-02  0.8845944E-01
         -2   -1    0    0    0  501 -0.00000000000E+00  0.00000000000E+00  0.10540376221E+04  0.10540376221E+04  0.00000000000E+00 0.  1.
          2   -1    0    0  501    0  0.00000000000E+00 -0.00000000000E+00 -0.57669676293E+03  0.57669676293E+03  0.00000000000E+00 0. -1.
         23    2    1    2    0    0 -0.37653269178E+03  0.58371618920E+03  0.60167085964E+03  0.92507199649E+03  0.10606091569E+03 0.  0.
         11    1    3    3    0    0 -0.20212570425E+03  0.28152726290E+03  0.36586535024E+03  0.50395421873E+03  0.00000000000E+00 0.  1.
        -11    1    3    3    0    0 -0.17440698752E+03  0.30218892630E+03  0.23580550940E+03  0.42111777775E+03  0.00000000000E+00 0. -1.
         22    1    1    2    0    0  0.37653269178E+03 -0.58371618920E+03 -0.12433000051E+03  0.70566238850E+03  0.00000000000E+00 0.  1.
<mgrwt>
<rscale>  0 0.15593076E+04</rscale>
<asrwt>0</asrwt>
<pdfrwt beam="1">  1        2 0.88722579E-01 0.15593076E+04</pdfrwt>
<pdfrwt beam="2">  1       -2 0.16215963E+00 0.15593076E+04</pdfrwt>
<totfact> 0.12140812E+01</totfact>
</mgrwt>
</event>
<event>
 6    1  0.2238133E-007  0.3594314E+04  0.7818608E-02  0.8091795E-01
         -2   -1    0    0    0  501 -0.00000000000E+00  0.00000000000E+00  0.10099925634E+04  0.10099925634E+04  0.00000000000E+00 0.  1.
          2   -1    0    0  501    0  0.00000000000E+00 -0.00000000000E+00 -0.31978183244E+04  0.31978183244E+04  0.00000000000E+00 0. -1.
         23    2    1    2    0    0 -0.16515275691E+04 -0.19873382932E+03 -0.18877775733E+04  0.25175247104E+04  0.84782398210E+02 0.  0.
         13    1    3    3    0    0 -0.14444606801E+04 -0.15737813663E+03 -0.16122110069E+04  0.21703591558E+04  0.00000000000E+00 0.  1.
        -13    1    3    3    0    0 -0.20706688895E+03 -0.41355692691E+02 -0.27556656640E+03  0.34716555465E+03  0.00000000000E+00 0. -1.
         22    1    1    2    0    0  0.16515275691E+04  0.19873382932E+03 -0.30004818779E+03  0.16902861774E+04  0.00000000000E+00 0.  1.
<mgrwt>
<rscale>  0 0.35943137E+04</rscale>
<asrwt>0</asrwt>
<pdfrwt beam="1">  1        2 0.49197204E+00 0.35943137E+04</pdfrwt>
<pdfrwt beam="2">  1       -2 0.15538347E+00 0.35943137E+04</pdfrwt>
<totfact> 0.28900224E-01</totfact>
</mgrwt>
</event>
<event>
 6    1  0.2238133E-007  0.2626267E+04  0.7818608E-02  0.8359333E-01
          2   -1    0    0  501    0  0.00000000000E+00  0.00000000000E+00  0.16919138070E+04  0.16919138070E+04  0.00000000000E+00 0. -1.
         -2   -1    0    0    0  501 -0.00000000000E+00 -0.00000000000E+00 -0.10191530236E+04  0.10191530236E+04  0.00000000000E+00 0.  1.
         23    2    1    2    0    0 -0.93504126314E+03 -0.54526833055E+03 -0.42778427947E+03  0.11674285467E+04  0.90941221768E+02 0.  0.
         13    1    3    3    0    0 -0.28605331991E+03 -0.15466866702E+03 -0.17244231042E+03  0.36808320909E+03  0.00000000000E+00 0. -1.
        -13    1    3    3    0    0 -0.64898794322E+03 -0.39059966354E+03 -0.25534196906E+03  0.79934533762E+03  0.00000000000E+00 0.  1.
         22    1    1    2    0    0  0.93504126314E+03  0.54526833055E+03  0.11005450628E+04  0.15436382839E+04  0.00000000000E+00 0. -1.
<mgrwt>
<rscale>  0 0.26262666E+04</rscale>
<asrwt>0</asrwt>
<pdfrwt beam="1">  1        2 0.26029443E+00 0.26262666E+04</pdfrwt>
<pdfrwt beam="2">  1       -2 0.15679277E+00 0.26262666E+04</pdfrwt>
<totfact> 0.23280355E+00</totfact>
</mgrwt>
</event>
<event>
 6    1  0.2238133E-007  0.3561005E+04  0.7818608E-02  0.8099483E-01
         -2   -1    0    0    0  501 -0.00000000000E+00  0.00000000000E+00  0.23612934502E+04  0.23612934502E+04  0.00000000000E+00 0.  1.
          2   -1    0    0  501    0  0.00000000000E+00 -0.00000000000E+00 -0.13425645986E+04  0.13425645986E+04  0.00000000000E+00 0. -1.
         23    2    1    2    0    0  0.76556734285E+03 -0.96754450034E+03 -0.82385018756E+03  0.14863519649E+04  0.90979753249E+02 0.  0.
         11    1    3    3    0    0  0.35796081155E+03 -0.50712392467E+03 -0.37748991654E+03  0.72650482081E+03  0.00000000000E+00 0.  1.
        -11    1    3    3    0    0  0.40760653129E+03 -0.46042057567E+03 -0.44636027102E+03  0.75984714410E+03  0.00000000000E+00 0. -1.
         22    1    1    2    0    0 -0.76556734285E+03  0.96754450034E+03  0.18425790392E+04  0.22175060839E+04  0.00000000000E+00 0.  1.
<mgrwt>
<rscale>  0 0.35610049E+04</rscale>
<asrwt>0</asrwt>
<pdfrwt beam="1">  1        2 0.20654840E+00 0.35610049E+04</pdfrwt>
<pdfrwt beam="2">  1       -2 0.36327591E+00 0.35610049E+04</pdfrwt>
<totfact> 0.16356155E-01</totfact>
</mgrwt>
</event>
<event>
 6    1  0.2238133E-007  0.4898996E+04  0.7818608E-02  0.7844280E-01
         -2   -1    0    0    0  501 -0.00000000000E+00  0.00000000000E+00  0.16970540366E+04  0.16970540366E+04  0.00000000000E+00 0.  1.
          2   -1    0    0  501    0  0.00000000000E+00 -0.00000000000E+00 -0.35355617413E+04  0.35355617413E+04  0.00000000000E+00 0. -1.
         23    2    1    2    0    0 -0.38726866181E+03 -0.24126014954E+04 -0.10883184696E+04  0.26765627894E+04  0.94489588758E+02 0.  0.
         13    1    3    3    0    0 -0.28850806037E+03 -0.15725161099E+04 -0.74164245627E+03  0.17624066925E+04  0.00000000000E+00 0.  1.
        -13    1    3    3    0    0 -0.98760601439E+02 -0.84008538547E+03 -0.34667601333E+03  0.91415609690E+03  0.00000000000E+00 0. -1.
         22    1    1    2    0    0  0.38726866181E+03  0.24126014954E+04 -0.75018923510E+03  0.25560529886E+04  0.00000000000E+00 0. -1.
<mgrwt>
<rscale>  0 0.48989955E+04</rscale>
<asrwt>0</asrwt>
<pdfrwt beam="1">  1        2 0.54393257E+00 0.48989955E+04</pdfrwt>
<pdfrwt beam="2">  1       -2 0.26108524E+00 0.48989955E+04</pdfrwt>
<totfact> 0.30880973E-02</totfact>
</mgrwt>
</event>
<event>
 6    1  0.2238133E-007  0.1983498E+04  0.7818608E-02  0.8614375E-01
          2   -1    0    0  501    0  0.00000000000E+00  0.00000000000E+00  0.21496088816E+04  0.21496088816E+04  0.00000000000E+00 0. -1.
         -2   -1    0    0    0  501 -0.00000000000E+00 -0.00000000000E+00 -0.45755573467E+03  0.45755573467E+03  0.00000000000E+00 0.  1.
         23    2    1    2    0    0 -0.18397811439E+03  0.22523542670E+03  0.20912697285E+04  0.21132488106E+04  0.88501492173E+02 0.  0.
         13    1    3    3    0    0 -0.31582958581E+02  0.47340386910E+02  0.70818768000E+03  0.71047053817E+03  0.00000000000E+00 0. -1.
        -13    1    3    3    0    0 -0.15239515581E+03  0.17789503979E+03  0.13830820485E+04  0.14027782725E+04  0.00000000000E+00 0.  1.
         22    1    1    2    0    0  0.18397811439E+03 -0.22523542670E+03 -0.39921658162E+03  0.49391580563E+03  0.00000000000E+00 0.  1.
<mgrwt>
<rscale>  0 0.19834978E+04</rscale>
<asrwt>0</asrwt>
<pdfrwt beam="1">  1        2 0.33070905E+00 0.19834978E+04</pdfrwt>
<pdfrwt beam="2">  1       -2 0.70393192E-01 0.19834978E+04</pdfrwt>
<totfact> 0.94155854E+00</totfact>
</mgrwt>
</event>
<event>
 6    1  0.2238133E-007  0.4174241E+04  0.7818608E-02  0.7970290E-01
         -2   -1    0    0    0  501 -0.00000000000E+00  0.00000000000E+00  0.10916519741E+04  0.10916519741E+04  0.00000000000E+00 0.  1.
          2   -1    0    0  501    0  0.00000000000E+00 -0.00000000000E+00 -0.39903484405E+04  0.39903484405E+04  0.00000000000E+00 0. -1.
         23    2    1    2    0    0  0.87702915053E+03 -0.60115047370E+03  0.73502775733E+03  0.12959056248E+04  0.92431387568E+02 0.  0.
         11    1    3    3    0    0  0.42852445397E+03 -0.23965489103E+03  0.35223054751E+03  0.60426321503E+03  0.00000000000E+00 0. -1.
        -11    1    3    3    0    0  0.44850469656E+03 -0.36149558267E+03  0.38279720982E+03  0.69164240976E+03  0.00000000000E+00 0.  1.
         22    1    1    2    0    0 -0.87702915053E+03  0.60115047370E+03 -0.36337242238E+04  0.37860947898E+04  0.00000000000E+00 0. -1.
<mgrwt>
<rscale>  0 0.41742409E+04</rscale>
<asrwt>0</asrwt>
<pdfrwt beam="1">  1        2 0.61389975E+00 0.41742409E+04</pdfrwt>
<pdfrwt beam="2">  1       -2 0.16794646E+00 0.41742409E+04</pdfrwt>
<totfact> 0.59506820E-02</totfact>
</mgrwt>
</event>
<event>
 6    1  0.2238133E-007  0.3668657E+03  0.7818608E-02  0.1055898E+00
         -2   -1    0    0    0  501 -0.00000000000E+00  0.00000000000E+00  0.77373421848E+02  0.77373421848E+02  0.00000000000E+00 0.  1.
          2   -1    0    0  501    0  0.00000000000E+00 -0.00000000000E+00 -0.43487302538E+03  0.43487302538E+03  0.00000000000E+00 0. -1.
         23    2    1    2    0    0  0.13415872066E+03  0.35457951606E+02 -0.33140536401E+03  0.37104893310E+03  0.92692862716E+02 0.  0.
         11    1    3    3    0    0 -0.87692140090E+01 -0.10432518025E+02 -0.53311746341E+02  0.55026165091E+02  0.00000000000E+00 0. -1.
        -11    1    3    3    0    0  0.14292793467E+03  0.45890469632E+02 -0.27809361767E+03  0.31602276801E+03  0.00000000000E+00 0.  1.
         22    1    1    2    0    0 -0.13415872066E+03 -0.35457951606E+02 -0.26094239523E+02  0.14119751413E+03  0.00000000000E+00 0.  1.
<mgrwt>
<rscale>  0 0.36686572E+03</rscale>
<asrwt>0</asrwt>
<pdfrwt beam="1">  1        2 0.66903543E-01 0.36686572E+03</pdfrwt>
<pdfrwt beam="2">  1       -2 0.11903603E-01 0.36686572E+03</pdfrwt>
<totfact> 0.36630159E+03</totfact>
</mgrwt>
</event>
<event>
 6    1  0.2238133E-007  0.1567159E+04  0.7818608E-02  0.8840981E-01
          2   -1    0    0  501    0  0.00000000000E+00  0.00000000000E+00  0.17302764306E+04  0.17302764306E+04  0.00000000000E+00 0. -1.
         -2   -1    0    0    0  501 -0.00000000000E+00 -0.00000000000E+00 -0.35485497580E+03  0.35485497580E+03  0.00000000000E+00 0.  1.
         23    2    1    2    0    0 -0.29808329852E+03 -0.66855356510E+03  0.10518239282E+04  0.12847984248E+04  0.92498075902E+02 0.  0.
         11    1    3    3    0    0 -0.14803043908E+03 -0.28231120196E+03  0.38654454708E+03  0.50102825522E+03  0.00000000000E+00 0.  1.
        -11    1    3    3    0    0 -0.15005285944E+03 -0.38624236314E+03  0.66527938115E+03  0.78377016956E+03  0.00000000000E+00 0. -1.
         22    1    1    2    0    0  0.29808329852E+03  0.66855356510E+03  0.32359752658E+03  0.80033298162E+03  0.00000000000E+00 0.  1.
<mgrwt>
<rscale>  0 0.15671595E+04</rscale>
<asrwt>0</asrwt>
<pdfrwt beam="1">  1        2 0.26619637E+00 0.15671595E+04</pdfrwt>
<pdfrwt beam="2">  1       -2 0.54593074E-01 0.15671595E+04</pdfrwt>
<totfact> 0.28631129E+01</totfact>
</mgrwt>
</event>
<event>
 6    1  0.2382440E-007  0.3829502E+04  0.7818608E-02  0.8039853E-01
          1   -1    0    0  501    0  0.00000000000E+00  0.00000000000E+00  0.19258708952E+04  0.19258708952E+04  0.00000000000E+00 0. -1.
         -1   -1    0    0    0  501 -0.00000000000E+00 -0.00000000000E+00 -0.19036949978E+04  0.19036949978E+04  0.00000000000E+00 0.  1.
         23    2    1    2    0    0 -0.10732851485E+04 -0.15346429817E+04 -0.38239012498E+03  0.19136473775E+04  0.93562741549E+02 0.  0.
         11    1    3    3    0    0 -0.57875525327E+03 -0.80412005566E+03 -0.24790697950E+03  0.10212857473E+04  0.00000000000E+00 0. -1.
        -11    1    3    3    0    0 -0.49452989519E+03 -0.73052292608E+03 -0.13448314548E+03  0.89236163027E+03  0.00000000000E+00 0.  1.
         22    1    1    2    0    0  0.10732851485E+04  0.15346429817E+04  0.40456602243E+03  0.19159185154E+04  0.00000000000E+00 0. -1.
<mgrwt>
<rscale>  0 0.38295017E+04</rscale>
<asrwt>0</asrwt>
<pdfrwt beam="1">  1        1 0.29628783E+00 0.38295017E+04</pdfrwt>
<pdfrwt beam="2">  1       -1 0.29287616E+00 0.38295017E+04</pdfrwt>
<totfact> 0.97545771E-02</totfact>
</mgrwt>
</event>
<event>
 6    1  0.2238133E-007  0.3364475E+04  0.7818608E-02  0.8146681E-01
          2   -1    0    0  501    0  0.00000000000E+00  0.00000000000E+00  0.34305931228E+04  0.34305931228E+04  0.00000000000E+00 0. -1.
         -2   -1    0    0    0  501 -0.00000000000E+00 -0.00000000000E+00 -0.82490780477E+03  0.82490780477E+03  0.00000000000E+00 0.  1.
         23    2    1    2    0    0 -0.15934309148E+04  0.39754295356E+03  0.17572502648E+04  0.24070138382E+04  0.93405802023E+02 0.  0.
         11    1    3    3    0    0 -0.77261300615E+03  0.14742318125E+03  0.81765312689E+03  0.11345576616E+04  0.00000000000E+00 0.  1.
        -11    1    3    3    0    0 -0.82081790863E+03  0.25011977232E+03  0.93959713795E+03  0.12724561766E+04  0.00000000000E+00 0. -1.
         22    1    1    2    0    0  0.15934309148E+04 -0.39754295356E+03  0.84843505314E+03  0.18484870893E+04  0.00000000000E+00 0.  1.
<mgrwt>
<rscale>  0 0.33644750E+04</rscale>
<asrwt>0</asrwt>
<pdfrwt beam="1">  1        2 0.52778355E+00 0.33644750E+04</pdfrwt>
<pdfrwt beam="2">  1       -2 0.12690890E+00 0.33644750E+04</pdfrwt>
<totfact> 0.34786548E-01</totfact>
</mgrwt>
</event>
<event>
 6    1  0.2238133E-007  0.1134102E+04  0.7818608E-02  0.9172576E-01
          2   -1    0    0  501    0  0.00000000000E+00  0.00000000000E+00  0.75995844903E+03  0.75995844903E+03  0.00000000000E+00 0. -1.
         -2   -1    0    0    0  501 -0.00000000000E+00 -0.00000000000E+00 -0.42311134983E+03  0.42311134983E+03  0.00000000000E+00 0.  1.
         23    2    1    2    0    0  0.48625389927E+02 -0.43261623371E+03 -0.20297934359E+03  0.48957587492E+03  0.94671480201E+02 0.  0.
         13    1    3    3    0    0  0.20338263703E+02 -0.16364910712E+03 -0.12848661004E+03  0.20905378301E+03  0.00000000000E+00 0.  1.
        -13    1    3    3    0    0  0.28287126225E+02 -0.26896712659E+03 -0.74492733548E+02  0.28052209191E+03  0.00000000000E+00 0. -1.
         22    1    1    2    0    0 -0.48625389927E+02  0.43261623371E+03  0.53982644279E+03  0.69349392394E+03  0.00000000000E+00 0. -1.
<mgrwt>
<rscale>  0 0.11341024E+04</rscale>
<asrwt>0</asrwt>
<pdfrwt beam="1">  1        2 0.11691668E+00 0.11341024E+04</pdfrwt>
<pdfrwt beam="2">  1       -2 0.65094054E-01 0.11341024E+04</pdfrwt>
<totfact> 0.79524824E+01</totfact>
</mgrwt>
</event>
<event>
 6    1  0.2238133E-007  0.1175620E+04  0.7818608E-02  0.9134468E-01
         -2   -1    0    0    0  501 -0.00000000000E+00  0.00000000000E+00  0.17624840671E+03  0.17624840671E+03  0.00000000000E+00 0.  1.
          2   -1    0    0  501    0  0.00000000000E+00 -0.00000000000E+00 -0.19604177147E+04  0.19604177147E+04  0.00000000000E+00 0. -1.
         23    2    1    2    0    0  0.37343496249E+03  0.23166372534E+03 -0.19739525278E+03  0.49016265796E+03  0.90403498762E+02 0.  0.
         13    1    3    3    0    0  0.83866505931E+02  0.35350180234E+02 -0.55720059861E+01  0.91182637110E+02  0.00000000000E+00 0. -1.
        -13    1    3    3    0    0  0.28956845656E+03  0.19631354510E+03 -0.19182324679E+03  0.39898002085E+03  0.00000000000E+00 0.  1.
         22    1    1    2    0    0 -0.37343496249E+03 -0.23166372534E+03 -0.15867740553E+04  0.16465034635E+04  0.00000000000E+00 0. -1.
<mgrwt>
<rscale>  0 0.11756198E+04</rscale>
<asrwt>0</asrwt>
<pdfrwt beam="1">  1        2 0.30160272E+00 0.11756198E+04</pdfrwt>
<pdfrwt beam="2">  1       -2 0.27115140E-01 0.11756198E+04</pdfrwt>
<totfact> 0.86018218E+01</totfact>
</mgrwt>
</event>
<event>
 6    1  0.2238133E-007  0.1949231E+04  0.7818608E-02  0.8630731E-01
          2   -1    0    0  501    0  0.00000000000E+00  0.00000000000E+00  0.21604410761E+04  0.21604410761E+04  0.00000000000E+00 0. -1.
         -2   -1    0    0    0  501 -0.00000000000E+00 -0.00000000000E+00 -0.43966755517E+03  0.43966755517E+03  0.00000000000E+00 0.  1.
         23    2    1    2    0    0  0.50323533587E+03  0.71663171636E+03  0.29773889244E+03  0.92923030713E+03  0.89519246298E+02 0.  0.
         13    1    3    3    0    0  0.32423422660E+03  0.47852161543E+03  0.23963230536E+03  0.62572710658E+03  0.00000000000E+00 0.  1.
        -13    1    3    3    0    0  0.17900110927E+03  0.23811010093E+03  0.58106587083E+02  0.30350320055E+03  0.00000000000E+00 0. -1.
         22    1    1    2    0    0 -0.50323533587E+03 -0.71663171636E+03  0.14230346285E+04  0.16708783241E+04  0.00000000000E+00 0. -1.
<mgrwt>
<rscale>  0 0.19492315E+04</rscale>
<asrwt>0</asrwt>
<pdfrwt beam="1">  1        2 0.33237555E+00 0.19492315E+04</pdfrwt>
<pdfrwt beam="2">  1       -2 0.67641163E-01 0.19492315E+04</pdfrwt>
<totfact> 0.10156404E+01</totfact>
</mgrwt>
</event>
<event>
 6    1  0.2238133E-007  0.1429085E+04  0.7818608E-02  0.8933030E-01
         -2   -1    0    0    0  501 -0.00000000000E+00  0.00000000000E+00  0.43126356511E+03  0.43126356511E+03  0.00000000000E+00 0.  1.
          2   -1    0    0  501    0  0.00000000000E+00 -0.00000000000E+00 -0.11838959952E+04  0.11838959952E+04  0.00000000000E+00 0. -1.
         23    2    1    2    0    0  0.33424044809E+03  0.14335995208E+03 -0.10691023974E+04  0.11330579183E+04  0.92582703421E+02 0.  0.
         13    1    3    3    0    0  0.14579456226E+03  0.22875581610E+02 -0.34616655524E+03  0.37631187941E+03  0.00000000000E+00 0.  1.
        -13    1    3    3    0    0  0.18844588584E+03  0.12048437047E+03 -0.72293584219E+03  0.75674603886E+03  0.00000000000E+00 0. -1.
         22    1    1    2    0    0 -0.33424044809E+03 -0.14335995208E+03  0.31646996735E+03  0.48210164202E+03  0.00000000000E+00 0.  1.
<mgrwt>
<rscale>  0 0.14290853E+04</rscale>
<asrwt>0</asrwt>
<pdfrwt beam="1">  1        2 0.18213784E+00 0.14290853E+04</pdfrwt>
<pdfrwt beam="2">  1       -2 0.66348241E-01 0.14290853E+04</pdfrwt>
<totfact> 0.39289595E+01</totfact>
</mgrwt>
</event>
<event>
 6    1  0.2238133E-007  0.3386100E+04  0.7818608E-02  0.8141326E-01
         -2   -1    0    0    0  501 -0.00000000000E+00  0.00000000000E+00  0.15229571894E+04  0.15229571894E+04  0.00000000000E+00 0.  1.
          2   -1    0    0  501    0  0.00000000000E+00 -0.00000000000E+00 -0.18821401287E+04  0.18821401287E+04  0.00000000000E+00 0. -1.
         23    2    1    2    0    0  0.14088924524E+04 -0.10382012082E+03 -0.11164749227E+04  0.18022100145E+04  0.75419649613E+02 0.  0.
         11    1    3    3    0    0  0.90103162608E+03 -0.81227468056E+02 -0.67234877542E+03  0.11271684739E+04  0.00000000000E+00 0. -1.
        -11    1    3    3    0    0  0.50786082629E+03 -0.22592652769E+02 -0.44412614730E+03  0.67504154062E+03  0.00000000000E+00 0.  1.
         22    1    1    2    0    0 -0.14088924524E+04  0.10382012082E+03  0.75729198337E+03  0.16028873036E+04  0.00000000000E+00 0.  1.
<mgrwt>
<rscale>  0 0.33861003E+04</rscale>
<asrwt>0</asrwt>
<pdfrwt beam="1">  1        2 0.28956002E+00 0.33861003E+04</pdfrwt>
<pdfrwt beam="2">  1       -2 0.23430111E+00 0.33861003E+04</pdfrwt>
<totfact> 0.51787196E-01</totfact>
</mgrwt>
</event>
<event>
 6    1  0.2238133E-007  0.1528819E+04  0.7818608E-02  0.8865512E-01
         -4   -1    0    0    0  501 -0.00000000000E+00  0.00000000000E+00  0.66752647084E+03  0.66752647084E+03  0.00000000000E+00 0.  1.
          4   -1    0    0  501    0  0.00000000000E+00 -0.00000000000E+00 -0.87535339770E+03  0.87535339770E+03  0.00000000000E+00 0. -1.
         23    2    1    2    0    0  0.46035051399E+03 -0.14407683401E+02 -0.71700593770E+03  0.85629888851E+03  0.83786005363E+02 0.  0.
         13    1    3    3    0    0  0.18787188276E+03  0.15582770587E+02 -0.22941573133E+03  0.29693474848E+03  0.00000000000E+00 0.  1.
        -13    1    3    3    0    0  0.27247863122E+03 -0.29990453987E+02 -0.48759020637E+03  0.55936414003E+03  0.00000000000E+00 0. -1.
         22    1    1    2    0    0 -0.46035051399E+03  0.14407683401E+02  0.50917901083E+03  0.68658098003E+03  0.00000000000E+00 0.  1.
<mgrwt>
<rscale>  0 0.15288186E+04</rscale>
<asrwt>0</asrwt>
<pdfrwt beam="1">  1        4 0.13466975E+00 0.15288186E+04</pdfrwt>
<pdfrwt beam="2">  1       -4 0.10269638E+00 0.15288186E+04</pdfrwt>
<totfact> 0.59026841E-01</totfact>
</mgrwt>
</event>
<event>
 6    1  0.2238133E-007  0.1730769E+04  0.7818608E-02  0.8744008E-01
         -2   -1    0    0    0  501 -0.00000000000E+00  0.00000000000E+00  0.33895612246E+03  0.33895612246E+03  0.00000000000E+00 0.  1.
          2   -1    0    0  501    0  0.00000000000E+00 -0.00000000000E+00 -0.22094016187E+04  0.22094016187E+04  0.00000000000E+00 0. -1.
         23    2    1    2    0    0  0.36600907551E+03  0.43477975346E+03 -0.18944232859E+04  0.19795247149E+04  0.81746151784E+02 0.  0.
         11    1    3    3    0    0  0.53257253956E+02  0.10588619883E+03 -0.45924599692E+03  0.47429432622E+03  0.00000000000E+00 0. -1.
        -11    1    3    3    0    0  0.31275182155E+03  0.32889355463E+03 -0.14351772889E+04  0.15052303886E+04  0.00000000000E+00 0.  1.
         22    1    1    2    0    0 -0.36600907551E+03 -0.43477975346E+03  0.23977789669E+02  0.56883302626E+03  0.00000000000E+00 0.  1.
<mgrwt>
<rscale>  0 0.17307689E+04</rscale>
<asrwt>0</asrwt>
<pdfrwt beam="1">  1        2 0.33990794E+00 0.17307689E+04</pdfrwt>
<pdfrwt beam="2">  1       -2 0.52147096E-01 0.17307689E+04</pdfrwt>
<totfact> 0.16818306E+01</totfact>
</mgrwt>
</event>
<event>
 6    1  0.2238133E-007  0.3071333E+04  0.7818608E-02  0.8223650E-01
         -2   -1    0    0    0  501 -0.00000000000E+00  0.00000000000E+00  0.13095189433E+04  0.13095189433E+04  0.00000000000E+00 0.  1.
          2   -1    0    0  501    0  0.00000000000E+00 -0.00000000000E+00 -0.18008687747E+04  0.18008687747E+04  0.00000000000E+00 0. -1.
         23    2    1    2    0    0 -0.10714744288E+04  0.10816726617E+04 -0.52657455327E+02  0.15259243390E+04  0.87172712956E+02 0.  0.
         13    1    3    3    0    0 -0.39031480264E+03  0.43596077140E+03 -0.50693809711E+02  0.58734768384E+03  0.00000000000E+00 0.  1.
        -13    1    3    3    0    0 -0.68115962616E+03  0.64571189034E+03 -0.19636456166E+01  0.93857665512E+03  0.00000000000E+00 0. -1.
         22    1    1    2    0    0  0.10714744288E+04 -0.10816726617E+04 -0.43869237607E+03  0.15844633791E+04  0.00000000000E+00 0. -1.
<mgrwt>
<rscale>  0 0.30713331E+04</rscale>
<asrwt>0</asrwt>
<pdfrwt beam="1">  1        2 0.27705673E+00 0.30713331E+04</pdfrwt>
<pdfrwt beam="2">  1       -2 0.20146445E+00 0.30713331E+04</pdfrwt>
<totfact> 0.95432438E-01</totfact>
</mgrwt>
</event>
<event>
 6    1  0.2238133E-007  0.3212266E+04  0.7818608E-02  0.8185585E-01
         -2   -1    0    0    0  501 -0.00000000000E+00  0.00000000000E+00  0.21693211978E+04  0.21693211978E+04  0.00000000000E+00 0.  1.
          2   -1    0    0  501    0  0.00000000000E+00 -0.00000000000E+00 -0.11891570722E+04  0.11891570722E+04  0.00000000000E+00 0. -1.
         23    2    1    2    0    0  0.49899999074E+03 -0.78682480551E+03 -0.87561902472E+03  0.12819365857E+04  0.92511988629E+02 0.  0.
         13    1    3    3    0    0  0.22126754487E+03 -0.27157116181E+03 -0.35124477594E+03  0.49606765160E+03  0.00000000000E+00 0. -1.
        -13    1    3    3    0    0  0.27773244587E+03 -0.51525364370E+03 -0.52437424879E+03  0.78586893413E+03  0.00000000000E+00 0.  1.
         22    1    1    2    0    0 -0.49899999074E+03  0.78682480551E+03  0.18557831504E+04  0.20765416843E+04  0.00000000000E+00 0.  1.
<mgrwt>
<rscale>  0 0.32122663E+04</rscale>
<asrwt>0</asrwt>
<pdfrwt beam="1">  1        2 0.18294724E+00 0.32122663E+04</pdfrwt>
<pdfrwt beam="2">  1       -2 0.33374172E+00 0.32122663E+04</pdfrwt>
<totfact> 0.31811445E-01</totfact>
</mgrwt>
</event>
<event>
 6    1  0.2238133E-007  0.7134891E+03  0.7818608E-02  0.9694438E-01
          2   -1    0    0  501    0  0.00000000000E+00  0.00000000000E+00  0.12574025264E+04  0.12574025264E+04  0.00000000000E+00 0. -1.
         -2   -1    0    0    0  501 -0.00000000000E+00 -0.00000000000E+00 -0.10121395688E+03  0.10121395688E+03  0.00000000000E+00 0.  1.
         23    2    1    2    0    0  0.63240095882E+02 -0.16978685832E+03  0.11598129752E+04  0.11773983183E+04  0.90960295810E+02 0.  0.
         11    1    3    3    0    0  0.74355845702E+02 -0.11833892110E+03  0.64883796650E+03  0.66371951818E+03  0.00000000000E+00 0.  1.
        -11    1    3    3    0    0 -0.11115749821E+02 -0.51447937220E+02  0.51097500874E+03  0.51367880012E+03  0.00000000000E+00 0. -1.
         22    1    1    2    0    0 -0.63240095882E+02  0.16978685832E+03 -0.36244057554E+01  0.18121816494E+03  0.00000000000E+00 0.  1.
<mgrwt>
<rscale>  0 0.71348913E+03</rscale>
<asrwt>0</asrwt>
<pdfrwt beam="1">  1        2 0.19344653E+00 0.71348913E+03</pdfrwt>
<pdfrwt beam="2">  1       -2 0.15571379E-01 0.71348913E+03</pdfrwt>
<totfact> 0.58147258E+02</totfact>
</mgrwt>
</event>
<event>
 6    1  0.2238133E-007  0.1757796E+04  0.7818608E-02  0.8729071E-01
         -2   -1    0    0    0  501 -0.00000000000E+00  0.00000000000E+00  0.32155788296E+03  0.32155788296E+03  0.00000000000E+00 0.  1.
          2   -1    0    0  501    0  0.00000000000E+00 -0.00000000000E+00 -0.24022486392E+04  0.24022486392E+04  0.00000000000E+00 0. -1.
         23    2    1    2    0    0 -0.22935794129E+03 -0.79586902019E+03 -0.14872453126E+04  0.17048904034E+04  0.93488529539E+02 0.  0.
         11    1    3    3    0    0 -0.20414630357E+03 -0.58625634139E+03 -0.11545322747E+04  0.13108459042E+04  0.00000000000E+00 0. -1.
        -11    1    3    3    0    0 -0.25211637720E+02 -0.20961267879E+03 -0.33271303785E+03  0.39404449919E+03  0.00000000000E+00 0.  1.
         22    1    1    2    0    0  0.22935794129E+03  0.79586902019E+03 -0.59344544364E+03  0.10189161188E+04  0.00000000000E+00 0.  1.
<mgrwt>
<rscale>  0 0.17577963E+04</rscale>
<asrwt>0</asrwt>
<pdfrwt beam="1">  1        2 0.36957673E+00 0.17577963E+04</pdfrwt>
<pdfrwt beam="2">  1       -2 0.49470442E-01 0.17577963E+04</pdfrwt>
<totfact> 0.14534680E+01</totfact>
</mgrwt>
</event>
<event>
 6    1  0.2238133E-007  0.7619141E+03  0.7818608E-02  0.9616842E-01
         -2   -1    0    0    0  501 -0.00000000000E+00  0.00000000000E+00  0.26508165636E+03  0.26508165636E+03  0.00000000000E+00 0.  1.
          2   -1    0    0  501    0  0.00000000000E+00 -0.00000000000E+00 -0.54748519022E+03  0.54748519022E+03  0.00000000000E+00 0. -1.
         23    2    1    2    0    0 -0.20760151831E+03 -0.29695088239E+03 -0.24835026435E+03  0.44864674254E+03  0.91256938549E+02 0.  0.
         13    1    3    3    0    0 -0.45915004786E+02 -0.13559233725E+03 -0.11887234136E+03  0.18607553070E+03  0.00000000000E+00 0. -1.
        -13    1    3    3    0    0 -0.16168651353E+03 -0.16135854514E+03 -0.12947792299E+03  0.26257121184E+03  0.00000000000E+00 0.  1.
         22    1    1    2    0    0  0.20760151831E+03  0.29695088239E+03 -0.34053269511E+02  0.36392010404E+03  0.00000000000E+00 0. -1.
<mgrwt>
<rscale>  0 0.76191412E+03</rscale>
<asrwt>0</asrwt>
<pdfrwt beam="1">  1        2 0.84228489E-01 0.76191412E+03</pdfrwt>
<pdfrwt beam="2">  1       -2 0.40781794E-01 0.76191412E+03</pdfrwt>
<totfact> 0.31737306E+02</totfact>
</mgrwt>
</event>
<event>
 6    1  0.2238133E-007  0.2172642E+04  0.7818608E-02  0.8529902E-01
         -2   -1    0    0    0  501 -0.00000000000E+00  0.00000000000E+00  0.59542828863E+03  0.59542828863E+03  0.00000000000E+00 0.  1.
          2   -1    0    0  501    0  0.00000000000E+00 -0.00000000000E+00 -0.19819235114E+04  0.19819235114E+04  0.00000000000E+00 0. -1.
         23    2    1    2    0    0 -0.87713750374E+03 -0.12888134402E+03  0.46069416929E+02  0.89264943812E+03  0.93381084244E+02 0.  0.
         11    1    3    3    0    0 -0.47581051199E+03 -0.10415864600E+03 -0.66305010859E+01  0.48712280833E+03  0.00000000000E+00 0.  1.
        -11    1    3    3    0    0 -0.40132699175E+03 -0.24722698021E+02  0.52699918015E+02  0.40552662979E+03  0.00000000000E+00 0. -1.
         22    1    1    2    0    0  0.87713750374E+03  0.12888134402E+03 -0.14325646397E+04  0.16847023619E+04  0.00000000000E+00 0. -1.
<mgrwt>
<rscale>  0 0.21726420E+04</rscale>
<asrwt>0</asrwt>
<pdfrwt beam="1">  1        2 0.30491131E+00 0.21726420E+04</pdfrwt>
<pdfrwt beam="2">  1       -2 0.91604352E-01 0.21726420E+04</pdfrwt>
<totfact> 0.63541254E+00</totfact>
</mgrwt>
</event>
<event>
 6    1  0.2238133E-007  0.3522411E+04  0.7818608E-02  0.8108499E-01
          2   -1    0    0  501    0  0.00000000000E+00  0.00000000000E+00  0.14379672544E+04  0.14379672544E+04  0.00000000000E+00 0. -1.
         -2   -1    0    0    0  501 -0.00000000000E+00 -0.00000000000E+00 -0.21571039888E+04  0.21571039888E+04  0.00000000000E+00 0.  1.
         23    2    1    2    0    0  0.12405960445E+04  0.10510014511E+04 -0.10480352532E+04  0.19361990868E+04  0.82501005709E+02 0.  0.
         13    1    3    3    0    0  0.80556115802E+03  0.72275535537E+03 -0.66847211654E+03  0.12720688085E+04  0.00000000000E+00 0.  1.
        -13    1    3    3    0    0  0.43503488649E+03  0.32824609570E+03 -0.37956313661E+03  0.66413027824E+03  0.00000000000E+00 0. -1.
         22    1    1    2    0    0 -0.12405960445E+04 -0.10510014511E+04  0.32889851872E+03  0.16588721564E+04  0.00000000000E+00 0. -1.
<mgrwt>
<rscale>  0 0.35224110E+04</rscale>
<asrwt>0</asrwt>
<pdfrwt beam="1">  1        2 0.22122573E+00 0.35224110E+04</pdfrwt>
<pdfrwt beam="2">  1       -2 0.33186215E+00 0.35224110E+04</pdfrwt>
<totfact> 0.22814271E-01</totfact>
</mgrwt>
</event>
<event>
 6    1  0.2238133E-007  0.2629013E+04  0.7818608E-02  0.8358412E-01
         -2   -1    0    0    0  501 -0.00000000000E+00  0.00000000000E+00  0.71467010861E+03  0.71467010861E+03  0.00000000000E+00 0.  1.
          2   -1    0    0  501    0  0.00000000000E+00 -0.00000000000E+00 -0.24177972662E+04  0.24177972662E+04  0.00000000000E+00 0. -1.
         23    2    1    2    0    0 -0.39818002927E+03  0.81933130546E+03  0.27493482869E+03  0.95472075379E+03  0.77790962683E+02 0.  0.
         11    1    3    3    0    0 -0.34726816628E+03  0.64950128300E+03  0.23361208754E+03  0.77267179538E+03  0.00000000000E+00 0.  1.
        -11    1    3    3    0    0 -0.50911862986E+02  0.16983002247E+03  0.41322741146E+02  0.18204895841E+03  0.00000000000E+00 0. -1.
         22    1    1    2    0    0  0.39818002927E+03 -0.81933130546E+03 -0.19780619862E+04  0.21777466210E+04  0.00000000000E+00 0. -1.
<mgrwt>
<rscale>  0 0.26290131E+04</rscale>
<asrwt>0</asrwt>
<pdfrwt beam="1">  1        2 0.37196881E+00 0.26290131E+04</pdfrwt>
<pdfrwt beam="2">  1       -2 0.10994925E+00 0.26290131E+04</pdfrwt>
<totfact> 0.22533955E+00</totfact>
</mgrwt>
</event>
<event>
 6    1  0.2238133E-007  0.1778815E+04  0.7818608E-02  0.8717647E-01
          1   -1    0    0  501    0  0.00000000000E+00  0.00000000000E+00  0.11573523367E+04  0.11573523367E+04  0.00000000000E+00 0. -1.
         -1   -1    0    0    0  501 -0.00000000000E+00 -0.00000000000E+00 -0.68349607159E+03  0.68349607159E+03  0.00000000000E+00 0.  1.
         23    2    1    2    0    0  0.47105857787E+02 -0.31248101799E+03  0.10953629918E+04  0.11436153341E+04  0.90402434680E+02 0.  0.
         11    1    3    3    0    0  0.16511722960E+02 -0.88854263814E+02  0.18791342539E+03  0.20851660038E+03  0.00000000000E+00 0. -1.
        -11    1    3    3    0    0  0.30594134827E+02 -0.22362675418E+03  0.90744956637E+03  0.93509873370E+03  0.00000000000E+00 0.  1.
         22    1    1    2    0    0 -0.47105857787E+02  0.31248101799E+03 -0.62150672666E+03  0.69723307418E+03  0.00000000000E+00 0.  1.
<mgrwt>
<rscale>  0 0.17788151E+04</rscale>
<asrwt>0</asrwt>
<pdfrwt beam="1">  1        1 0.17805421E+00 0.17788151E+04</pdfrwt>
<pdfrwt beam="2">  1       -1 0.10515324E+00 0.17788151E+04</pdfrwt>
<totfact> 0.92146613E+00</totfact>
</mgrwt>
</event>
<event>
 6    1  0.2238133E-007  0.3657493E+04  0.7818608E-02  0.8077448E-01
         -2   -1    0    0    0  501 -0.00000000000E+00  0.00000000000E+00  0.26805822449E+04  0.26805822449E+04  0.00000000000E+00 0.  1.
          2   -1    0    0  501    0  0.00000000000E+00 -0.00000000000E+00 -0.12476069315E+04  0.12476069315E+04  0.00000000000E+00 0. -1.
         23    2    1    2    0    0  0.11113197386E+04 -0.24658416418E+03  0.22525462318E+04  0.25255018265E+04  0.91431054284E+02 0.  0.
         11    1    3    3    0    0  0.56654144358E+03 -0.16601911189E+03  0.12166756018E+04  0.13523428089E+04  0.00000000000E+00 0. -1.
        -11    1    3    3    0    0  0.54477829505E+03 -0.80565052288E+02  0.10358706299E+04  0.11731590175E+04  0.00000000000E+00 0.  1.
         22    1    1    2    0    0 -0.11113197386E+04  0.24658416418E+03 -0.81957091842E+03  0.14026873500E+04  0.00000000000E+00 0. -1.
<mgrwt>
<rscale>  0 0.36574926E+04</rscale>
<asrwt>0</asrwt>
<pdfrwt beam="1">  1        2 0.19193953E+00 0.36574926E+04</pdfrwt>
<pdfrwt beam="2">  1       -2 0.41239727E+00 0.36574926E+04</pdfrwt>
<totfact> 0.88517826E-02</totfact>
</mgrwt>
</event>
<event>
 6    1  0.2238133E-007  0.1974058E+04  0.7818608E-02  0.8618847E-01
          4   -1    0    0  501    0  0.00000000000E+00  0.00000000000E+00  0.10320255439E+04  0.10320255439E+04  0.00000000000E+00 0. -1.
         -4   -1    0    0    0  501 -0.00000000000E+00 -0.00000000000E+00 -0.94399387084E+03  0.94399387084E+03  0.00000000000E+00 0.  1.
         23    2    1    2    0    0 -0.10606697038E+03  0.96134016070E+03  0.23172242800E+03  0.99822999986E+03  0.85689802219E+02 0.  0.
         13    1    3    3    0    0 -0.19625972856E+02  0.29015003048E+03  0.10835592895E+03  0.31034372289E+03  0.00000000000E+00 0. -1.
        -13    1    3    3    0    0 -0.86440997525E+02  0.67119013023E+03  0.12336649905E+03  0.68788627698E+03  0.00000000000E+00 0.  1.
         22    1    1    2    0    0  0.10606697038E+03 -0.96134016070E+03 -0.14369075495E+03  0.97778941487E+03  0.00000000000E+00 0. -1.
<mgrwt>
<rscale>  0 0.19740575E+04</rscale>
<asrwt>0</asrwt>
<pdfrwt beam="1">  1        4 0.15877316E+00 0.19740575E+04</pdfrwt>
<pdfrwt beam="2">  1       -4 0.14522983E+00 0.19740575E+04</pdfrwt>
<totfact> 0.15445915E-01</totfact>
</mgrwt>
</event>
<event>
 6    1  0.2238133E-007  0.2123487E+04  0.7818608E-02  0.8550967E-01
         -2   -1    0    0    0  501 -0.00000000000E+00  0.00000000000E+00  0.37409195287E+03  0.37409195287E+03  0.00000000000E+00 0.  1.
          2   -1    0    0  501    0  0.00000000000E+00 -0.00000000000E+00 -0.30134277889E+04  0.30134277889E+04  0.00000000000E+00 0. -1.
         23    2    1    2    0    0  0.59893267687E+03 -0.38306927480E+03 -0.68498366334E+02  0.72018629499E+03  0.92270540200E+02 0.  0.
         11    1    3    3    0    0  0.33744563531E+03 -0.17260433539E+03 -0.79930182248E+01  0.37911172723E+03  0.00000000000E+00 0. -1.
        -11    1    3    3    0    0  0.26148704156E+03 -0.21046493940E+03 -0.60505348109E+02  0.34107456776E+03  0.00000000000E+00 0.  1.
         22    1    1    2    0    0 -0.59893267687E+03  0.38306927480E+03 -0.25708374697E+04  0.26673334468E+04  0.00000000000E+00 0. -1.
<mgrwt>
<rscale>  0 0.21234868E+04</rscale>
<asrwt>0</asrwt>
<pdfrwt beam="1">  1        2 0.46360426E+00 0.21234868E+04</pdfrwt>
<pdfrwt beam="2">  1       -2 0.57552610E-01 0.21234868E+04</pdfrwt>
<totfact> 0.44488751E+00</totfact>
</mgrwt>
</event>
<event>
 6    1  0.2238133E-007  0.1214307E+04  0.7818608E-02  0.9100425E-01
          2   -1    0    0  501    0  0.00000000000E+00  0.00000000000E+00  0.22604626202E+04  0.22604626202E+04  0.00000000000E+00 0. -1.
         -2   -1    0    0    0  501 -0.00000000000E+00 -0.00000000000E+00 -0.16307968728E+03  0.16307968728E+03  0.00000000000E+00 0.  1.
         23    2    1    2    0    0 -0.47833628753E+03 -0.36472828424E+03  0.95847265509E+03  0.11355403873E+04  0.94603464311E+02 0.  0.
         13    1    3    3    0    0 -0.34845796973E+03 -0.24206482963E+03  0.59799151684E+03  0.73322042568E+03  0.00000000000E+00 0.  1.
        -13    1    3    3    0    0 -0.12987831780E+03 -0.12266345460E+03  0.36048113824E+03  0.40231996167E+03  0.00000000000E+00 0. -1.
         22    1    1    2    0    0  0.47833628753E+03  0.36472828424E+03  0.11389102778E+04  0.12880019201E+04  0.00000000000E+00 0. -1.
<mgrwt>
<rscale>  0 0.12143073E+04</rscale>
<asrwt>0</asrwt>
<pdfrwt beam="1">  1        2 0.34776346E+00 0.12143073E+04</pdfrwt>
<pdfrwt beam="2">  1       -2 0.25089184E-01 0.12143073E+04</pdfrwt>
<totfact> 0.67306584E+01</totfact>
</mgrwt>
</event>
<event>
 6    1  0.2457797E-007  0.3388283E+04  0.7818608E-02  0.8140788E-01
         -2   -1    0    0    0  501 -0.00000000000E+00  0.00000000000E+00  0.12147964587E+04  0.12147964587E+04  0.00000000000E+00 0.  1.
          2   -1    0    0  501    0  0.00000000000E+00 -0.00000000000E+00 -0.23626311005E+04  0.23626311005E+04  0.00000000000E+00 0. -1.
         23    2    1    2    0    0  0.38374764879E+03 -0.34376595561E+03  0.11281836490E+04  0.12438259330E+04  0.94166424758E+02 0.  0.
         11    1    3    3    0    0  0.10179818704E+03 -0.15131397245E+03  0.39149283427E+03  0.43188589746E+03  0.00000000000E+00 0.  1.
        -11    1    3    3    0    0  0.28194946175E+03 -0.19245198316E+03  0.73669081471E+03  0.81194003552E+03  0.00000000000E+00 0. -1.
         22    1    1    2    0    0 -0.38374764879E+03  0.34376595561E+03 -0.22760182908E+04  0.23336016263E+04  0.00000000000E+00 0. -1.
<mgrwt>
<rscale>  0 0.33882833E+04</rscale>
<asrwt>0</asrwt>
<pdfrwt beam="1">  1        2 0.36348171E+00 0.33882833E+04</pdfrwt>
<pdfrwt beam="2">  1       -2 0.18689176E+00 0.33882833E+04</pdfrwt>
<totfact> 0.56328531E-01</totfact>
</mgrwt>
</event>
<event>
 6    1  0.2238133E-007  0.3159111E+04  0.7818608E-02  0.8199700E-01
         -2   -1    0    0    0  501 -0.00000000000E+00  0.00000000000E+00  0.65250638043E+03  0.65250638043E+03  0.00000000000E+00 0.  1.
          2   -1    0    0  501    0  0.00000000000E+00 -0.00000000000E+00 -0.38237104470E+04  0.38237104470E+04  0.00000000000E+00 0. -1.
         23    2    1    2    0    0  0.68194952293E+03 -0.13828961920E+03 -0.35940490200E+04  0.36619828161E+04  0.93544733139E+02 0.  0.
         11    1    3    3    0    0  0.38632316824E+03 -0.31914626140E+02 -0.19346590590E+04  0.19731117070E+04  0.00000000000E+00 0.  1.
        -11    1    3    3    0    0  0.29562635469E+03 -0.10637499306E+03 -0.16593899609E+04  0.16888711091E+04  0.00000000000E+00 0. -1.
         22    1    1    2    0    0 -0.68194952293E+03  0.13828961920E+03  0.42284495337E+03  0.81423401132E+03  0.00000000000E+00 0.  1.
<mgrwt>
<rscale>  0 0.31591109E+04</rscale>
<asrwt>0</asrwt>
<pdfrwt beam="1">  1        2 0.58826314E+00 0.31591109E+04</pdfrwt>
<pdfrwt beam="2">  1       -2 0.10038560E+00 0.31591109E+04</pdfrwt>
<totfact> 0.32530965E-01</totfact>
</mgrwt>
</event>
<event>
 6    1  0.2238133E-007  0.4546452E+04  0.7818608E-02  0.7902554E-01
         -2   -1    0    0    0  501 -0.00000000000E+00  0.00000000000E+00  0.11047587173E+04  0.11047587173E+04  0.00000000000E+00 0.  1.
          2   -1    0    0  501    0  0.00000000000E+00 -0.00000000000E+00 -0.46775436781E+04  0.46775436781E+04  0.00000000000E+00 0. -1.
         23    2    1    2    0    0 -0.18685223506E+04 -0.51501848203E+02 -0.34304014521E+04  0.39076554210E+04  0.89936375873E+02 0.  0.
         13    1    3    3    0    0 -0.81656331555E+03  0.21956986363E+02 -0.14895861236E+04  0.16988597874E+04  0.00000000000E+00 0. -1.
        -13    1    3    3    0    0 -0.10519590351E+04 -0.73458834566E+02 -0.19408153284E+04  0.22087956336E+04  0.00000000000E+00 0.  1.
         22    1    1    2    0    0  0.18685223506E+04  0.51501848203E+02 -0.14238350877E+03  0.18746469744E+04  0.00000000000E+00 0.  1.
<mgrwt>
<rscale>  0 0.45464523E+04</rscale>
<asrwt>0</asrwt>
<pdfrwt beam="1">  1        2 0.71962211E+00 0.45464523E+04</pdfrwt>
<pdfrwt beam="2">  1       -2 0.16996288E+00 0.45464523E+04</pdfrwt>
<totfact> 0.12916133E-02</totfact>
</mgrwt>
</event>
<event>
 6    1  0.2238133E-007  0.2956299E+04  0.7818608E-02  0.8256321E-01
          2   -1    0    0  501    0  0.00000000000E+00  0.00000000000E+00  0.11451991876E+04  0.11451991876E+04  0.00000000000E+00 0. -1.
         -2   -1    0    0    0  501 -0.00000000000E+00 -0.00000000000E+00 -0.19079007864E+04  0.19079007864E+04  0.00000000000E+00 0.  1.
         23    2    1    2    0    0  0.72705006897E+03 -0.16174709362E+03 -0.16986159818E+04  0.18569813940E+04  0.91212492676E+02 0.  0.
         13    1    3    3    0    0  0.48749470276E+03 -0.64139140391E+02 -0.11187048178E+04  0.12219923829E+04  0.00000000000E+00 0. -1.
        -13    1    3    3    0    0  0.23955536621E+03 -0.97607953230E+02 -0.57991116401E+03  0.63498901105E+03  0.00000000000E+00 0.  1.
         22    1    1    2    0    0 -0.72705006897E+03  0.16174709362E+03  0.93591438299E+03  0.11961185800E+04  0.00000000000E+00 0. -1.
<mgrwt>
<rscale>  0 0.29562993E+04</rscale>
<asrwt>0</asrwt>
<pdfrwt beam="1">  1        2 0.17618449E+00 0.29562993E+04</pdfrwt>
<pdfrwt beam="2">  1       -2 0.29352320E+00 0.29562993E+04</pdfrwt>
<totfact> 0.61137855E-01</totfact>
</mgrwt>
</event>
<event>
 6    1  0.2238133E-007  0.4076635E+04  0.7818608E-02  0.7989263E-01
          2   -1    0    0  501    0  0.00000000000E+00  0.00000000000E+00  0.16342753198E+04  0.16342753198E+04  0.00000000000E+00 0. -1.
         -2   -1    0    0    0  501 -0.00000000000E+00 -0.00000000000E+00 -0.25422514791E+04  0.25422514791E+04  0.00000000000E+00 0.  1.
         23    2    1    2    0    0  0.10509830281E+04  0.99782599063E+03 -0.19212219074E+04  0.24082256427E+04  0.90747428145E+02 0.  0.
         11    1    3    3    0    0  0.25356033301E+03  0.18936383563E+03 -0.41272893794E+03  0.52009295413E+03  0.00000000000E+00 0. -1.
        -11    1    3    3    0    0  0.79742269507E+03  0.80846215500E+03 -0.15084929695E+04  0.18881326886E+04  0.00000000000E+00 0.  1.
         22    1    1    2    0    0 -0.10509830281E+04 -0.99782599063E+03  0.10132457481E+04  0.17683011562E+04  0.00000000000E+00 0. -1.
<mgrwt>
<rscale>  0 0.40766353E+04</rscale>
<asrwt>0</asrwt>
<pdfrwt beam="1">  1        2 0.25142697E+00 0.40766353E+04</pdfrwt>
<pdfrwt beam="2">  1       -2 0.39111561E+00 0.40766353E+04</pdfrwt>
<totfact> 0.70932312E-02</totfact>
</mgrwt>
</event>
<event>
 6    1  0.2238133E-007  0.4515935E+04  0.7818608E-02  0.7907853E-01
          2   -1    0    0  501    0  0.00000000000E+00  0.00000000000E+00  0.17057821438E+04  0.17057821438E+04  0.00000000000E+00 0. -1.
         -2   -1    0    0    0  501 -0.00000000000E+00 -0.00000000000E+00 -0.29889031923E+04  0.29889031923E+04  0.00000000000E+00 0.  1.
         23    2    1    2    0    0  0.32961658604E+03 -0.21032994302E+04  0.13708651175E+03  0.21354852460E+04  0.94810004683E+02 0.  0.
         13    1    3    3    0    0  0.32242807852E+03 -0.18775475171E+04  0.13115998735E+03  0.19095411719E+04  0.00000000000E+00 0.  1.
        -13    1    3    3    0    0  0.71885075200E+01 -0.22575191313E+03  0.59265243939E+01  0.22594407409E+03  0.00000000000E+00 0. -1.
         22    1    1    2    0    0 -0.32961658604E+03  0.21032994302E+04 -0.14202075603E+04  0.25592000901E+04  0.00000000000E+00 0.  1.
<mgrwt>
<rscale>  0 0.45159352E+04</rscale>
<asrwt>0</asrwt>
<pdfrwt beam="1">  1        2 0.26242802E+00 0.45159352E+04</pdfrwt>
<pdfrwt beam="2">  1       -2 0.45983126E+00 0.45159352E+04</pdfrwt>
<totfact> 0.22059961E-02</totfact>
</mgrwt>
</event>
<event>
 6    1  0.2238133E-007  0.2543621E+04  0.7818608E-02  0.8387608E-01
         -2   -1    0    0    0  501 -0.00000000000E+00  0.00000000000E+00  0.50625185756E+03  0.50625185756E+03  0.00000000000E+00 0.  1.
          2   -1    0    0  501    0  0.00000000000E+00 -0.00000000000E+00 -0.31950538125E+04  0.31950538125E+04  0.00000000000E+00 0. -1.
         23    2    1    2    0    0  0.62235395154E+03  0.83575589971E+02 -0.29527633980E+04  0.30201412526E+04  0.90178603621E+02 0.  0.
         13    1    3    3    0    0  0.23122890938E+03  0.74690372638E+02 -0.11648862286E+04  0.11899602455E+04  0.00000000000E+00 0.  1.
        -13    1    3    3    0    0  0.39112504216E+03  0.88852173332E+01 -0.17878771695E+04  0.18301810071E+04  0.00000000000E+00 0. -1.
         22    1    1    2    0    0 -0.62235395154E+03 -0.83575589971E+02  0.26396144307E+03  0.68116441750E+03  0.00000000000E+00 0.  1.
<mgrwt>
<rscale>  0 0.25436210E+04</rscale>
<asrwt>0</asrwt>
<pdfrwt beam="1">  1        2 0.49154675E+00 0.25436210E+04</pdfrwt>
<pdfrwt beam="2">  1       -2 0.77884899E-01 0.25436210E+04</pdfrwt>
<totfact> 0.17049162E+00</totfact>
</mgrwt>
</event>
<event>
 6    1  0.2238133E-007  0.2997678E+04  0.7818608E-02  0.8244394E-01
          2   -1    0    0  501    0  0.00000000000E+00  0.00000000000E+00  0.18837453856E+04  0.18837453856E+04  0.00000000000E+00 0. -1.
         -2   -1    0    0    0  501 -0.00000000000E+00 -0.00000000000E+00 -0.11925806724E+04  0.11925806724E+04  0.00000000000E+00 0.  1.
         23    2    1    2    0    0  0.40645644021E+03  0.21271629607E+03 -0.11169635941E+04  0.12109084008E+04  0.90754746922E+02 0.  0.
         11    1    3    3    0    0  0.23379117314E+03  0.11805374012E+03 -0.51869654299E+03  0.58106893043E+03  0.00000000000E+00 0.  1.
        -11    1    3    3    0    0  0.17266526707E+03  0.94662555945E+02 -0.59826705110E+03  0.62983947033E+03  0.00000000000E+00 0. -1.
         22    1    1    2    0    0 -0.40645644021E+03 -0.21271629607E+03  0.18081283072E+04  0.18654176572E+04  0.00000000000E+00 0. -1.
<mgrwt>
<rscale>  0 0.29976780E+04</rscale>
<asrwt>0</asrwt>
<pdfrwt beam="1">  1        2 0.28980698E+00 0.29976780E+04</pdfrwt>
<pdfrwt beam="2">  1       -2 0.18347395E+00 0.29976780E+04</pdfrwt>
<totfact> 0.11393197E+00</totfact>
</mgrwt>
</event>
<event>
 6    1  0.4488604E-007  0.3642958E+04  0.7818608E-02  0.8080722E-01
         -2   -1    0    0    0  501 -0.00000000000E+00  0.00000000000E+00  0.15716308655E+04  0.15716308655E+04  0.00000000000E+00 0.  1.
          2   -1    0    0  501    0  0.00000000000E+00 -0.00000000000E+00 -0.21110467340E+04  0.21110467340E+04  0.00000000000E+00 0. -1.
         23    2    1    2    0    0  0.32215690491E+03  0.29151046104E+03  0.15162094810E+04  0.15816399992E+04  0.11802743986E+03 0.  0.
         13    1    3    3    0    0  0.23221666955E+03  0.17154843755E+03  0.81631000411E+03  0.86586111522E+03  0.00000000000E+00 0.  1.
        -13    1    3    3    0    0  0.89940235362E+02  0.11996202349E+03  0.69989947693E+03  0.71577888403E+03  0.00000000000E+00 0. -1.
         22    1    1    2    0    0 -0.32215690491E+03 -0.29151046104E+03 -0.20556253495E+04  0.21010376003E+04  0.00000000000E+00 0. -1.
<mgrwt>
<rscale>  0 0.36429583E+04</rscale>
<asrwt>0</asrwt>
<pdfrwt beam="1">  1        2 0.32477642E+00 0.36429583E+04</pdfrwt>
<pdfrwt beam="2">  1       -2 0.24178937E+00 0.36429583E+04</pdfrwt>
<totfact> 0.33975694E-01</totfact>
</mgrwt>
</event>
<event>
 6    1  0.2238133E-007  0.2286739E+04  0.7818608E-02  0.8483168E-01
         -2   -1    0    0    0  501 -0.00000000000E+00  0.00000000000E+00  0.10812408124E+04  0.10812408124E+04  0.00000000000E+00 0.  1.
          2   -1    0    0  501    0  0.00000000000E+00 -0.00000000000E+00 -0.12090682285E+04  0.12090682285E+04  0.00000000000E+00 0. -1.
         23    2    1    2    0    0  0.17044660152E+03  0.99805854472E+02  0.10620275382E+04  0.10841713767E+04  0.92259576783E+02 0.  0.
         13    1    3    3    0    0  0.17948944111E+03  0.93250471329E+02  0.93363176172E+03  0.95529072871E+03  0.00000000000E+00 0. -1.
        -13    1    3    3    0    0 -0.90428395905E+01  0.65553831437E+01  0.12839577652E+03  0.12888064798E+03  0.00000000000E+00 0.  1.
         22    1    1    2    0    0 -0.17044660152E+03 -0.99805854472E+02 -0.11898549544E+04  0.12061376642E+04  0.00000000000E+00 0. -1.
<mgrwt>
<rscale>  0 0.22867391E+04</rscale>
<asrwt>0</asrwt>
<pdfrwt beam="1">  1        2 0.18601050E+00 0.22867391E+04</pdfrwt>
<pdfrwt beam="2">  1       -2 0.16634474E+00 0.22867391E+04</pdfrwt>
<totfact> 0.38436382E+00</totfact>
</mgrwt>
</event>
<event>
 6    1  0.2238133E-007  0.2776376E+04  0.7818608E-02  0.8310640E-01
          2   -1    0    0  501    0  0.00000000000E+00  0.00000000000E+00  0.22928039851E+04  0.22928039851E+04  0.00000000000E+00 0. -1.
         -2   -1    0    0    0  501 -0.00000000000E+00 -0.00000000000E+00 -0.84048429230E+03  0.84048429230E+03  0.00000000000E+00 0.  1.
         23    2    1    2    0    0  0.39569949562E+02 -0.86260899501E+03 -0.49756719510E+03  0.10007501336E+04  0.90926657777E+02 0.  0.
         13    1    3    3    0    0  0.65504226709E+02 -0.61535143113E+03 -0.37475407492E+03  0.72345615222E+03  0.00000000000E+00 0. -1.
        -13    1    3    3    0    0 -0.25934277147E+02 -0.24725756388E+03 -0.12281312017E+03  0.27729398139E+03  0.00000000000E+00 0.  1.
         22    1    1    2    0    0 -0.39569949562E+02  0.86260899501E+03  0.19498868879E+04  0.21325381438E+04  0.00000000000E+00 0. -1.
<mgrwt>
<rscale>  0 0.27763759E+04</rscale>
<asrwt>0</asrwt>
<pdfrwt beam="1">  1        2 0.35273907E+00 0.27763759E+04</pdfrwt>
<pdfrwt beam="2">  1       -2 0.12930528E+00 0.27763759E+04</pdfrwt>
<totfact> 0.17563077E+00</totfact>
</mgrwt>
</event>
<event>
 6    1  0.2238133E-007  0.1229869E+04  0.7818608E-02  0.9087107E-01
          2   -1    0    0  501    0  0.00000000000E+00  0.00000000000E+00  0.18996246364E+04  0.18996246364E+04  0.00000000000E+00 0. -1.
         -2   -1    0    0    0  501 -0.00000000000E+00 -0.00000000000E+00 -0.19906271526E+03  0.19906271526E+03  0.00000000000E+00 0.  1.
         23    2    1    2    0    0  0.41189538534E+03 -0.14050847640E+03  0.12225033749E+03  0.46147389720E+03  0.92803945922E+02 0.  0.
         11    1    3    3    0    0  0.29092955643E+03 -0.14073519795E+03  0.10146404776E+03  0.33873493433E+03  0.00000000000E+00 0.  1.
        -11    1    3    3    0    0  0.12096582891E+03  0.22672155278E+00  0.20786289731E+02  0.12273896287E+03  0.00000000000E+00 0. -1.
         22    1    1    2    0    0 -0.41189538534E+03  0.14050847640E+03  0.15783115837E+04  0.16372134545E+04  0.00000000000E+00 0. -1.
<mgrwt>
<rscale>  0 0.12298690E+04</rscale>
<asrwt>0</asrwt>
<pdfrwt beam="1">  1        2 0.29224993E+00 0.12298690E+04</pdfrwt>
<pdfrwt beam="2">  1       -2 0.30625034E-01 0.12298690E+04</pdfrwt>
<totfact> 0.73863372E+01</totfact>
</mgrwt>
</event>
<event>
 6    1  0.2238133E-007  0.3031426E+04  0.7818608E-02  0.8234814E-01
         -2   -1    0    0    0  501 -0.00000000000E+00  0.00000000000E+00  0.16851523573E+04  0.16851523573E+04  0.00000000000E+00 0.  1.
          2   -1    0    0  501    0  0.00000000000E+00 -0.00000000000E+00 -0.13633100845E+04  0.13633100845E+04  0.00000000000E+00 0. -1.
         23    2    1    2    0    0  0.93790137700E+03  0.11859542652E+04  0.24572642155E+03  0.15345469438E+04  0.91139104487E+02 0.  0.
         13    1    3    3    0    0  0.82959354779E+03  0.10079064717E+04  0.19324649096E+03  0.13196382521E+04  0.00000000000E+00 0. -1.
        -13    1    3    3    0    0  0.10830782921E+03  0.17804779357E+03  0.52479930589E+02  0.21490869172E+03  0.00000000000E+00 0.  1.
         22    1    1    2    0    0 -0.93790137700E+03 -0.11859542652E+04  0.76115851254E+02  0.15139154980E+04  0.00000000000E+00 0.  1.
<mgrwt>
<rscale>  0 0.30314255E+04</rscale>
<asrwt>0</asrwt>
<pdfrwt beam="1">  1        2 0.20974001E+00 0.30314255E+04</pdfrwt>
<pdfrwt beam="2">  1       -2 0.25925421E+00 0.30314255E+04</pdfrwt>
<totfact> 0.73128144E-01</totfact>
</mgrwt>
</event>
<event>
 6    1  0.2238133E-007  0.1247675E+04  0.7818608E-02  0.9072120E-01
         -2   -1    0    0    0  501 -0.00000000000E+00  0.00000000000E+00  0.29248196261E+03  0.29248196261E+03  0.00000000000E+00 0.  1.
          2   -1    0    0  501    0  0.00000000000E+00 -0.00000000000E+00 -0.13305891138E+04  0.13305891138E+04  0.00000000000E+00 0. -1.
         23    2    1    2    0    0 -0.26704315088E+03  0.13661054804E+03  0.18429072936E+03  0.36440866550E+03  0.94106940732E+02 0.  0.
         13    1    3    3    0    0 -0.54978076686E+02  0.62084441861E+02  0.18142374482E+02  0.84889413881E+02  0.00000000000E+00 0.  1.
        -13    1    3    3    0    0 -0.21206507420E+03  0.74526106179E+02  0.16614835488E+03  0.27951925162E+03  0.00000000000E+00 0. -1.
         22    1    1    2    0    0  0.26704315088E+03 -0.13661054804E+03 -0.12223978806E+04  0.12586624109E+04  0.00000000000E+00 0. -1.
<mgrwt>
<rscale>  0 0.12476751E+04</rscale>
<asrwt>0</asrwt>
<pdfrwt beam="1">  1        2 0.20470601E+00 0.12476751E+04</pdfrwt>
<pdfrwt beam="2">  1       -2 0.44997226E-01 0.12476751E+04</pdfrwt>
<totfact> 0.73072136E+01</totfact>
</mgrwt>
</event>
<event>
 6    1  0.2238133E-007  0.4515916E+04  0.7818608E-02  0.7907856E-01
         -2   -1    0    0    0  501 -0.00000000000E+00  0.00000000000E+00  0.17610939224E+04  0.17610939224E+04  0.00000000000E+00 0.  1.
          2   -1    0    0  501    0  0.00000000000E+00 -0.00000000000E+00 -0.28950043201E+04  0.28950043201E+04  0.00000000000E+00 0. -1.
         23    2    1    2    0    0  0.10341495149E+04 -0.44385628269E+03  0.14499856679E+04  0.18377667332E+04  0.91948408034E+02 0.  0.
         11    1    3    3    0    0  0.14561444637E+03 -0.43992070875E+02  0.24138379882E+03  0.28531562808E+03  0.00000000000E+00 0. -1.
        -11    1    3    3    0    0  0.88853506849E+03 -0.39986421182E+03  0.12086018690E+04  0.15524511051E+04  0.00000000000E+00 0.  1.
         22    1    1    2    0    0 -0.10341495149E+04  0.44385628269E+03 -0.25838960656E+04  0.28183315094E+04  0.00000000000E+00 0. -1.
<mgrwt>
<rscale>  0 0.45159161E+04</rscale>
<asrwt>0</asrwt>
<pdfrwt beam="1">  1        2 0.44538528E+00 0.45159161E+04</pdfrwt>
<pdfrwt beam="2">  1       -2 0.27093753E+00 0.45159161E+04</pdfrwt>
<totfact> 0.73211674E-02</totfact>
</mgrwt>
</event>
<event>
 6    1  0.2238133E-007  0.8957110E+03  0.7818608E-02  0.9430959E-01
         -2   -1    0    0    0  501 -0.00000000000E+00  0.00000000000E+00  0.15621570389E+03  0.15621570389E+03  0.00000000000E+00 0.  1.
          2   -1    0    0  501    0  0.00000000000E+00 -0.00000000000E+00 -0.12839589538E+04  0.12839589538E+04  0.00000000000E+00 0. -1.
         23    2    1    2    0    0 -0.65908633799E+02 -0.41240388099E+03 -0.80760240491E+03  0.91395125485E+03  0.93082451384E+02 0.  0.
         11    1    3    3    0    0 -0.23209202050E+01 -0.26837838674E+03 -0.55123917009E+03  0.61310436940E+03  0.00000000000E+00 0.  1.
        -11    1    3    3    0    0 -0.63587713594E+02 -0.14402549425E+03 -0.25636323482E+03  0.30084688545E+03  0.00000000000E+00 0. -1.
         22    1    1    2    0    0  0.65908633799E+02  0.41240388099E+03 -0.32014084501E+03  0.52622340285E+03  0.00000000000E+00 0. -1.
<mgrwt>
<rscale>  0 0.89571101E+03</rscale>
<asrwt>0</asrwt>
<pdfrwt beam="1">  1        2 0.19753214E+00 0.89571101E+03</pdfrwt>
<pdfrwt beam="2">  1       -2 0.24033185E-01 0.89571101E+03</pdfrwt>
<totfact> 0.26066215E+02</totfact>
</mgrwt>
</event>
<event>
 6    1  0.2238133E-007  0.1677405E+04  0.7818608E-02  0.8774357E-01
         -1   -1    0    0    0  501 -0.00000000000E+00  0.00000000000E+00  0.46270459931E+03  0.46270459931E+03  0.00000000000E+00 0.  1.
          1   -1    0    0  501    0  0.00000000000E+00 -0.00000000000E+00 -0.15202393458E+04  0.15202393458E+04  0.00000000000E+00 0. -1.
         23    2    1    2    0    0  0.46434010639E+03  0.65140325125E+03 -0.81865853245E+03  0.11480788208E+04  0.89136165246E+02 0.  0.
         13    1    3    3    0    0  0.74743331283E+02  0.15989257769E+03 -0.20667211863E+03  0.27178220433E+03  0.00000000000E+00 0. -1.
        -13    1    3    3    0    0  0.38959677511E+03  0.49151067356E+03 -0.61198641382E+03  0.87629661651E+03  0.00000000000E+00 0.  1.
         22    1    1    2    0    0 -0.46434010639E+03 -0.65140325125E+03 -0.23887621408E+03  0.83486512432E+03  0.00000000000E+00 0. -1.
<mgrwt>
<rscale>  0 0.16774048E+04</rscale>
<asrwt>0</asrwt>
<pdfrwt beam="1">  1        1 0.23388298E+00 0.16774048E+04</pdfrwt>
<pdfrwt beam="2">  1       -1 0.71185323E-01 0.16774048E+04</pdfrwt>
<totfact> 0.12034597E+01</totfact>
</mgrwt>
</event>
<event>
 6    1  0.2238133E-007  0.1740551E+04  0.7818608E-02  0.8738569E-01
          2   -1    0    0  501    0  0.00000000000E+00  0.00000000000E+00  0.26072025207E+04  0.26072025207E+04  0.00000000000E+00 0. -1.
         -2   -1    0    0    0  501 -0.00000000000E+00 -0.00000000000E+00 -0.29049510959E+03  0.29049510959E+03  0.00000000000E+00 0.  1.
         23    2    1    2    0    0  0.52553897843E+03  0.58281786066E+03  0.17786854409E+04  0.19462064233E+04  0.90164670833E+02 0.  0.
         13    1    3    3    0    0  0.12535939111E+03  0.12378991365E+03  0.49446558303E+03  0.52491440489E+03  0.00000000000E+00 0. -1.
        -13    1    3    3    0    0  0.40017958732E+03  0.45902794701E+03  0.12842198579E+04  0.14212920184E+04  0.00000000000E+00 0.  1.
         22    1    1    2    0    0 -0.52553897843E+03 -0.58281786066E+03  0.53802197020E+03  0.95149120699E+03  0.00000000000E+00 0.  1.
<mgrwt>
<rscale>  0 0.17405512E+04</rscale>
<asrwt>0</asrwt>
<pdfrwt beam="1">  1        2 0.40110806E+00 0.17405512E+04</pdfrwt>
<pdfrwt beam="2">  1       -2 0.44691557E-01 0.17405512E+04</pdfrwt>
<totfact> 0.13599233E+01</totfact>
</mgrwt>
</event>
<event>
 6    1  0.2238133E-007  0.5536346E+03  0.7818608E-02  0.1000656E+00
         -2   -1    0    0    0  501 -0.00000000000E+00  0.00000000000E+00  0.41160171683E+02  0.41160171683E+02  0.00000000000E+00 0.  1.
          2   -1    0    0  501    0  0.00000000000E+00 -0.00000000000E+00 -0.18616982540E+04  0.18616982540E+04  0.00000000000E+00 0. -1.
         23    2    1    2    0    0 -0.18676479525E+03  0.15107746983E+03 -0.13517556381E+04  0.13761113605E+04  0.93454164281E+02 0.  0.
         11    1    3    3    0    0 -0.12977754042E+03  0.49097122199E+02 -0.82189425287E+03  0.83352438495E+03  0.00000000000E+00 0. -1.
        -11    1    3    3    0    0 -0.56987254837E+02  0.10198034763E+03 -0.52986138524E+03  0.54258697560E+03  0.00000000000E+00 0.  1.
         22    1    1    2    0    0  0.18676479525E+03 -0.15107746983E+03 -0.46878244423E+03  0.52674706516E+03  0.00000000000E+00 0.  1.
<mgrwt>
<rscale>  0 0.55363461E+03</rscale>
<asrwt>0</asrwt>
<pdfrwt beam="1">  1        2 0.28641503E+00 0.55363461E+03</pdfrwt>
<pdfrwt beam="2">  1       -2 0.63323359E-02 0.55363461E+03</pdfrwt>
<totfact> 0.11721660E+03</totfact>
</mgrwt>
</event>
<event>
 6    1  0.2238133E-007  0.4154047E+04  0.7818608E-02  0.7974171E-01
         -2   -1    0    0    0  501 -0.00000000000E+00  0.00000000000E+00  0.18985836087E+04  0.18985836087E+04  0.00000000000E+00 0.  1.
          2   -1    0    0  501    0  0.00000000000E+00 -0.00000000000E+00 -0.22722344144E+04  0.22722344144E+04  0.00000000000E+00 0. -1.
         23    2    1    2    0    0  0.20367662677E+04 -0.60811512757E+02 -0.58582989896E+03  0.21221270174E+04  0.90064079528E+02 0.  0.
         11    1    3    3    0    0  0.13544081073E+04 -0.16585429678E+02 -0.42580967514E+03  0.14198627670E+04  0.00000000000E+00 0. -1.
        -11    1    3    3    0    0  0.68235816033E+03 -0.44226083080E+02 -0.16002022382E+03  0.70226425043E+03  0.00000000000E+00 0.  1.
         22    1    1    2    0    0 -0.20367662677E+04  0.60811512757E+02  0.21217909329E+03  0.20486910057E+04  0.00000000000E+00 0.  1.
<mgrwt>
<rscale>  0 0.41540472E+04</rscale>
<asrwt>0</asrwt>
<pdfrwt beam="1">  1        2 0.34957452E+00 0.41540472E+04</pdfrwt>
<pdfrwt beam="2">  1       -2 0.29208979E+00 0.41540472E+04</pdfrwt>
<totfact> 0.13014171E-01</totfact>
</mgrwt>
</event>
<event>
 6    1  0.2238133E-007  0.2814678E+04  0.7818608E-02  0.8298726E-01
          2   -1    0    0  501    0  0.00000000000E+00  0.00000000000E+00  0.16155813562E+04  0.16155813562E+04  0.00000000000E+00 0. -1.
         -2   -1    0    0    0  501 -0.00000000000E+00 -0.00000000000E+00 -0.12259383553E+04  0.12259383553E+04  0.00000000000E+00 0.  1.
         23    2    1    2    0    0 -0.48396414609E+03 -0.40835339136E+03  0.14620717549E+04  0.15960972051E+04  0.94332840495E+02 0.  0.
         13    1    3    3    0    0 -0.31823905917E+03 -0.21218823131E+03  0.91634317651E+03  0.99296765377E+03  0.00000000000E+00 0.  1.
        -13    1    3    3    0    0 -0.16572508692E+03 -0.19616516004E+03  0.54572857837E+03  0.60312955134E+03  0.00000000000E+00 0. -1.
         22    1    1    2    0    0  0.48396414609E+03  0.40835339136E+03 -0.10724287540E+04  0.12454225064E+04  0.00000000000E+00 0.  1.
<mgrwt>
<rscale>  0 0.28146781E+04</rscale>
<asrwt>0</asrwt>
<pdfrwt beam="1">  1        2 0.24855098E+00 0.28146781E+04</pdfrwt>
<pdfrwt beam="2">  1       -2 0.18860590E+00 0.28146781E+04</pdfrwt>
<totfact> 0.15048024E+00</totfact>
</mgrwt>
</event>
<event>
 6    1  0.2238133E-007  0.1229797E+04  0.7818608E-02  0.9087168E-01
          2   -1    0    0  501    0  0.00000000000E+00  0.00000000000E+00  0.28655810584E+04  0.28655810584E+04  0.00000000000E+00 0. -1.
         -2   -1    0    0    0  501 -0.00000000000E+00 -0.00000000000E+00 -0.13194541510E+03  0.13194541510E+03  0.00000000000E+00 0.  1.
         23    2    1    2    0    0 -0.14342705157E+02  0.57705247470E+03  0.18659989035E+04  0.19554186173E+04  0.92275615628E+02 0.  0.
         11    1    3    3    0    0  0.15701212762E+02  0.43823818693E+03  0.13044206785E+04  0.13761586184E+04  0.00000000000E+00 0. -1.
        -11    1    3    3    0    0 -0.30043917919E+02  0.13881428777E+03  0.56157822502E+03  0.57925999888E+03  0.00000000000E+00 0.  1.
         22    1    1    2    0    0  0.14342705157E+02 -0.57705247470E+03  0.86763673981E+03  0.10421078562E+04  0.00000000000E+00 0.  1.
<mgrwt>
<rscale>  0 0.12297972E+04</rscale>
<asrwt>0</asrwt>
<pdfrwt beam="1">  1        2 0.44085858E+00 0.12297972E+04</pdfrwt>
<pdfrwt beam="2">  1       -2 0.20299297E-01 0.12297972E+04</pdfrwt>
<totfact> 0.43740129E+01</totfact>
</mgrwt>
</event>
<event>
 6    1  0.2238133E-007  0.3555026E+04  0.7818608E-02  0.8100872E-01
          2   -1    0    0  501    0  0.00000000000E+00  0.00000000000E+00  0.28702667056E+04  0.28702667056E+04  0.00000000000E+00 0. -1.
         -2   -1    0    0    0  501 -0.00000000000E+00 -0.00000000000E+00 -0.11007868974E+04  0.11007868974E+04  0.00000000000E+00 0.  1.
         23    2    1    2    0    0  0.53780431009E+03 -0.10123232038E+04  0.24010660949E+04  0.26622629466E+04  0.92162137000E+02 0.  0.
         13    1    3    3    0    0  0.24745062126E+03 -0.54179246648E+03  0.11776267760E+04  0.13196877321E+04  0.00000000000E+00 0.  1.
        -13    1    3    3    0    0  0.29035368883E+03 -0.47053073731E+03  0.12234393190E+04  0.13425752145E+04  0.00000000000E+00 0. -1.
         22    1    1    2    0    0 -0.53780431009E+03  0.10123232038E+04 -0.63158628668E+03  0.13087906564E+04  0.00000000000E+00 0.  1.
<mgrwt>
<rscale>  0 0.35550257E+04</rscale>
<asrwt>0</asrwt>
<pdfrwt beam="1">  1        2 0.44157949E+00 0.35550257E+04</pdfrwt>
<pdfrwt beam="2">  1       -2 0.16935183E+00 0.35550257E+04</pdfrwt>
<totfact> 0.36904892E-01</totfact>
</mgrwt>
</event>
<event>
 6    1  0.2238133E-007  0.3434798E+04  0.7818608E-02  0.8129418E-01
          2   -1    0    0  501    0  0.00000000000E+00  0.00000000000E+00  0.24234717898E+04  0.24234717898E+04  0.00000000000E+00 0. -1.
         -2   -1    0    0    0  501 -0.00000000000E+00 -0.00000000000E+00 -0.12170388709E+04  0.12170388709E+04  0.00000000000E+00 0.  1.
         23    2    1    2    0    0 -0.63732109439E+03 -0.67529857601E+03  0.21332662302E+04  0.23285555048E+04  0.95601181893E+02 0.  0.
         11    1    3    3    0    0 -0.69579831176E+02 -0.84480624951E+02  0.33459160844E+03  0.35203674998E+03  0.00000000000E+00 0.  1.
        -11    1    3    3    0    0 -0.56774126322E+03 -0.59081795106E+03  0.17986746217E+04  0.19765187548E+04  0.00000000000E+00 0. -1.
         22    1    1    2    0    0  0.63732109439E+03  0.67529857601E+03 -0.92683331125E+03  0.13119551558E+04  0.00000000000E+00 0.  1.
<mgrwt>
<rscale>  0 0.34347980E+04</rscale>
<asrwt>0</asrwt>
<pdfrwt beam="1">  1        2 0.37284181E+00 0.34347980E+04</pdfrwt>
<pdfrwt beam="2">  1       -2 0.18723675E+00 0.34347980E+04</pdfrwt>
<totfact> 0.51507431E-01</totfact>
</mgrwt>
</event>
<event>
 6    1  0.4960274E-007  0.2734047E+04  0.7818608E-02  0.8324042E-01
          2   -1    0    0  501    0  0.00000000000E+00  0.00000000000E+00  0.17382422871E+04  0.17382422871E+04  0.00000000000E+00 0. -1.
         -2   -1    0    0    0  501 -0.00000000000E+00 -0.00000000000E+00 -0.10750824897E+04  0.10750824897E+04  0.00000000000E+00 0.  1.
         23    2    1    2    0    0 -0.26101736778E+03 -0.13359337140E+03 -0.10411297217E+04  0.10839954212E+04  0.71538246250E+02 0.  0.
         11    1    3    3    0    0 -0.20226285541E+03 -0.13099768236E+03 -0.78262057551E+03  0.81888071211E+03  0.00000000000E+00 0.  1.
        -11    1    3    3    0    0 -0.58754512372E+02 -0.25956890400E+01 -0.25850914620E+03  0.26511470912E+03  0.00000000000E+00 0. -1.
         22    1    1    2    0    0  0.26101736778E+03  0.13359337140E+03  0.17042895191E+04  0.17293293555E+04  0.00000000000E+00 0. -1.
<mgrwt>
<rscale>  0 0.27340474E+04</rscale>
<asrwt>0</asrwt>
<pdfrwt beam="1">  1        2 0.26742189E+00 0.27340474E+04</pdfrwt>
<pdfrwt beam="2">  1       -2 0.16539731E+00 0.27340474E+04</pdfrwt>
<totfact> 0.18791830E+00</totfact>
</mgrwt>
</event>
<event>
 6    1  0.2238133E-007  0.5230750E+04  0.7818608E-02  0.7793865E-01
          2   -1    0    0  501    0  0.00000000000E+00  0.00000000000E+00  0.32390285079E+04  0.32390285079E+04  0.00000000000E+00 0. -1.
         -2   -1    0    0    0  501 -0.00000000000E+00 -0.00000000000E+00 -0.21118017639E+04  0.21118017639E+04  0.00000000000E+00 0.  1.
         23    2    1    2    0    0 -0.79206122637E+03  0.11022241185E+04  0.28497637430E+04  0.31577975072E+04  0.90954449324E+02 0.  0.
         11    1    3    3    0    0 -0.24252666204E+03  0.27241932324E+03  0.79572308342E+03  0.87533233401E+03  0.00000000000E+00 0.  1.
        -11    1    3    3    0    0 -0.54953456432E+03  0.82980479526E+03  0.20540406596E+04  0.22824651732E+04  0.00000000000E+00 0. -1.
         22    1    1    2    0    0  0.79206122637E+03 -0.11022241185E+04 -0.17225369990E+04  0.21930327646E+04  0.00000000000E+00 0.  1.
<mgrwt>
<rscale>  0 0.52307499E+04</rscale>
<asrwt>0</asrwt>
<pdfrwt beam="1">  1        2 0.49831208E+00 0.52307499E+04</pdfrwt>
<pdfrwt beam="2">  1       -2 0.32489258E+00 0.52307499E+04</pdfrwt>
<totfact> 0.19495223E-02</totfact>
</mgrwt>
</event>
<event>
 6    1  0.2238133E-007  0.1304959E+04  0.7818608E-02  0.9025642E-01
          2   -1    0    0  501    0  0.00000000000E+00  0.00000000000E+00  0.87862060624E+03  0.87862060624E+03  0.00000000000E+00 0. -1.
         -2   -1    0    0    0  501 -0.00000000000E+00 -0.00000000000E+00 -0.48454293128E+03  0.48454293128E+03  0.00000000000E+00 0.  1.
         23    2    1    2    0    0  0.11283499555E+03  0.11951761577E+03 -0.45765218845E+03  0.49571903962E+03  0.96310144557E+02 0.  0.
         13    1    3    3    0    0  0.71272006204E+02  0.87053255976E+02 -0.40820231884E+03  0.42342307607E+03  0.00000000000E+00 0. -1.
        -13    1    3    3    0    0  0.41562989347E+02  0.32464359797E+02 -0.49449869613E+02  0.72295963547E+02  0.00000000000E+00 0.  1.
         22    1    1    2    0    0 -0.11283499555E+03 -0.11951761577E+03  0.85172986341E+03  0.86744449790E+03  0.00000000000E+00 0. -1.
<mgrwt>
<rscale>  0 0.13049589E+04</rscale>
<asrwt>0</asrwt>
<pdfrwt beam="1">  1        2 0.13517240E+00 0.13049589E+04</pdfrwt>
<pdfrwt beam="2">  1       -2 0.74545066E-01 0.13049589E+04</pdfrwt>
<totfact> 0.48105610E+01</totfact>
</mgrwt>
</event>
<event>
 6    1  0.2238133E-007  0.1682294E+04  0.7818608E-02  0.8771528E-01
         -2   -1    0    0    0  501 -0.00000000000E+00  0.00000000000E+00  0.13829684910E+04  0.13829684910E+04  0.00000000000E+00 0.  1.
          2   -1    0    0  501    0  0.00000000000E+00 -0.00000000000E+00 -0.51160113636E+03  0.51160113636E+03  0.00000000000E+00 0. -1.
         23    2    1    2    0    0 -0.70315154991E+03  0.44730340262E+03  0.54427941598E+03  0.99931047174E+03  0.88763168834E+02 0.  0.
         13    1    3    3    0    0 -0.37725120790E+03  0.26573379999E+03  0.34652200118E+03  0.57707055342E+03  0.00000000000E+00 0. -1.
        -13    1    3    3    0    0 -0.32590034201E+03  0.18156960262E+03  0.19775741481E+03  0.42223991833E+03  0.00000000000E+00 0.  1.
         22    1    1    2    0    0  0.70315154991E+03 -0.44730340262E+03  0.32708793868E+03  0.89525915564E+03  0.00000000000E+00 0. -1.
<mgrwt>
<rscale>  0 0.16822940E+04</rscale>
<asrwt>0</asrwt>
<pdfrwt beam="1">  1        2 0.78707868E-01 0.16822940E+04</pdfrwt>
<pdfrwt beam="2">  1       -2 0.21276438E+00 0.16822940E+04</pdfrwt>
<totfact> 0.62740214E+00</totfact>
</mgrwt>
</event>
<event>
 6    1  0.2238133E-007  0.3546702E+04  0.7818608E-02  0.8102811E-01
          2   -1    0    0  501    0  0.00000000000E+00  0.00000000000E+00  0.28490372057E+04  0.28490372057E+04  0.00000000000E+00 0. -1.
         -2   -1    0    0    0  501 -0.00000000000E+00 -0.00000000000E+00 -0.11038020999E+04  0.11038020999E+04  0.00000000000E+00 0.  1.
         23    2    1    2    0    0  0.17258743052E+03 -0.16719133580E+04  0.24725422476E+03  0.17013892356E+04  0.92249561107E+02 0.  0.
         13    1    3    3    0    0  0.52024105772E+02 -0.78559847709E+03  0.15196254554E+03  0.80185041625E+03  0.00000000000E+00 0. -1.
        -13    1    3    3    0    0  0.12056332474E+03 -0.88631488086E+03  0.95291679214E+02  0.89953881931E+03  0.00000000000E+00 0.  1.
         22    1    1    2    0    0 -0.17258743052E+03  0.16719133580E+04  0.14979808811E+04  0.22514500700E+04  0.00000000000E+00 0. -1.
<mgrwt>
<rscale>  0 0.35467017E+04</rscale>
<asrwt>0</asrwt>
<pdfrwt beam="1">  1        2 0.43831341E+00 0.35467017E+04</pdfrwt>
<pdfrwt beam="2">  1       -2 0.16981571E+00 0.35467017E+04</pdfrwt>
<totfact> 0.37763186E-01</totfact>
</mgrwt>
</event>
<event>
 6    1  0.2238133E-007  0.3915063E+04  0.7818608E-02  0.8021904E-01
          2   -1    0    0  501    0  0.00000000000E+00  0.00000000000E+00  0.46781257031E+04  0.46781257031E+04  0.00000000000E+00 0. -1.
         -2   -1    0    0    0  501 -0.00000000000E+00 -0.00000000000E+00 -0.81911630971E+03  0.81911630971E+03  0.00000000000E+00 0.  1.
         23    2    1    2    0    0 -0.89647947017E+03  0.67618279591E+03 -0.31904287106E+03  0.11709249488E+04  0.91532880574E+02 0.  0.
         13    1    3    3    0    0 -0.28147725533E+03  0.21829717940E+03 -0.57567058729E+02  0.36082831104E+03  0.00000000000E+00 0.  1.
        -13    1    3    3    0    0 -0.61500221484E+03  0.45788561652E+03 -0.26147581233E+03  0.81009663775E+03  0.00000000000E+00 0. -1.
         22    1    1    2    0    0  0.89647947017E+03 -0.67618279591E+03  0.41780522645E+04  0.43263170640E+04  0.00000000000E+00 0. -1.
<mgrwt>
<rscale>  0 0.39150627E+04</rscale>
<asrwt>0</asrwt>
<pdfrwt beam="1">  1        2 0.71971163E+00 0.39150627E+04</pdfrwt>
<pdfrwt beam="2">  1       -2 0.12601790E+00 0.39150627E+04</pdfrwt>
<totfact> 0.29971400E-02</totfact>
</mgrwt>
</event>
<event>
 6    1  0.2238133E-007  0.2674548E+04  0.7818608E-02  0.8343311E-01
          2   -1    0    0  501    0  0.00000000000E+00  0.00000000000E+00  0.20809428915E+04  0.20809428915E+04  0.00000000000E+00 0. -1.
         -2   -1    0    0    0  501 -0.00000000000E+00 -0.00000000000E+00 -0.85937069126E+03  0.85937069126E+03  0.00000000000E+00 0.  1.
         23    2    1    2    0    0  0.80029873032E+03 -0.45621084312E+03 -0.45191144255E+03  0.10300377142E+04  0.90262670645E+02 0.  0.
         11    1    3    3    0    0  0.31581907038E+03 -0.20424924988E+03 -0.22807917337E+03  0.43986310441E+03  0.00000000000E+00 0. -1.
        -11    1    3    3    0    0  0.48447965994E+03 -0.25196159325E+03 -0.22383226918E+03  0.59017460984E+03  0.00000000000E+00 0.  1.
         22    1    1    2    0    0 -0.80029873032E+03  0.45621084312E+03  0.16734836428E+04  0.19102758685E+04  0.00000000000E+00 0. -1.
<mgrwt>
<rscale>  0 0.26745477E+04</rscale>
<asrwt>0</asrwt>
<pdfrwt beam="1">  1        2 0.32014506E+00 0.26745477E+04</pdfrwt>
<pdfrwt beam="2">  1       -2 0.13221088E+00 0.26745477E+04</pdfrwt>
<totfact> 0.22027611E+00</totfact>
</mgrwt>
</event>
<event>
 6    1  0.2238133E-007  0.1164425E+04  0.7818608E-02  0.9144578E-01
         -2   -1    0    0    0  501 -0.00000000000E+00  0.00000000000E+00  0.26166125777E+03  0.26166125777E+03  0.00000000000E+00 0.  1.
          2   -1    0    0  501    0  0.00000000000E+00 -0.00000000000E+00 -0.12954588553E+04  0.12954588553E+04  0.00000000000E+00 0. -1.
         23    2    1    2    0    0 -0.28977975093E+03 -0.13879856624E+03  0.12332743477E+03  0.35621391922E+03  0.91876841677E+02 0.  0.
         11    1    3    3    0    0 -0.18634833452E+03 -0.52020381999E+02  0.40023510366E+02  0.19756948981E+03  0.00000000000E+00 0. -1.
        -11    1    3    3    0    0 -0.10343141641E+03 -0.86778184243E+02  0.83303924403E+02  0.15864442941E+03  0.00000000000E+00 0.  1.
         22    1    1    2    0    0  0.28977975093E+03  0.13879856624E+03 -0.11571250323E+04  0.12009061938E+04  0.00000000000E+00 0. -1.
<mgrwt>
<rscale>  0 0.11644250E+04</rscale>
<asrwt>0</asrwt>
<pdfrwt beam="1">  1        2 0.19930136E+00 0.11644250E+04</pdfrwt>
<pdfrwt beam="2">  1       -2 0.40255579E-01 0.11644250E+04</pdfrwt>
<totfact> 0.96013015E+01</totfact>
</mgrwt>
</event>
<event>
 6    1  0.2238133E-007  0.2794795E+04  0.7818608E-02  0.8304886E-01
          2   -1    0    0  501    0  0.00000000000E+00  0.00000000000E+00  0.15254063052E+04  0.15254063052E+04  0.00000000000E+00 0. -1.
         -2   -1    0    0    0  501 -0.00000000000E+00 -0.00000000000E+00 -0.12801309867E+04  0.12801309867E+04  0.00000000000E+00 0.  1.
         23    2    1    2    0    0  0.80568681526E+03  0.60180301013E+03  0.10946252472E+04  0.14892191659E+04  0.90946055376E+02 0.  0.
         13    1    3    3    0    0  0.45572709178E+03  0.28392593568E+03  0.58720400513E+03  0.79568188541E+03  0.00000000000E+00 0. -1.
        -13    1    3    3    0    0  0.34995972347E+03  0.31787707446E+03  0.50742124211E+03  0.69353728051E+03  0.00000000000E+00 0.  1.
         22    1    1    2    0    0 -0.80568681526E+03 -0.60180301013E+03 -0.84934992878E+03  0.13163181260E+04  0.00000000000E+00 0.  1.
<mgrwt>
<rscale>  0 0.27947951E+04</rscale>
<asrwt>0</asrwt>
<pdfrwt beam="1">  1        2 0.23467789E+00 0.27947951E+04</pdfrwt>
<pdfrwt beam="2">  1       -2 0.19694323E+00 0.27947951E+04</pdfrwt>
<totfact> 0.14896927E+00</totfact>
</mgrwt>
</event>
<event>
 6    1  0.2238133E-007  0.7454399E+03  0.7818608E-02  0.9642532E-01
         -3   -1    0    0    0  501 -0.00000000000E+00  0.00000000000E+00  0.29265983321E+03  0.29265983321E+03  0.00000000000E+00 0.  1.
          3   -1    0    0  501    0  0.00000000000E+00 -0.00000000000E+00 -0.47468130857E+03  0.47468130857E+03  0.00000000000E+00 0. -1.
         23    2    1    2    0    0 -0.17922107954E+03 -0.20323061303E+03  0.16275271151E+03  0.32882989066E+03  0.90651941299E+02 0.  0.
         11    1    3    3    0    0 -0.73949769840E+02 -0.25611261930E+02  0.57252644356E+02  0.96965821209E+02  0.00000000000E+00 0.  1.
        -11    1    3    3    0    0 -0.10527130970E+03 -0.17761935110E+03  0.10550006715E+03  0.23186406945E+03  0.00000000000E+00 0. -1.
         22    1    1    2    0    0  0.17922107954E+03  0.20323061303E+03 -0.34477418687E+03  0.43851125112E+03  0.00000000000E+00 0. -1.
<mgrwt>
<rscale>  0 0.74543988E+03</rscale>
<asrwt>0</asrwt>
<pdfrwt beam="1">  1        3 0.73027894E-01 0.74543988E+03</pdfrwt>
<pdfrwt beam="2">  1       -3 0.45024589E-01 0.74543988E+03</pdfrwt>
<totfact> 0.23028451E+01</totfact>
</mgrwt>
</event>
<event>
 6    1  0.2238133E-007  0.2601801E+04  0.7818608E-02  0.8367590E-01
         -2   -1    0    0    0  501 -0.00000000000E+00  0.00000000000E+00  0.98812473081E+03  0.98812473081E+03  0.00000000000E+00 0.  1.
          2   -1    0    0  501    0  0.00000000000E+00 -0.00000000000E+00 -0.17126805931E+04  0.17126805931E+04  0.00000000000E+00 0. -1.
         23    2    1    2    0    0  0.41666807281E+03  0.45224414337E+03 -0.15507943834E+04  0.16708504017E+04  0.92955888133E+02 0.  0.
         11    1    3    3    0    0  0.31791303477E+03  0.34877240032E+03 -0.10751024718E+04  0.11741193337E+04  0.00000000000E+00 0. -1.
        -11    1    3    3    0    0  0.98755038036E+02  0.10347174306E+03 -0.47569191153E+03  0.49673106793E+03  0.00000000000E+00 0.  1.
         22    1    1    2    0    0 -0.41666807281E+03 -0.45224414337E+03  0.82623852109E+03  0.10299549222E+04  0.00000000000E+00 0.  1.
<mgrwt>
<rscale>  0 0.26018010E+04</rscale>
<asrwt>0</asrwt>
<pdfrwt beam="1">  1        2 0.26348932E+00 0.26018010E+04</pdfrwt>
<pdfrwt beam="2">  1       -2 0.15201919E+00 0.26018010E+04</pdfrwt>
<totfact> 0.24679216E+00</totfact>
</mgrwt>
</event>
<event>
 6    1  0.2238133E-007  0.5270055E+04  0.7818608E-02  0.7788147E-01
          2   -1    0    0  501    0  0.00000000000E+00  0.00000000000E+00  0.36316142932E+04  0.36316142932E+04  0.00000000000E+00 0. -1.
         -2   -1    0    0    0  501 -0.00000000000E+00 -0.00000000000E+00 -0.19119240603E+04  0.19119240603E+04  0.00000000000E+00 0.  1.
         23    2    1    2    0    0 -0.19028394687E+03  0.25989177857E+04  0.12658235637E+04  0.28984340851E+04  0.89605880288E+02 0.  0.
         13    1    3    3    0    0 -0.96363769293E+02  0.14234505887E+04  0.74176079178E+03  0.16080132545E+04  0.00000000000E+00 0.  1.
        -13    1    3    3    0    0 -0.93920177578E+02  0.11754671970E+04  0.52406277190E+03  0.12904208305E+04  0.00000000000E+00 0. -1.
         22    1    1    2    0    0  0.19028394687E+03 -0.25989177857E+04  0.45386666920E+03  0.26451042684E+04  0.00000000000E+00 0.  1.
<mgrwt>
<rscale>  0 0.52700553E+04</rscale>
<asrwt>0</asrwt>
<pdfrwt beam="1">  1        2 0.55870989E+00 0.52700553E+04</pdfrwt>
<pdfrwt beam="2">  1       -2 0.29414216E+00 0.52700553E+04</pdfrwt>
<totfact> 0.16070218E-02</totfact>
</mgrwt>
</event>
<event>
 6    1  0.2238133E-007  0.1854778E+04  0.7818608E-02  0.8677699E-01
          2   -1    0    0  501    0  0.00000000000E+00  0.00000000000E+00  0.37591210396E+04  0.37591210396E+04  0.00000000000E+00 0. -1.
         -2   -1    0    0    0  501 -0.00000000000E+00 -0.00000000000E+00 -0.22879039006E+03  0.22879039006E+03  0.00000000000E+00 0.  1.
         23    2    1    2    0    0  0.80584839687E+03  0.27593584520E+03  0.99306389924E+03  0.13114856803E+04  0.91030502360E+02 0.  0.
         13    1    3    3    0    0  0.48692665820E+03  0.15260478525E+03  0.52841899226E+03  0.73458316230E+03  0.00000000000E+00 0. -1.
        -13    1    3    3    0    0  0.31892173867E+03  0.12333105995E+03  0.46464490698E+03  0.57690251804E+03  0.00000000000E+00 0.  1.
         22    1    1    2    0    0 -0.80584839687E+03 -0.27593584520E+03  0.25372667503E+04  0.26764257494E+04  0.00000000000E+00 0. -1.
<mgrwt>
<rscale>  0 0.18547784E+04</rscale>
<asrwt>0</asrwt>
<pdfrwt beam="1">  1        2 0.57832627E+00 0.18547784E+04</pdfrwt>
<pdfrwt beam="2">  1       -2 0.35198524E-01 0.18547784E+04</pdfrwt>
<totfact> 0.37952197E+00</totfact>
</mgrwt>
</event>
<event>
 6    1  0.2238133E-007  0.1607183E+04  0.7818608E-02  0.8816147E-01
         -2   -1    0    0    0  501 -0.00000000000E+00  0.00000000000E+00  0.16682964656E+04  0.16682964656E+04  0.00000000000E+00 0.  1.
          2   -1    0    0  501    0  0.00000000000E+00 -0.00000000000E+00 -0.38707706036E+03  0.38707706036E+03  0.00000000000E+00 0. -1.
         23    2    1    2    0    0 -0.45288359245E+03  0.50888146198E+03  0.11813030482E+04  0.13668626916E+04  0.93663414595E+02 0.  0.
         13    1    3    3    0    0 -0.24900534146E+03  0.34805462460E+03  0.73499344431E+03  0.85050634621E+03  0.00000000000E+00 0.  1.
        -13    1    3    3    0    0 -0.20387825099E+03  0.16082683738E+03  0.44630960394E+03  0.51635634538E+03  0.00000000000E+00 0. -1.
         22    1    1    2    0    0  0.45288359245E+03 -0.50888146198E+03  0.99916357007E+02  0.68851083438E+03  0.00000000000E+00 0. -1.
<mgrwt>
<rscale>  0 0.16071830E+04</rscale>
<asrwt>0</asrwt>
<pdfrwt beam="1">  1        2 0.59550318E-01 0.16071830E+04</pdfrwt>
<pdfrwt beam="2">  1       -2 0.25666099E+00 0.16071830E+04</pdfrwt>
<totfact> 0.46280063E+00</totfact>
</mgrwt>
</event>
<event>
 6    1  0.2238133E-007  0.3435156E+04  0.7818608E-02  0.8129331E-01
         -2   -1    0    0    0  501 -0.00000000000E+00  0.00000000000E+00  0.12274083198E+04  0.12274083198E+04  0.00000000000E+00 0.  1.
          2   -1    0    0  501    0  0.00000000000E+00 -0.00000000000E+00 -0.24034986666E+04  0.24034986666E+04  0.00000000000E+00 0. -1.
         23    2    1    2    0    0  0.16466658814E+04  0.38204409350E+02 -0.10985283694E+04  0.19819727967E+04  0.92105844011E+02 0.  0.
         11    1    3    3    0    0  0.67341027121E+03 -0.27698378335E+02 -0.43304220345E+03  0.80110807230E+03  0.00000000000E+00 0.  1.
        -11    1    3    3    0    0  0.97325561017E+03  0.65902787686E+02 -0.66548616598E+03  0.11808647244E+04  0.00000000000E+00 0. -1.
         22    1    1    2    0    0 -0.16466658814E+04 -0.38204409350E+02 -0.77561977419E+02  0.16489341898E+04  0.00000000000E+00 0.  1.
<mgrwt>
<rscale>  0 0.34351560E+04</rscale>
<asrwt>0</asrwt>
<pdfrwt beam="1">  1        2 0.36976902E+00 0.34351560E+04</pdfrwt>
<pdfrwt beam="2">  1       -2 0.18883205E+00 0.34351560E+04</pdfrwt>
<totfact> 0.51589513E-01</totfact>
</mgrwt>
</event>
<event>
 6    1  0.2238133E-007  0.2460487E+04  0.7818608E-02  0.8417199E-01
         -2   -1    0    0    0  501 -0.00000000000E+00  0.00000000000E+00  0.39058533161E+03  0.39058533161E+03  0.00000000000E+00 0.  1.
          2   -1    0    0  501    0  0.00000000000E+00 -0.00000000000E+00 -0.38749515701E+04  0.38749515701E+04  0.00000000000E+00 0. -1.
         23    2    1    2    0    0 -0.66933088196E+03 -0.10276594742E+04 -0.16188121098E+04  0.20329643874E+04  0.91124799660E+02 0.  0.
         11    1    3    3    0    0 -0.34058256743E+03 -0.49397328882E+03 -0.72117461560E+03  0.93813587581E+03  0.00000000000E+00 0.  1.
        -11    1    3    3    0    0 -0.32874831452E+03 -0.53368618542E+03 -0.89763749418E+03  0.10948285116E+04  0.00000000000E+00 0. -1.
         22    1    1    2    0    0  0.66933088196E+03  0.10276594742E+04 -0.18655541287E+04  0.22325725143E+04  0.00000000000E+00 0. -1.
<mgrwt>
<rscale>  0 0.24604871E+04</rscale>
<asrwt>0</asrwt>
<pdfrwt beam="1">  1        2 0.59614637E+00 0.24604871E+04</pdfrwt>
<pdfrwt beam="2">  1       -2 0.60090053E-01 0.24604871E+04</pdfrwt>
<totfact> 0.99659584E-01</totfact>
</mgrwt>
</event>
<event>
 6    1  0.2238133E-007  0.1971603E+04  0.7818608E-02  0.8620013E-01
         -2   -1    0    0    0  501 -0.00000000000E+00  0.00000000000E+00  0.73851209139E+03  0.73851209139E+03  0.00000000000E+00 0.  1.
          2   -1    0    0  501    0  0.00000000000E+00 -0.00000000000E+00 -0.13158955145E+04  0.13158955145E+04  0.00000000000E+00 0. -1.
         23    2    1    2    0    0 -0.64716487446E+03 -0.27061097632E+03 -0.10081072327E+04  0.12312577560E+04  0.87537385396E+02 0.  0.
         13    1    3    3    0    0 -0.54008784454E+03 -0.23433442658E+03 -0.89547022213E+03  0.10716689890E+04  0.00000000000E+00 0.  1.
        -13    1    3    3    0    0 -0.10707702992E+03 -0.36276549738E+02 -0.11263701062E+03  0.15958876702E+03  0.00000000000E+00 0. -1.
         22    1    1    2    0    0  0.64716487446E+03  0.27061097632E+03  0.43072380959E+03  0.82314984990E+03  0.00000000000E+00 0.  1.
<mgrwt>
<rscale>  0 0.19716032E+04</rscale>
<asrwt>0</asrwt>
<pdfrwt beam="1">  1        2 0.20244546E+00 0.19716032E+04</pdfrwt>
<pdfrwt beam="2">  1       -2 0.11361725E+00 0.19716032E+04</pdfrwt>
<totfact> 0.91533240E+00</totfact>
</mgrwt>
</event>
<event>
 6    1  0.2238133E-007  0.5198705E+04  0.7818608E-02  0.7798565E-01
         -2   -1    0    0    0  501 -0.00000000000E+00  0.00000000000E+00  0.26541727732E+04  0.26541727732E+04  0.00000000000E+00 0.  1.
          2   -1    0    0  501    0  0.00000000000E+00 -0.00000000000E+00 -0.25456647948E+04  0.25456647948E+04  0.00000000000E+00 0. -1.
         23    2    1    2    0    0 -0.67484671162E+03  0.23952299809E+04  0.80446826446E+03  0.26158666963E+04  0.55178244848E+02 0.  0.
         11    1    3    3    0    0 -0.18736541826E+03  0.73526898819E+03  0.26294707121E+03  0.80303639221E+03  0.00000000000E+00 0. -1.
        -11    1    3    3    0    0 -0.48748129336E+03  0.16599609927E+04  0.54152119325E+03  0.18128303041E+04  0.00000000000E+00 0.  1.
         22    1    1    2    0    0  0.67484671162E+03 -0.23952299809E+04 -0.69596028611E+03  0.25839708717E+04  0.00000000000E+00 0. -1.
<mgrwt>
<rscale>  0 0.51987053E+04</rscale>
<asrwt>0</asrwt>
<pdfrwt beam="1">  1        2 0.39164074E+00 0.51987053E+04</pdfrwt>
<pdfrwt beam="2">  1       -2 0.40833427E+00 0.51987053E+04</pdfrwt>
<totfact> 0.15375953E-02</totfact>
</mgrwt>
</event>
<event>
 6    1  0.2238133E-007  0.1253710E+04  0.7818608E-02  0.9067101E-01
         -2   -1    0    0    0  501 -0.00000000000E+00  0.00000000000E+00  0.23910857116E+03  0.23910857116E+03  0.00000000000E+00 0.  1.
          2   -1    0    0  501    0  0.00000000000E+00 -0.00000000000E+00 -0.16433845193E+04  0.16433845193E+04  0.00000000000E+00 0. -1.
         23    2    1    2    0    0 -0.32402011421E+03  0.34945794098E+03 -0.13095267765E+04  0.13966049423E+04  0.92385603371E+02 0.  0.
         11    1    3    3    0    0 -0.28330046871E+03  0.31381332121E+03 -0.12281169625E+04  0.12988491943E+04  0.00000000000E+00 0. -1.
        -11    1    3    3    0    0 -0.40719645505E+02  0.35644619774E+02 -0.81409814018E+02  0.97755748002E+02  0.00000000000E+00 0.  1.
         22    1    1    2    0    0  0.32402011421E+03 -0.34945794098E+03 -0.94749171631E+02  0.48588814809E+03  0.00000000000E+00 0.  1.
<mgrwt>
<rscale>  0 0.12537102E+04</rscale>
<asrwt>0</asrwt>
<pdfrwt beam="1">  1        2 0.25282839E+00 0.12537102E+04</pdfrwt>
<pdfrwt beam="2">  1       -2 0.36785934E-01 0.12537102E+04</pdfrwt>
<totfact> 0.72164918E+01</totfact>
</mgrwt>
</event>
<event>
 6    1  0.2238133E-007  0.8151687E+03  0.7818608E-02  0.9538317E-01
         -2   -1    0    0    0  501 -0.00000000000E+00  0.00000000000E+00  0.12893952924E+03  0.12893952924E+03  0.00000000000E+00 0.  1.
          2   -1    0    0  501    0  0.00000000000E+00 -0.00000000000E+00 -0.12883947852E+04  0.12883947852E+04  0.00000000000E+00 0. -1.
         23    2    1    2    0    0 -0.31495512818E+02 -0.33768855474E+03 -0.21033606018E+03  0.40943909412E+03  0.91507301638E+02 0.  0.
         11    1    3    3    0    0  0.15489636448E+02 -0.11204972557E+02 -0.18043698381E+01  0.19202499780E+02  0.00000000000E+00 0.  1.
        -11    1    3    3    0    0 -0.46985149266E+02 -0.32648358218E+03 -0.20853169034E+03  0.39023659434E+03  0.00000000000E+00 0. -1.
         22    1    1    2    0    0  0.31495512818E+02  0.33768855474E+03 -0.94911919579E+03  0.10078952203E+04  0.00000000000E+00 0. -1.
<mgrwt>
<rscale>  0 0.81516874E+03</rscale>
<asrwt>0</asrwt>
<pdfrwt beam="1">  1        2 0.19821459E+00 0.81516874E+03</pdfrwt>
<pdfrwt beam="2">  1       -2 0.19836850E-01 0.81516874E+03</pdfrwt>
<totfact> 0.36578099E+02</totfact>
</mgrwt>
</event>
<event>
 6    1  0.2238133E-007  0.2768268E+04  0.7818608E-02  0.8313188E-01
          2   -1    0    0  501    0  0.00000000000E+00  0.00000000000E+00  0.23167407251E+04  0.23167407251E+04  0.00000000000E+00 0. -1.
         -2   -1    0    0    0  501 -0.00000000000E+00 -0.00000000000E+00 -0.82694928078E+03  0.82694928078E+03  0.00000000000E+00 0.  1.
         23    2    1    2    0    0 -0.25258848470E+03  0.47657050289E+03  0.21914778635E+04  0.22586565502E+04  0.89631461310E+02 0.  0.
         11    1    3    3    0    0 -0.20736589159E+03  0.34009260251E+03  0.17318077701E+04  0.17770260954E+04  0.00000000000E+00 0. -1.
        -11    1    3    3    0    0 -0.45222593105E+02  0.13647790038E+03  0.45967009341E+03  0.48163045481E+03  0.00000000000E+00 0.  1.
         22    1    1    2    0    0  0.25258848470E+03 -0.47657050289E+03 -0.70168641916E+03  0.88503345567E+03  0.00000000000E+00 0.  1.
<mgrwt>
<rscale>  0 0.27682681E+04</rscale>
<asrwt>0</asrwt>
<pdfrwt beam="1">  1        2 0.35642165E+00 0.27682681E+04</pdfrwt>
<pdfrwt beam="2">  1       -2 0.12722297E+00 0.27682681E+04</pdfrwt>
<totfact> 0.17746014E+00</totfact>
</mgrwt>
</event>
<event>
 6    1  0.2238133E-007  0.2478278E+04  0.7818608E-02  0.8410765E-01
          1   -1    0    0  501    0  0.00000000000E+00  0.00000000000E+00  0.16048541267E+04  0.16048541267E+04  0.00000000000E+00 0. -1.
         -1   -1    0    0    0  501 -0.00000000000E+00 -0.00000000000E+00 -0.95676318091E+03  0.95676318091E+03  0.00000000000E+00 0.  1.
         23    2    1    2    0    0  0.10467607168E+04  0.20999724923E+03 -0.32223379287E+03  0.11189333709E+04  0.91490045458E+02 0.  0.
         13    1    3    3    0    0  0.10289654030E+04  0.21529205470E+03 -0.32459088315E+03  0.11002180288E+04  0.00000000000E+00 0. -1.
        -13    1    3    3    0    0  0.17795313760E+02 -0.52948054701E+01  0.23570902872E+01  0.18715342140E+02  0.00000000000E+00 0.  1.
         22    1    1    2    0    0 -0.10467607168E+04 -0.20999724923E+03  0.97032473866E+03  0.14426839367E+04  0.00000000000E+00 0. -1.
<mgrwt>
<rscale>  0 0.24782779E+04</rscale>
<asrwt>0</asrwt>
<pdfrwt beam="1">  1        1 0.24690063E+00 0.24782779E+04</pdfrwt>
<pdfrwt beam="2">  1       -1 0.14719434E+00 0.24782779E+04</pdfrwt>
<totfact> 0.18092062E+00</totfact>
</mgrwt>
</event>
<event>
 6    1  0.2238133E-007  0.1960203E+04  0.7818608E-02  0.8625456E-01
          2   -1    0    0  501    0  0.00000000000E+00  0.00000000000E+00  0.26694779724E+04  0.26694779724E+04  0.00000000000E+00 0. -1.
         -2   -1    0    0    0  501 -0.00000000000E+00 -0.00000000000E+00 -0.35984536870E+03  0.35984536870E+03  0.00000000000E+00 0.  1.
         23    2    1    2    0    0  0.30665864238E+03  0.92218879933E+03  0.13251816655E+04  0.16459884741E+04  0.93273284921E+02 0.  0.
         13    1    3    3    0    0  0.53081285349E+02  0.99982936537E+02  0.19611966230E+03  0.22644454596E+03  0.00000000000E+00 0. -1.
        -13    1    3    3    0    0  0.25357735703E+03  0.82220586279E+03  0.11290620032E+04  0.14195439281E+04  0.00000000000E+00 0.  1.
         22    1    1    2    0    0 -0.30665864238E+03 -0.92218879933E+03  0.98445093815E+03  0.13833348670E+04  0.00000000000E+00 0. -1.
<mgrwt>
<rscale>  0 0.19602033E+04</rscale>
<asrwt>0</asrwt>
<pdfrwt beam="1">  1        2 0.41068891E+00 0.19602033E+04</pdfrwt>
<pdfrwt beam="2">  1       -2 0.55360828E-01 0.19602033E+04</pdfrwt>
<totfact> 0.79242899E+00</totfact>
</mgrwt>
</event>
<event>
 6    1  0.2238133E-007  0.1569634E+04  0.7818608E-02  0.8839423E-01
          2   -1    0    0  501    0  0.00000000000E+00  0.00000000000E+00  0.40009272889E+04  0.40009272889E+04  0.00000000000E+00 0. -1.
         -2   -1    0    0    0  501 -0.00000000000E+00 -0.00000000000E+00 -0.15394883750E+03  0.15394883750E+03  0.00000000000E+00 0.  1.
         23    2    1    2    0    0  0.55546767468E+03  0.54408642181E+03  0.21545568531E+04  0.22923871363E+04  0.91373832407E+02 0.  0.
         11    1    3    3    0    0  0.13263312715E+03  0.15030769144E+03  0.67026720351E+03  0.69960136694E+03  0.00000000000E+00 0. -1.
        -11    1    3    3    0    0  0.42283454753E+03  0.39377873036E+03  0.14842896496E+04  0.15927857694E+04  0.00000000000E+00 0.  1.
         22    1    1    2    0    0 -0.55546767468E+03 -0.54408642181E+03  0.16924215983E+04  0.18624889902E+04  0.00000000000E+00 0. -1.
<mgrwt>
<rscale>  0 0.15696345E+04</rscale>
<asrwt>0</asrwt>
<pdfrwt beam="1">  1        2 0.61552720E+00 0.15696345E+04</pdfrwt>
<pdfrwt beam="2">  1       -2 0.23684440E-01 0.15696345E+04</pdfrwt>
<totfact> 0.53044019E+00</totfact>
</mgrwt>
</event>
<event>
 6    1  0.2238133E-007  0.1983005E+04  0.7818608E-02  0.8614608E-01
          2   -1    0    0  501    0  0.00000000000E+00  0.00000000000E+00  0.12514274728E+04  0.12514274728E+04  0.00000000000E+00 0. -1.
         -2   -1    0    0    0  501 -0.00000000000E+00 -0.00000000000E+00 -0.78556437446E+03  0.78556437446E+03  0.00000000000E+00 0.  1.
         23    2    1    2    0    0 -0.45372987861E+03 -0.14658485824E+03 -0.65710825522E+03  0.81698259143E+03  0.91166727571E+02 0.  0.
         13    1    3    3    0    0 -0.32466751319E+03 -0.14475469924E+03 -0.50357047140E+03  0.61639770987E+03  0.00000000000E+00 0.  1.
        -13    1    3    3    0    0 -0.12906236541E+03 -0.18301590056E+01 -0.15353778382E+03  0.20058488156E+03  0.00000000000E+00 0. -1.
         22    1    1    2    0    0  0.45372987861E+03  0.14658485824E+03  0.11229713536E+04  0.12200092558E+04  0.00000000000E+00 0. -1.
<mgrwt>
<rscale>  0 0.19830046E+04</rscale>
<asrwt>0</asrwt>
<pdfrwt beam="1">  1        2 0.19252730E+00 0.19830046E+04</pdfrwt>
<pdfrwt beam="2">  1       -2 0.12085606E+00 0.19830046E+04</pdfrwt>
<totfact> 0.85694158E+00</totfact>
</mgrwt>
</event>
<event>
 6    1  0.2238133E-007  0.1711490E+04  0.7818608E-02  0.8754838E-01
          2   -1    0    0  501    0  0.00000000000E+00  0.00000000000E+00  0.16519742435E+04  0.16519742435E+04  0.00000000000E+00 0. -1.
         -2   -1    0    0    0  501 -0.00000000000E+00 -0.00000000000E+00 -0.44328724483E+03  0.44328724483E+03  0.00000000000E+00 0.  1.
         23    2    1    2    0    0 -0.28420411853E+03  0.80295817727E+03  0.53934703663E+03  0.10119656838E+04  0.87552862771E+02 0.  0.
         13    1    3    3    0    0 -0.76890719194E+02  0.16960100388E+03  0.15754836756E+03  0.24392246993E+03  0.00000000000E+00 0. -1.
        -13    1    3    3    0    0 -0.20731339933E+03  0.63335717340E+03  0.38179866908E+03  0.76804321385E+03  0.00000000000E+00 0.  1.
         22    1    1    2    0    0  0.28420411853E+03 -0.80295817727E+03  0.66933996208E+03  0.10832958046E+04  0.00000000000E+00 0. -1.
<mgrwt>
<rscale>  0 0.17114895E+04</rscale>
<asrwt>0</asrwt>
<pdfrwt beam="1">  1        2 0.25414988E+00 0.17114895E+04</pdfrwt>
<pdfrwt beam="2">  1       -2 0.68198039E-01 0.17114895E+04</pdfrwt>
<totfact> 0.19509780E+01</totfact>
</mgrwt>
</event>
<event>
 6    1  0.2238133E-007  0.1649425E+04  0.7818608E-02  0.8790747E-01
          2   -1    0    0  501    0  0.00000000000E+00  0.00000000000E+00  0.26658814455E+04  0.26658814455E+04  0.00000000000E+00 0. -1.
         -2   -1    0    0    0  501 -0.00000000000E+00 -0.00000000000E+00 -0.25513165606E+03  0.25513165606E+03  0.00000000000E+00 0.  1.
         23    2    1    2    0    0  0.12028825998E+03  0.72344274222E+03  0.55044090980E+03  0.92136618412E+03  0.89954340037E+02 0.  0.
         13    1    3    3    0    0  0.10168523365E+03  0.41198465338E+03  0.35442003955E+03  0.55288769727E+03  0.00000000000E+00 0.  1.
        -13    1    3    3    0    0  0.18603026334E+02  0.31145808884E+03  0.19602087026E+03  0.36847848684E+03  0.00000000000E+00 0. -1.
         22    1    1    2    0    0 -0.12028825998E+03 -0.72344274222E+03  0.18603088796E+04  0.19996469174E+04  0.00000000000E+00 0. -1.
<mgrwt>
<rscale>  0 0.16494250E+04</rscale>
<asrwt>0</asrwt>
<pdfrwt beam="1">  1        2 0.41013559E+00 0.16494250E+04</pdfrwt>
<pdfrwt beam="2">  1       -2 0.39251026E-01 0.16494250E+04</pdfrwt>
<totfact> 0.16359917E+01</totfact>
</mgrwt>
</event>
<event>
 6    1  0.2238133E-007  0.5518055E+03  0.7818608E-02  0.1001077E+00
          2   -1    0    0  501    0  0.00000000000E+00  0.00000000000E+00  0.24933833868E+04  0.24933833868E+04  0.00000000000E+00 0. -1.
         -2   -1    0    0    0  501 -0.00000000000E+00 -0.00000000000E+00 -0.30529729500E+02  0.30529729500E+02  0.00000000000E+00 0.  1.
         23    2    1    2    0    0 -0.21061715178E+03  0.12415584843E+03  0.17714398584E+04  0.17905460182E+04  0.91003361959E+02 0.  0.
         11    1    3    3    0    0 -0.13658221137E+03  0.11823354860E+03  0.10649753699E+04  0.10801881368E+04  0.00000000000E+00 0.  1.
        -11    1    3    3    0    0 -0.74034940409E+02  0.59222998328E+01  0.70646448859E+03  0.71035788141E+03  0.00000000000E+00 0. -1.
         22    1    1    2    0    0  0.21061715178E+03 -0.12415584843E+03  0.69141379886E+03  0.73336709810E+03  0.00000000000E+00 0.  1.
<mgrwt>
<rscale>  0 0.55180547E+03</rscale>
<asrwt>0</asrwt>
<pdfrwt beam="1">  1        2 0.38359728E+00 0.55180547E+03</pdfrwt>
<pdfrwt beam="2">  1       -2 0.46968834E-02 0.55180547E+03</pdfrwt>
<totfact> 0.84257058E+02</totfact>
</mgrwt>
</event>
<event>
 6    1  0.2238133E-007  0.6922555E+03  0.7818608E-02  0.9730569E-01
         -2   -1    0    0    0  501 -0.00000000000E+00  0.00000000000E+00  0.22007031378E+03  0.22007031378E+03  0.00000000000E+00 0.  1.
          2   -1    0    0  501    0  0.00000000000E+00 -0.00000000000E+00 -0.54439162292E+03  0.54439162292E+03  0.00000000000E+00 0. -1.
         23    2    1    2    0    0  0.64888732523E+02 -0.13032150286E+03  0.17444670579E+03  0.24488155366E+03  0.91329515736E+02 0.  0.
         13    1    3    3    0    0  0.87506151415E+02 -0.92297758415E+02  0.12162648663E+03  0.17598069495E+03  0.00000000000E+00 0. -1.
        -13    1    3    3    0    0 -0.22617418892E+02 -0.38023744448E+02  0.52820219165E+02  0.68900858716E+02  0.00000000000E+00 0.  1.
         22    1    1    2    0    0 -0.64888732523E+02  0.13032150286E+03 -0.49876801494E+03  0.51958038304E+03  0.00000000000E+00 0. -1.
<mgrwt>
<rscale>  0 0.69225555E+03</rscale>
<asrwt>0</asrwt>
<pdfrwt beam="1">  1        2 0.83752557E-01 0.69225555E+03</pdfrwt>
<pdfrwt beam="2">  1       -2 0.33856972E-01 0.69225555E+03</pdfrwt>
<totfact> 0.45797580E+02</totfact>
</mgrwt>
</event>
<event>
 6    1  0.2238133E-007  0.1887662E+04  0.7818608E-02  0.8661022E-01
          2   -1    0    0  501    0  0.00000000000E+00  0.00000000000E+00  0.16708108994E+04  0.16708108994E+04  0.00000000000E+00 0. -1.
         -2   -1    0    0    0  501 -0.00000000000E+00 -0.00000000000E+00 -0.53316465463E+03  0.53316465463E+03  0.00000000000E+00 0.  1.
         23    2    1    2    0    0 -0.29448329586E+03 -0.38132376199E+03  0.15147640812E+04  0.15921372703E+04  0.90899080391E+02 0.  0.
         13    1    3    3    0    0 -0.13224830099E+03 -0.10175153285E+03  0.53745113306E+03  0.56275812565E+03  0.00000000000E+00 0. -1.
        -13    1    3    3    0    0 -0.16223499487E+03 -0.27957222914E+03  0.97731294810E+03  0.10293791446E+04  0.00000000000E+00 0.  1.
         22    1    1    2    0    0  0.29448329586E+03  0.38132376199E+03 -0.37711783637E+03  0.61183828379E+03  0.00000000000E+00 0.  1.
<mgrwt>
<rscale>  0 0.18876624E+04</rscale>
<asrwt>0</asrwt>
<pdfrwt beam="1">  1        2 0.25704783E+00 0.18876624E+04</pdfrwt>
<pdfrwt beam="2">  1       -2 0.82025332E-01 0.18876624E+04</pdfrwt>
<totfact> 0.12468914E+01</totfact>
</mgrwt>
</event>
<event>
 6    1  0.2238133E-007  0.2094799E+04  0.7818608E-02  0.8563538E-01
         -2   -1    0    0    0  501 -0.00000000000E+00  0.00000000000E+00  0.14613334212E+04  0.14613334212E+04  0.00000000000E+00 0.  1.
          2   -1    0    0  501    0  0.00000000000E+00 -0.00000000000E+00 -0.75071578699E+03  0.75071578699E+03  0.00000000000E+00 0. -1.
         23    2    1    2    0    0  0.25077819274E+03 -0.39077123257E+03 -0.63353198098E+03  0.78996269671E+03  0.84180954568E+02 0.  0.
         11    1    3    3    0    0  0.15627590957E+03 -0.16813712826E+03 -0.29071710278E+03  0.37041691060E+03  0.00000000000E+00 0. -1.
        -11    1    3    3    0    0  0.94502283168E+02 -0.22263410431E+03 -0.34281487820E+03  0.41954578610E+03  0.00000000000E+00 0.  1.
         22    1    1    2    0    0 -0.25077819274E+03  0.39077123257E+03  0.13441496152E+04  0.14220865115E+04  0.00000000000E+00 0.  1.
<mgrwt>
<rscale>  0 0.20947993E+04</rscale>
<asrwt>0</asrwt>
<pdfrwt beam="1">  1        2 0.11549474E+00 0.20947993E+04</pdfrwt>
<pdfrwt beam="2">  1       -2 0.22482053E+00 0.20947993E+04</pdfrwt>
<totfact> 0.31803109E+00</totfact>
</mgrwt>
</event>
<event>
 6    1  0.2238133E-007  0.4212535E+04  0.7818608E-02  0.7962992E-01
          2   -1    0    0  501    0  0.00000000000E+00  0.00000000000E+00  0.12835643919E+04  0.12835643919E+04  0.00000000000E+00 0. -1.
         -2   -1    0    0    0  501 -0.00000000000E+00 -0.00000000000E+00 -0.34562836871E+04  0.34562836871E+04  0.00000000000E+00 0.  1.
         23    2    1    2    0    0 -0.10028766957E+04  0.16470445801E+04 -0.20373990375E+04  0.28067601121E+04  0.91596797615E+02 0.  0.
         13    1    3    3    0    0 -0.19105470502E+03  0.36370858324E+03 -0.39519103477E+03  0.57005419724E+03  0.00000000000E+00 0. -1.
        -13    1    3    3    0    0 -0.81182199065E+03  0.12833359969E+04 -0.16422080027E+04  0.22367059148E+04  0.00000000000E+00 0.  1.
         22    1    1    2    0    0  0.10028766957E+04 -0.16470445801E+04 -0.13532025775E+03  0.19330879669E+04  0.00000000000E+00 0. -1.
<mgrwt>
<rscale>  0 0.42125349E+04</rscale>
<asrwt>0</asrwt>
<pdfrwt beam="1">  1        2 0.19747145E+00 0.42125349E+04</pdfrwt>
<pdfrwt beam="2">  1       -2 0.53173595E+00 0.42125349E+04</pdfrwt>
<totfact> 0.14068733E-02</totfact>
</mgrwt>
</event>
<event>
 6    1  0.2238133E-007  0.1569953E+04  0.7818608E-02  0.8839222E-01
          2   -1    0    0  501    0  0.00000000000E+00  0.00000000000E+00  0.69778393706E+03  0.69778393706E+03  0.00000000000E+00 0. -1.
         -2   -1    0    0    0  501 -0.00000000000E+00 -0.00000000000E+00 -0.88306463520E+03  0.88306463520E+03  0.00000000000E+00 0.  1.
         23    2    1    2    0    0  0.65145624454E+02  0.77840461052E+03 -0.13376168370E+03  0.79802554059E+03  0.93781050046E+02 0.  0.
         11    1    3    3    0    0  0.52785832239E+02  0.34197400303E+03 -0.99661899791E+02  0.36009034575E+03  0.00000000000E+00 0.  1.
        -11    1    3    3    0    0  0.12359792215E+02  0.43643060749E+03 -0.34099783905E+02  0.43793519484E+03  0.00000000000E+00 0. -1.
         22    1    1    2    0    0 -0.65145624454E+02 -0.77840461052E+03 -0.51519014441E+02  0.78282303167E+03  0.00000000000E+00 0.  1.
<mgrwt>
<rscale>  0 0.15699533E+04</rscale>
<asrwt>0</asrwt>
<pdfrwt beam="1">  1        2 0.10735138E+00 0.15699533E+04</pdfrwt>
<pdfrwt beam="2">  1       -2 0.13585610E+00 0.15699533E+04</pdfrwt>
<totfact> 0.15342265E+01</totfact>
</mgrwt>
</event>
<event>
 6    1  0.2238133E-007  0.1406749E+04  0.7818608E-02  0.8948948E-01
         -2   -1    0    0    0  501 -0.00000000000E+00  0.00000000000E+00  0.53335427496E+03  0.53335427496E+03  0.00000000000E+00 0.  1.
          2   -1    0    0  501    0  0.00000000000E+00 -0.00000000000E+00 -0.92759251637E+03  0.92759251637E+03  0.00000000000E+00 0. -1.
         23    2    1    2    0    0 -0.37199338226E+03  0.38760404999E+03  0.26880516957E+03  0.60757551172E+03  0.90971463915E+02 0.  0.
         13    1    3    3    0    0 -0.12733591372E+03  0.14353842042E+03  0.14493660088E+03  0.24046690278E+03  0.00000000000E+00 0. -1.
        -13    1    3    3    0    0 -0.24465746854E+03  0.24406562958E+03  0.12386856869E+03  0.36710860895E+03  0.00000000000E+00 0.  1.
         22    1    1    2    0    0  0.37199338226E+03 -0.38760404999E+03 -0.66304341098E+03  0.85337127960E+03  0.00000000000E+00 0.  1.
<mgrwt>
<rscale>  0 0.14067486E+04</rscale>
<asrwt>0</asrwt>
<pdfrwt beam="1">  1        2 0.14270654E+00 0.14067486E+04</pdfrwt>
<pdfrwt beam="2">  1       -2 0.82054504E-01 0.14067486E+04</pdfrwt>
<totfact> 0.35689871E+01</totfact>
</mgrwt>
</event>
<event>
 6    1  0.2238133E-007  0.4150251E+04  0.7818608E-02  0.7974904E-01
         -2   -1    0    0    0  501 -0.00000000000E+00  0.00000000000E+00  0.16867779596E+04  0.16867779596E+04  0.00000000000E+00 0.  1.
          2   -1    0    0  501    0  0.00000000000E+00 -0.00000000000E+00 -0.25528820981E+04  0.25528820981E+04  0.00000000000E+00 0. -1.
         23    2    1    2    0    0  0.10050779027E+04 -0.14428252211E+04  0.69046012070E+03  0.18912949877E+04  0.91298099662E+02 0.  0.
         13    1    3    3    0    0  0.74902104741E+03 -0.10609241486E+04  0.46729536024E+03  0.13802019896E+04  0.00000000000E+00 0.  1.
        -13    1    3    3    0    0  0.25605685525E+03 -0.38190107255E+03  0.22316476045E+03  0.51109299804E+03  0.00000000000E+00 0. -1.
         22    1    1    2    0    0 -0.10050779027E+04  0.14428252211E+04 -0.15565642592E+04  0.23483650700E+04  0.00000000000E+00 0. -1.
<mgrwt>
<rscale>  0 0.41502507E+04</rscale>
<asrwt>0</asrwt>
<pdfrwt beam="1">  1        2 0.39275109E+00 0.41502507E+04</pdfrwt>
<pdfrwt beam="2">  1       -2 0.25950430E+00 0.41502507E+04</pdfrwt>
<totfact> 0.14200235E-01</totfact>
</mgrwt>
</event>
<event>
 6    1  0.2238133E-007  0.2035229E+04  0.7818608E-02  0.8590325E-01
          2   -1    0    0  501    0  0.00000000000E+00  0.00000000000E+00  0.87867748302E+03  0.87867748302E+03  0.00000000000E+00 0. -1.
         -2   -1    0    0    0  501 -0.00000000000E+00 -0.00000000000E+00 -0.11785200432E+04  0.11785200432E+04  0.00000000000E+00 0.  1.
         23    2    1    2    0    0 -0.85299209534E+03  0.23625591184E+03 -0.65386193707E+03  0.11039178769E+04  0.87674828784E+02 0.  0.
         11    1    3    3    0    0 -0.28594439818E+03  0.55292066549E+02 -0.25794580784E+03  0.38904684970E+03  0.00000000000E+00 0. -1.
        -11    1    3    3    0    0 -0.56704769716E+03  0.18096384529E+03 -0.39591612922E+03  0.71487102721E+03  0.00000000000E+00 0.  1.
         22    1    1    2    0    0  0.85299209534E+03 -0.23625591184E+03  0.35401937689E+03  0.95327964932E+03  0.00000000000E+00 0. -1.
<mgrwt>
<rscale>  0 0.20352288E+04</rscale>
<asrwt>0</asrwt>
<pdfrwt beam="1">  1        2 0.13518115E+00 0.20352288E+04</pdfrwt>
<pdfrwt beam="2">  1       -2 0.18131078E+00 0.20352288E+04</pdfrwt>
<totfact> 0.49863580E+00</totfact>
</mgrwt>
</event>
<event>
 6    1  0.2238133E-007  0.2582527E+04  0.7818608E-02  0.8374161E-01
         -2   -1    0    0    0  501 -0.00000000000E+00  0.00000000000E+00  0.10958378365E+04  0.10958378365E+04  0.00000000000E+00 0.  1.
          2   -1    0    0  501    0  0.00000000000E+00 -0.00000000000E+00 -0.15215398440E+04  0.15215398440E+04  0.00000000000E+00 0. -1.
         23    2    1    2    0    0  0.11046969207E+04  0.24707656761E+03  0.41322455794E+03  0.12084064604E+04  0.89941766198E+02 0.  0.
         11    1    3    3    0    0  0.52618156695E+03  0.14558349386E+03  0.16104482420E+03  0.56920737037E+03  0.00000000000E+00 0. -1.
        -11    1    3    3    0    0  0.57851535377E+03  0.10149307375E+03  0.25217973374E+03  0.63919909002E+03  0.00000000000E+00 0.  1.
         22    1    1    2    0    0 -0.11046969207E+04 -0.24707656761E+03 -0.83892656545E+03  0.14089712201E+04  0.00000000000E+00 0. -1.
<mgrwt>
<rscale>  0 0.25825266E+04</rscale>
<asrwt>0</asrwt>
<pdfrwt beam="1">  1        2 0.23408305E+00 0.25825266E+04</pdfrwt>
<pdfrwt beam="2">  1       -2 0.16859044E+00 0.25825266E+04</pdfrwt>
<totfact> 0.23854328E+00</totfact>
</mgrwt>
</event>
<event>
 6    1  0.2238133E-007  0.5448519E+04  0.7818608E-02  0.7762813E-01
          2   -1    0    0  501    0  0.00000000000E+00  0.00000000000E+00  0.35471348910E+04  0.35471348910E+04  0.00000000000E+00 0. -1.
         -2   -1    0    0    0  501 -0.00000000000E+00 -0.00000000000E+00 -0.20922776716E+04  0.20922776716E+04  0.00000000000E+00 0.  1.
         23    2    1    2    0    0 -0.10239086478E+03  0.21691369019E+04  0.24289114154E+04  0.32594082842E+04  0.92156987803E+02 0.  0.
         13    1    3    3    0    0 -0.36346417704E+02  0.11689590695E+04  0.13706462352E+04  0.18017928488E+04  0.00000000000E+00 0. -1.
        -13    1    3    3    0    0 -0.66044447074E+02  0.10001778325E+04  0.10582651802E+04  0.14576154353E+04  0.00000000000E+00 0.  1.
         22    1    1    2    0    0  0.10239086478E+03 -0.21691369019E+04 -0.97405419602E+03  0.23800042784E+04  0.00000000000E+00 0. -1.
<mgrwt>
<rscale>  0 0.54485195E+04</rscale>
<asrwt>0</asrwt>
<pdfrwt beam="1">  1        2 0.54571306E+00 0.54485195E+04</pdfrwt>
<pdfrwt beam="2">  1       -2 0.32188887E+00 0.54485195E+04</pdfrwt>
<totfact> 0.12306298E-02</totfact>
</mgrwt>
</event>
<event>
 6    1  0.2238133E-007  0.4980719E+03  0.7818608E-02  0.1014283E+00
         -2   -1    0    0    0  501 -0.00000000000E+00  0.00000000000E+00  0.22342289071E+02  0.22342289071E+02  0.00000000000E+00 0.  1.
          2   -1    0    0  501    0  0.00000000000E+00 -0.00000000000E+00 -0.27758527709E+04  0.27758527709E+04  0.00000000000E+00 0. -1.
         23    2    1    2    0    0 -0.21026389902E+03 -0.11410969006E+03 -0.15729497184E+04  0.15936388576E+04  0.91005841252E+02 0.  0.
         13    1    3    3    0    0 -0.19705157405E+03 -0.10234114694E+03 -0.15426756003E+04  0.15585733993E+04  0.00000000000E+00 0. -1.
        -13    1    3    3    0    0 -0.13212324968E+02 -0.11768543123E+02 -0.30274118131E+02  0.35065458316E+02  0.00000000000E+00 0.  1.
         22    1    1    2    0    0  0.21026389902E+03  0.11410969006E+03 -0.11805607634E+04  0.12045562024E+04  0.00000000000E+00 0. -1.
<mgrwt>
<rscale>  0 0.49807190E+03</rscale>
<asrwt>0</asrwt>
<pdfrwt beam="1">  1        2 0.42705405E+00 0.49807190E+03</pdfrwt>
<pdfrwt beam="2">  1       -2 0.34372770E-02 0.49807190E+03</pdfrwt>
<totfact> 0.94256483E+02</totfact>
</mgrwt>
</event>
<event>
 6    1  0.2238133E-007  0.3707264E+04  0.7818608E-02  0.8066354E-01
          2   -1    0    0  501    0  0.00000000000E+00  0.00000000000E+00  0.27751217076E+04  0.27751217076E+04  0.00000000000E+00 0. -1.
         -2   -1    0    0    0  501 -0.00000000000E+00 -0.00000000000E+00 -0.12381262389E+04  0.12381262389E+04  0.00000000000E+00 0.  1.
         23    2    1    2    0    0 -0.24726493121E+03 -0.12902280547E+04 -0.64503786018E+03  0.14662697707E+04  0.89692920832E+02 0.  0.
         13    1    3    3    0    0 -0.13537670288E+03 -0.75321424127E+03 -0.32721684166E+03  0.83230367438E+03  0.00000000000E+00 0.  1.
        -13    1    3    3    0    0 -0.11188822833E+03 -0.53701381345E+03 -0.31782101852E+03  0.63396609632E+03  0.00000000000E+00 0. -1.
         22    1    1    2    0    0  0.24726493121E+03  0.12902280547E+04  0.21820333290E+04  0.25469781758E+04  0.00000000000E+00 0. -1.
<mgrwt>
<rscale>  0 0.37072637E+04</rscale>
<asrwt>0</asrwt>
<pdfrwt beam="1">  1        2 0.42694180E+00 0.37072637E+04</pdfrwt>
<pdfrwt beam="2">  1       -2 0.19048096E+00 0.37072637E+04</pdfrwt>
<totfact> 0.29746274E-01</totfact>
</mgrwt>
</event>
<event>
 6    1  0.2238133E-007  0.9982186E+03  0.7818608E-02  0.9310501E-01
         -2   -1    0    0    0  501 -0.00000000000E+00  0.00000000000E+00  0.23219833723E+03  0.23219833723E+03  0.00000000000E+00 0.  1.
          2   -1    0    0  501    0  0.00000000000E+00 -0.00000000000E+00 -0.10728331573E+04  0.10728331573E+04  0.00000000000E+00 0. -1.
         23    2    1    2    0    0  0.11481901175E+03 -0.36801284103E+03 -0.18388407430E+02  0.39689823354E+03  0.92591671516E+02 0.  0.
         13    1    3    3    0    0  0.46297507792E+02 -0.42210766384E+02  0.67870375009E+01  0.63018028409E+02  0.00000000000E+00 0.  1.
        -13    1    3    3    0    0  0.68521503957E+02 -0.32580207465E+03 -0.25175444931E+02  0.33388020513E+03  0.00000000000E+00 0. -1.
         22    1    1    2    0    0 -0.11481901175E+03  0.36801284103E+03 -0.82224641267E+03  0.90813326102E+03  0.00000000000E+00 0. -1.
<mgrwt>
<rscale>  0 0.99821856E+03</rscale>
<asrwt>0</asrwt>
<pdfrwt beam="1">  1        2 0.16505125E+00 0.99821856E+03</pdfrwt>
<pdfrwt beam="2">  1       -2 0.35722822E-01 0.99821856E+03</pdfrwt>
<totfact> 0.16637803E+02</totfact>
</mgrwt>
</event>
<event>
 6    1  0.2238133E-007  0.1819790E+04  0.7818608E-02  0.8695845E-01
         -2   -1    0    0    0  501 -0.00000000000E+00  0.00000000000E+00  0.39643756700E+03  0.39643756700E+03  0.00000000000E+00 0.  1.
          2   -1    0    0  501    0  0.00000000000E+00 -0.00000000000E+00 -0.20883721630E+04  0.20883721630E+04  0.00000000000E+00 0. -1.
         23    2    1    2    0    0  0.48168896374E+03 -0.75168350620E+03 -0.10712984435E+04  0.13975003972E+04  0.90965125097E+02 0.  0.
         11    1    3    3    0    0  0.39584915019E+03 -0.67017281131E+03 -0.91090762351E+03  0.11981572707E+04  0.00000000000E+00 0. -1.
        -11    1    3    3    0    0  0.85839813550E+02 -0.81510694889E+02 -0.16039081997E+03  0.19934312655E+03  0.00000000000E+00 0.  1.
         22    1    1    2    0    0 -0.48168896374E+03  0.75168350620E+03 -0.62063615250E+03  0.10873093327E+04  0.00000000000E+00 0. -1.
<mgrwt>
<rscale>  0 0.18197903E+04</rscale>
<asrwt>0</asrwt>
<pdfrwt beam="1">  1        2 0.32128803E+00 0.18197903E+04</pdfrwt>
<pdfrwt beam="2">  1       -2 0.60990395E-01 0.18197903E+04</pdfrwt>
<totfact> 0.14064800E+01</totfact>
</mgrwt>
</event>
<event>
 6    1  0.2238133E-007  0.1403971E+04  0.7818608E-02  0.8950949E-01
         -1   -1    0    0    0  501 -0.00000000000E+00  0.00000000000E+00  0.16651324023E+04  0.16651324023E+04  0.00000000000E+00 0.  1.
          1   -1    0    0  501    0  0.00000000000E+00 -0.00000000000E+00 -0.29594255295E+03  0.29594255295E+03  0.00000000000E+00 0. -1.
         23    2    1    2    0    0 -0.48040927609E+03  0.23192868817E+03  0.56561340806E+02  0.54418484293E+03  0.91400049549E+02 0.  0.
         13    1    3    3    0    0 -0.15066555270E+03  0.79904430389E+02 -0.24086940189E+02  0.17223532580E+03  0.00000000000E+00 0.  1.
        -13    1    3    3    0    0 -0.32974372339E+03  0.15202425778E+03  0.80648280995E+02  0.37194951713E+03  0.00000000000E+00 0. -1.
         22    1    1    2    0    0  0.48040927609E+03 -0.23192868817E+03  0.13126285085E+04  0.14168901123E+04  0.00000000000E+00 0.  1.
<mgrwt>
<rscale>  0 0.14039708E+04</rscale>
<asrwt>0</asrwt>
<pdfrwt beam="1">  1        1 0.45529625E-01 0.14039708E+04</pdfrwt>
<pdfrwt beam="2">  1       -1 0.25617421E+00 0.14039708E+04</pdfrwt>
<totfact> 0.55347463E+00</totfact>
</mgrwt>
</event>
<event>
 6    1  0.2238133E-007  0.2729868E+04  0.7818608E-02  0.8325378E-01
         -2   -1    0    0    0  501 -0.00000000000E+00  0.00000000000E+00  0.93273060817E+03  0.93273060817E+03  0.00000000000E+00 0.  1.
          2   -1    0    0  501    0  0.00000000000E+00 -0.00000000000E+00 -0.19974090953E+04  0.19974090953E+04  0.00000000000E+00 0. -1.
         23    2    1    2    0    0 -0.67546765608E+03 -0.11534488643E+04 -0.82145053071E+03  0.15715151506E+04  0.90432610164E+02 0.  0.
         13    1    3    3    0    0 -0.26536512736E+03 -0.53843431372E+03 -0.38320247411E+03  0.71216170718E+03  0.00000000000E+00 0.  1.
        -13    1    3    3    0    0 -0.41010252872E+03 -0.61501455062E+03 -0.43824805660E+03  0.85935344338E+03  0.00000000000E+00 0. -1.
         22    1    1    2    0    0  0.67546765608E+03  0.11534488643E+04 -0.24322795646E+03  0.13586245529E+04  0.00000000000E+00 0.  1.
<mgrwt>
<rscale>  0 0.27298678E+04</rscale>
<asrwt>0</asrwt>
<pdfrwt beam="1">  1        2 0.30729371E+00 0.27298678E+04</pdfrwt>
<pdfrwt beam="2">  1       -2 0.14349702E+00 0.27298678E+04</pdfrwt>
<totfact> 0.19757432E+00</totfact>
</mgrwt>
</event>
<event>
 6    1  0.2238133E-007  0.1562968E+04  0.7818608E-02  0.8843627E-01
          2   -1    0    0  501    0  0.00000000000E+00  0.00000000000E+00  0.10398205618E+04  0.10398205618E+04  0.00000000000E+00 0. -1.
         -2   -1    0    0    0  501 -0.00000000000E+00 -0.00000000000E+00 -0.58732930042E+03  0.58732930042E+03  0.00000000000E+00 0.  1.
         23    2    1    2    0    0  0.14755332417E+03  0.45902149623E+03 -0.40970968390E+03  0.63929198400E+03  0.91430291752E+02 0.  0.
         13    1    3    3    0    0  0.12981791737E+03  0.33803643384E+03 -0.25891182465E+03  0.44514790263E+03  0.00000000000E+00 0. -1.
        -13    1    3    3    0    0  0.17735406806E+02  0.12098506239E+03 -0.15079785925E+03  0.19414408137E+03  0.00000000000E+00 0.  1.
         22    1    1    2    0    0 -0.14755332417E+03 -0.45902149623E+03  0.86220094524E+03  0.98785787817E+03  0.00000000000E+00 0. -1.
<mgrwt>
<rscale>  0 0.15629678E+04</rscale>
<asrwt>0</asrwt>
<pdfrwt beam="1">  1        2 0.15997239E+00 0.15629678E+04</pdfrwt>
<pdfrwt beam="2">  1       -2 0.90358354E-01 0.15629678E+04</pdfrwt>
<totfact> 0.23928206E+01</totfact>
</mgrwt>
</event>
<event>
 6    1  0.2238133E-007  0.2311684E+04  0.7818608E-02  0.8473328E-01
         -2   -1    0    0    0  501 -0.00000000000E+00  0.00000000000E+00  0.12727299591E+04  0.12727299591E+04  0.00000000000E+00 0.  1.
          2   -1    0    0  501    0  0.00000000000E+00 -0.00000000000E+00 -0.10496894315E+04  0.10496894315E+04  0.00000000000E+00 0. -1.
         23    2    1    2    0    0  0.65911189029E+03  0.66594437610E+03  0.78864831600E+03  0.12279685848E+04  0.89611845794E+02 0.  0.
         11    1    3    3    0    0  0.74772835556E+02  0.69866864260E+02  0.52523453665E+02  0.11502638325E+03  0.00000000000E+00 0.  1.
        -11    1    3    3    0    0  0.58433905474E+03  0.59607751184E+03  0.73612486233E+03  0.11129422015E+04  0.00000000000E+00 0. -1.
         22    1    1    2    0    0 -0.65911189029E+03 -0.66594437610E+03 -0.56560778839E+03  0.10944508058E+04  0.00000000000E+00 0. -1.
<mgrwt>
<rscale>  0 0.23116844E+04</rscale>
<asrwt>0</asrwt>
<pdfrwt beam="1">  1        2 0.16149068E+00 0.23116844E+04</pdfrwt>
<pdfrwt beam="2">  1       -2 0.19580461E+00 0.23116844E+04</pdfrwt>
<totfact> 0.30065074E+00</totfact>
</mgrwt>
</event>
<event>
 6    1  0.2238133E-007  0.2807221E+04  0.7818608E-02  0.8301030E-01
         -1   -1    0    0    0  501 -0.00000000000E+00  0.00000000000E+00  0.18598393971E+04  0.18598393971E+04  0.00000000000E+00 0.  1.
          1   -1    0    0  501    0  0.00000000000E+00 -0.00000000000E+00 -0.10592968672E+04  0.10592968672E+04  0.00000000000E+00 0. -1.
         23    2    1    2    0    0 -0.76593860670E+03 -0.58047306138E+03  0.14623312456E+04  0.17522707072E+04  0.91809776175E+02 0.  0.
         13    1    3    3    0    0 -0.46260671842E+03 -0.34668376178E+03  0.95967980994E+03  0.11203481353E+04  0.00000000000E+00 0. -1.
        -13    1    3    3    0    0 -0.30333188828E+03 -0.23378929960E+03  0.50265143571E+03  0.63192257190E+03  0.00000000000E+00 0.  1.
         22    1    1    2    0    0  0.76593860670E+03  0.58047306138E+03 -0.66178871576E+03  0.11668655572E+04  0.00000000000E+00 0. -1.
<mgrwt>
<rscale>  0 0.28072207E+04</rscale>
<asrwt>0</asrwt>
<pdfrwt beam="1">  1        1 0.16296875E+00 0.28072207E+04</pdfrwt>
<pdfrwt beam="2">  1       -1 0.28612914E+00 0.28072207E+04</pdfrwt>
<totfact> 0.47841787E-01</totfact>
</mgrwt>
</event>
<event>
 6    1  0.2238133E-007  0.3839882E+04  0.7818608E-02  0.8037650E-01
          2   -1    0    0  501    0  0.00000000000E+00  0.00000000000E+00  0.28103761413E+04  0.28103761413E+04  0.00000000000E+00 0. -1.
         -2   -1    0    0    0  501 -0.00000000000E+00 -0.00000000000E+00 -0.13116299310E+04  0.13116299310E+04  0.00000000000E+00 0.  1.
         23    2    1    2    0    0 -0.12164148398E+04 -0.10416886280E+04 -0.38482107771E+03  0.16496375745E+04  0.91850993942E+02 0.  0.
         11    1    3    3    0    0 -0.22952099816E+03 -0.19244779368E+03 -0.10909440520E+03  0.31877520471E+03  0.00000000000E+00 0.  1.
        -11    1    3    3    0    0 -0.98689384167E+03 -0.84924083430E+03 -0.27572667251E+03  0.13308623698E+04  0.00000000000E+00 0. -1.
         22    1    1    2    0    0  0.12164148398E+04  0.10416886280E+04  0.18835672881E+04  0.24723684978E+04  0.00000000000E+00 0. -1.
<mgrwt>
<rscale>  0 0.38398820E+04</rscale>
<asrwt>0</asrwt>
<pdfrwt beam="1">  1        2 0.43236556E+00 0.38398820E+04</pdfrwt>
<pdfrwt beam="2">  1       -2 0.20178922E+00 0.38398820E+04</pdfrwt>
<totfact> 0.23572253E-01</totfact>
</mgrwt>
</event>
<event>
 6    1  0.2238133E-007  0.1125202E+04  0.7818608E-02  0.9180971E-01
         -2   -1    0    0    0  501 -0.00000000000E+00  0.00000000000E+00  0.22701976128E+03  0.22701976128E+03  0.00000000000E+00 0.  1.
          2   -1    0    0  501    0  0.00000000000E+00 -0.00000000000E+00 -0.13942393072E+04  0.13942393072E+04  0.00000000000E+00 0. -1.
         23    2    1    2    0    0  0.42693128172E+03 -0.32693919005E+03 -0.80746690841E+03  0.97428031034E+03  0.89776175291E+02 0.  0.
         11    1    3    3    0    0  0.34436475664E+03 -0.29894805924E+03 -0.64539957233E+03  0.79025162809E+03  0.00000000000E+00 0. -1.
        -11    1    3    3    0    0  0.82566525085E+02 -0.27991130805E+02 -0.16206733607E+03  0.18402868225E+03  0.00000000000E+00 0.  1.
         22    1    1    2    0    0 -0.42693128172E+03  0.32693919005E+03 -0.35975263755E+03  0.64697875817E+03  0.00000000000E+00 0.  1.
<mgrwt>
<rscale>  0 0.11252020E+04</rscale>
<asrwt>0</asrwt>
<pdfrwt beam="1">  1        2 0.21449835E+00 0.11252020E+04</pdfrwt>
<pdfrwt beam="2">  1       -2 0.34926118E-01 0.11252020E+04</pdfrwt>
<totfact> 0.11109474E+02</totfact>
</mgrwt>
</event>
<event>
 6    1  0.2238133E-007  0.5822678E+03  0.7818608E-02  0.9942893E-01
          2   -1    0    0  501    0  0.00000000000E+00  0.00000000000E+00  0.18492860657E+03  0.18492860657E+03  0.00000000000E+00 0. -1.
         -2   -1    0    0    0  501 -0.00000000000E+00 -0.00000000000E+00 -0.45833340965E+03  0.45833340965E+03  0.00000000000E+00 0.  1.
         23    2    1    2    0    0 -0.28331526235E+03 -0.10718543698E+02 -0.16701582526E+03  0.34044022100E+03  0.87308837602E+02 0.  0.
         11    1    3    3    0    0 -0.21722905089E+03  0.29591005497E+02 -0.12208718989E+03  0.25093698431E+03  0.00000000000E+00 0. -1.
        -11    1    3    3    0    0 -0.66086211458E+02 -0.40309549195E+02 -0.44928635370E+02  0.89503236687E+02  0.00000000000E+00 0.  1.
         22    1    1    2    0    0  0.28331526235E+03  0.10718543698E+02 -0.10638897781E+03  0.30282179522E+03  0.00000000000E+00 0. -1.
<mgrwt>
<rscale>  0 0.58226784E+03</rscale>
<asrwt>0</asrwt>
<pdfrwt beam="1">  1        2 0.28450555E-01 0.58226784E+03</pdfrwt>
<pdfrwt beam="2">  1       -2 0.70512831E-01 0.58226784E+03</pdfrwt>
<totfact> 0.34936280E+02</totfact>
</mgrwt>
</event>
<event>
 6    1  0.2238133E-007  0.6714269E+03  0.7818608E-02  0.9767384E-01
          2   -1    0    0  501    0  0.00000000000E+00  0.00000000000E+00  0.11428253649E+04  0.11428253649E+04  0.00000000000E+00 0. -1.
         -2   -1    0    0    0  501 -0.00000000000E+00 -0.00000000000E+00 -0.98618318784E+02  0.98618318784E+02  0.00000000000E+00 0.  1.
         23    2    1    2    0    0 -0.86133187320E+01 -0.25484522550E+03  0.15540205015E+03  0.31678450373E+03  0.10574661408E+03 0.  0.
         11    1    3    3    0    0  0.30093424981E+01 -0.49574985595E+02  0.86867769793E+02  0.10006370355E+03  0.00000000000E+00 0. -1.
        -11    1    3    3    0    0 -0.11622661230E+02 -0.20527023991E+03  0.68534280355E+02  0.21672080018E+03  0.00000000000E+00 0.  1.
         22    1    1    2    0    0  0.86133187320E+01  0.25484522550E+03  0.88880499597E+03  0.92465917996E+03  0.00000000000E+00 0. -1.
<mgrwt>
<rscale>  0 0.67142689E+03</rscale>
<asrwt>0</asrwt>
<pdfrwt beam="1">  1        2 0.17581928E+00 0.67142689E+03</pdfrwt>
<pdfrwt beam="2">  1       -2 0.15172050E-01 0.67142689E+03</pdfrwt>
<totfact> 0.71132812E+02</totfact>
</mgrwt>
</event>
<event>
 6    1  0.2238133E-007  0.1873559E+04  0.7818608E-02  0.8668131E-01
         -2   -1    0    0    0  501 -0.00000000000E+00  0.00000000000E+00  0.31420217598E+03  0.31420217598E+03  0.00000000000E+00 0.  1.
          2   -1    0    0  501    0  0.00000000000E+00 -0.00000000000E+00 -0.27929652389E+04  0.27929652389E+04  0.00000000000E+00 0. -1.
         23    2    1    2    0    0 -0.68370274213E+03  0.27044578780E+03 -0.21992018914E+04  0.23205640763E+04  0.89097189937E+02 0.  0.
         13    1    3    3    0    0 -0.37929334579E+03  0.16045980842E+03 -0.10943813931E+04  0.11693080971E+04  0.00000000000E+00 0. -1.
        -13    1    3    3    0    0 -0.30440939634E+03  0.10998597939E+03 -0.11048204982E+04  0.11512559791E+04  0.00000000000E+00 0.  1.
         22    1    1    2    0    0  0.68370274213E+03 -0.27044578780E+03 -0.27956117159E+03  0.78660333867E+03  0.00000000000E+00 0.  1.
<mgrwt>
<rscale>  0 0.18735589E+04</rscale>
<asrwt>0</asrwt>
<pdfrwt beam="1">  1        2 0.42968698E+00 0.18735589E+04</pdfrwt>
<pdfrwt beam="2">  1       -2 0.48338794E-01 0.18735589E+04</pdfrwt>
<totfact> 0.89034276E+00</totfact>
</mgrwt>
</event>
<event>
 6    1  0.2238133E-007  0.2415875E+04  0.7818608E-02  0.8433584E-01
          2   -1    0    0  501    0  0.00000000000E+00  0.00000000000E+00  0.79583175136E+03  0.79583175136E+03  0.00000000000E+00 0. -1.
         -2   -1    0    0    0  501 -0.00000000000E+00 -0.00000000000E+00 -0.18334443627E+04  0.18334443627E+04  0.00000000000E+00 0.  1.
         23    2    1    2    0    0 -0.29024908960E+03 -0.51753438609E+03  0.62426096053E+03  0.86464863392E+03  0.76348794975E+02 0.  0.
         13    1    3    3    0    0 -0.21333401160E+03 -0.42594436182E+03  0.46732227589E+03  0.66733058480E+03  0.00000000000E+00 0. -1.
        -13    1    3    3    0    0 -0.76915078000E+02 -0.91590024270E+02  0.15693868464E+03  0.19731804911E+03  0.00000000000E+00 0.  1.
         22    1    1    2    0    0  0.29024908960E+03  0.51753438609E+03 -0.16618735719E+04  0.17646274801E+04  0.00000000000E+00 0.  1.
<mgrwt>
<rscale>  0 0.24158752E+04</rscale>
<asrwt>0</asrwt>
<pdfrwt beam="1">  1        2 0.12243565E+00 0.24158752E+04</pdfrwt>
<pdfrwt beam="2">  1       -2 0.28206836E+00 0.24158752E+04</pdfrwt>
<totfact> 0.12743750E+00</totfact>
</mgrwt>
</event>
<event>
 6    1  0.2238133E-007  0.4103322E+04  0.7818608E-02  0.7984021E-01
          2   -1    0    0  501    0  0.00000000000E+00  0.00000000000E+00  0.39868089787E+04  0.39868089787E+04  0.00000000000E+00 0. -1.
         -2   -1    0    0    0  501 -0.00000000000E+00 -0.00000000000E+00 -0.10558100788E+04  0.10558100788E+04  0.00000000000E+00 0.  1.
         23    2    1    2    0    0  0.13184896649E+04  0.14800041988E+04  0.21128350735E+04  0.28982731265E+04  0.84188139744E+02 0.  0.
         13    1    3    3    0    0  0.89794992374E+03  0.10507675737E+04  0.15105158338E+04  0.20474580933E+04  0.00000000000E+00 0. -1.
        -13    1    3    3    0    0  0.42053974117E+03  0.42923662515E+03  0.60231923969E+03  0.85081503323E+03  0.00000000000E+00 0.  1.
         22    1    1    2    0    0 -0.13184896649E+04 -0.14800041988E+04  0.81816382634E+03  0.21443459310E+04  0.00000000000E+00 0. -1.
<mgrwt>
<rscale>  0 0.41033221E+04</rscale>
<asrwt>0</asrwt>
<pdfrwt beam="1">  1        2 0.61335522E+00 0.41033221E+04</pdfrwt>
<pdfrwt beam="2">  1       -2 0.16243232E+00 0.41033221E+04</pdfrwt>
<totfact> 0.66057923E-02</totfact>
</mgrwt>
</event>
<event>
 6    1  0.2238133E-007  0.3360743E+04  0.7818608E-02  0.8147609E-01
          2   -1    0    0  501    0  0.00000000000E+00  0.00000000000E+00  0.87896754062E+03  0.87896754062E+03  0.00000000000E+00 0. -1.
         -2   -1    0    0    0  501 -0.00000000000E+00 -0.00000000000E+00 -0.32124606215E+04  0.32124606215E+04  0.00000000000E+00 0.  1.
         23    2    1    2    0    0 -0.11082563032E+04 -0.11948675304E+04 -0.16601663624E+04  0.23281047889E+04  0.89325856477E+02 0.  0.
         13    1    3    3    0    0 -0.60946744540E+03 -0.72133035561E+03 -0.95184367654E+03  0.13408111103E+04  0.00000000000E+00 0. -1.
        -13    1    3    3    0    0 -0.49878885782E+03 -0.47353717476E+03 -0.70832268585E+03  0.98729367862E+03  0.00000000000E+00 0.  1.
         22    1    1    2    0    0  0.11082563032E+04  0.11948675304E+04 -0.67332671853E+03  0.17633233732E+04  0.00000000000E+00 0.  1.
<mgrwt>
<rscale>  0 0.33607431E+04</rscale>
<asrwt>0</asrwt>
<pdfrwt beam="1">  1        2 0.13522578E+00 0.33607431E+04</pdfrwt>
<pdfrwt beam="2">  1       -2 0.49422470E+00 0.33607431E+04</pdfrwt>
<totfact> 0.45063192E-02</totfact>
</mgrwt>
</event>
<event>
 6    1  0.2238133E-007  0.3197385E+04  0.7818608E-02  0.8189508E-01
          2   -1    0    0  501    0  0.00000000000E+00  0.00000000000E+00  0.30776128708E+04  0.30776128708E+04  0.00000000000E+00 0. -1.
         -2   -1    0    0    0  501 -0.00000000000E+00 -0.00000000000E+00 -0.83045473724E+03  0.83045473724E+03  0.00000000000E+00 0.  1.
         23    2    1    2    0    0  0.68818967582E+03 -0.88919689905E+03 -0.26241360308E+03  0.11581173437E+04  0.89992929878E+02 0.  0.
         11    1    3    3    0    0  0.39550655130E+03 -0.49094777559E+03 -0.10291367425E+03  0.63878507718E+03  0.00000000000E+00 0. -1.
        -11    1    3    3    0    0  0.29268312452E+03 -0.39824912346E+03 -0.15949992883E+03  0.51933226648E+03  0.00000000000E+00 0.  1.
         22    1    1    2    0    0 -0.68818967582E+03  0.88919689905E+03  0.25095717366E+04  0.27499502644E+04  0.00000000000E+00 0. -1.
<mgrwt>
<rscale>  0 0.31973853E+04</rscale>
<asrwt>0</asrwt>
<pdfrwt beam="1">  1        2 0.47347890E+00 0.31973853E+04</pdfrwt>
<pdfrwt beam="2">  1       -2 0.12776227E+00 0.31973853E+04</pdfrwt>
<totfact> 0.59393190E-01</totfact>
</mgrwt>
</event>
<event>
 6    1  0.2238133E-007  0.2895808E+04  0.7818608E-02  0.8274126E-01
         -2   -1    0    0    0  501 -0.00000000000E+00  0.00000000000E+00  0.12577585738E+04  0.12577585738E+04  0.00000000000E+00 0.  1.
          2   -1    0    0  501    0  0.00000000000E+00 -0.00000000000E+00 -0.16667951975E+04  0.16667951975E+04  0.00000000000E+00 0. -1.
         23    2    1    2    0    0 -0.72357366532E+03 -0.35054352110E+03  0.10096588115E+04  0.12938679195E+04  0.90794647693E+02 0.  0.
         11    1    3    3    0    0 -0.69885726850E+02 -0.66127685838E+02  0.11644817895E+03  0.15105318280E+03  0.00000000000E+00 0.  1.
        -11    1    3    3    0    0 -0.65368793847E+03 -0.28441583526E+03  0.89321063254E+03  0.11428147367E+04  0.00000000000E+00 0. -1.
         22    1    1    2    0    0  0.72357366532E+03  0.35054352110E+03 -0.14186954353E+04  0.16306858518E+04  0.00000000000E+00 0. -1.
<mgrwt>
<rscale>  0 0.28958080E+04</rscale>
<asrwt>0</asrwt>
<pdfrwt beam="1">  1        2 0.25643003E+00 0.28958080E+04</pdfrwt>
<pdfrwt beam="2">  1       -2 0.19350132E+00 0.28958080E+04</pdfrwt>
<totfact> 0.12976926E+00</totfact>
</mgrwt>
</event>
<event>
 6    1  0.2238133E-007  0.6656353E+03  0.7818608E-02  0.9777875E-01
          2   -1    0    0  501    0  0.00000000000E+00  0.00000000000E+00  0.28961821161E+04  0.28961821161E+04  0.00000000000E+00 0. -1.
         -2   -1    0    0    0  501 -0.00000000000E+00 -0.00000000000E+00 -0.38246071913E+02  0.38246071913E+02  0.00000000000E+00 0.  1.
         23    2    1    2    0    0 -0.30642436362E+03 -0.67295837518E+02  0.18341117817E+04  0.18636150667E+04  0.10329796028E+03 0.  0.
         13    1    3    3    0    0 -0.15498978188E+03 -0.16381305081E+01  0.11201289003E+04  0.11308020469E+04  0.00000000000E+00 0.  1.
        -13    1    3    3    0    0 -0.15143458175E+03 -0.65657707009E+02  0.71398288145E+03  0.73281301983E+03  0.00000000000E+00 0. -1.
         22    1    1    2    0    0  0.30642436362E+03  0.67295837518E+02  0.10238242624E+04  0.10708131213E+04  0.00000000000E+00 0. -1.
<mgrwt>
<rscale>  0 0.66563530E+03</rscale>
<asrwt>0</asrwt>
<pdfrwt beam="1">  1        2 0.44556631E+00 0.66563530E+03</pdfrwt>
<pdfrwt beam="2">  1       -2 0.58840133E-02 0.66563530E+03</pdfrwt>
<totfact> 0.34308583E+02</totfact>
</mgrwt>
</event>
<event>
 6    1  0.2238133E-007  0.1299667E+04  0.7818608E-02  0.9029829E-01
          2   -1    0    0  501    0  0.00000000000E+00  0.00000000000E+00  0.18027647204E+04  0.18027647204E+04  0.00000000000E+00 0. -1.
         -2   -1    0    0    0  501 -0.00000000000E+00 -0.00000000000E+00 -0.23424232624E+03  0.23424232624E+03  0.00000000000E+00 0.  1.
         23    2    1    2    0    0  0.20474720776E+03  0.49236194547E+03  0.20744609328E+03  0.57520322900E+03  0.59018375155E+02 0.  0.
         11    1    3    3    0    0  0.17639803613E+03  0.40281072178E+03  0.19274466148E+03  0.48012836748E+03  0.00000000000E+00 0. -1.
        -11    1    3    3    0    0  0.28349171636E+02  0.89551223691E+02  0.14701431802E+02  0.95074861525E+02  0.00000000000E+00 0.  1.
         22    1    1    2    0    0 -0.20474720776E+03 -0.49236194547E+03  0.13610763009E+04  0.14618038176E+04  0.00000000000E+00 0.  1.
<mgrwt>
<rscale>  0 0.12996673E+04</rscale>
<asrwt>0</asrwt>
<pdfrwt beam="1">  1        2 0.27734841E+00 0.12996673E+04</pdfrwt>
<pdfrwt beam="2">  1       -2 0.36037282E-01 0.12996673E+04</pdfrwt>
<totfact> 0.61050362E+01</totfact>
</mgrwt>
</event>
<event>
 6    1  0.2238133E-007  0.6470945E+04  0.7818608E-02  0.7634603E-01
          2   -1    0    0  501    0  0.00000000000E+00  0.00000000000E+00  0.38204793300E+04  0.38204793300E+04  0.00000000000E+00 0. -1.
         -2   -1    0    0    0  501 -0.00000000000E+00 -0.00000000000E+00 -0.27400439841E+04  0.27400439841E+04  0.00000000000E+00 0.  1.
         23    2    1    2    0    0 -0.24684463934E+03  0.10512279802E+04 -0.25511831464E+04  0.27717681867E+04  0.90282292154E+02 0.  0.
         11    1    3    3    0    0 -0.19478958246E+03  0.65059769904E+03 -0.16383187164E+04  0.17735017801E+04  0.00000000000E+00 0. -1.
        -11    1    3    3    0    0 -0.52055056881E+02  0.40063028120E+03 -0.91286442997E+03  0.99826640666E+03  0.00000000000E+00 0.  1.
         22    1    1    2    0    0  0.24684463934E+03 -0.10512279802E+04  0.36316184922E+04  0.37887551274E+04  0.00000000000E+00 0. -1.
<mgrwt>
<rscale>  0 0.64709447E+04</rscale>
<asrwt>0</asrwt>
<pdfrwt beam="1">  1        2 0.58776605E+00 0.64709447E+04</pdfrwt>
<pdfrwt beam="2">  1       -2 0.42154523E+00 0.64709447E+04</pdfrwt>
<totfact> 0.16448895E-03</totfact>
</mgrwt>
</event>
<event>
 6    1  0.2238133E-007  0.5377214E+03  0.7818608E-02  0.1004377E+00
          2   -1    0    0  501    0  0.00000000000E+00  0.00000000000E+00  0.23380972113E+04  0.23380972113E+04  0.00000000000E+00 0. -1.
         -2   -1    0    0    0  501 -0.00000000000E+00 -0.00000000000E+00 -0.30916624627E+02  0.30916624627E+02  0.00000000000E+00 0.  1.
         23    2    1    2    0    0 -0.65566233533E+02  0.24907240326E+03  0.13807453274E+04  0.14074430987E+04  0.90013465316E+02 0.  0.
         13    1    3    3    0    0 -0.51016482767E+02  0.90263987036E+02  0.73604465215E+03  0.74331150860E+03  0.00000000000E+00 0. -1.
        -13    1    3    3    0    0 -0.14549750766E+02  0.15880841622E+03  0.64470067520E+03  0.66413159006E+03  0.00000000000E+00 0.  1.
         22    1    1    2    0    0  0.65566233533E+02 -0.24907240326E+03  0.92643525932E+03  0.96157073726E+03  0.00000000000E+00 0.  1.
<mgrwt>
<rscale>  0 0.53772139E+03</rscale>
<asrwt>0</asrwt>
<pdfrwt beam="1">  1        2 0.35970712E+00 0.53772139E+03</pdfrwt>
<pdfrwt beam="2">  1       -2 0.47564056E-02 0.53772139E+03</pdfrwt>
<totfact> 0.10093124E+03</totfact>
</mgrwt>
</event>
<event>
 6    1  0.2238133E-007  0.4294620E+04  0.7818608E-02  0.7947614E-01
          2   -1    0    0  501    0  0.00000000000E+00  0.00000000000E+00  0.14928637712E+04  0.14928637712E+04  0.00000000000E+00 0. -1.
         -2   -1    0    0    0  501 -0.00000000000E+00 -0.00000000000E+00 -0.30886549852E+04  0.30886549852E+04  0.00000000000E+00 0.  1.
         23    2    1    2    0    0  0.61123973885E+03  0.20562504415E+04 -0.87466936193E+03  0.23183800902E+04  0.89776686319E+02 0.  0.
         13    1    3    3    0    0  0.46175762994E+03  0.16710361885E+04 -0.71848239179E+03  0.18766456776E+04  0.00000000000E+00 0.  1.
        -13    1    3    3    0    0  0.14948210891E+03  0.38521425306E+03 -0.15618697014E+03  0.44173441261E+03  0.00000000000E+00 0. -1.
         22    1    1    2    0    0 -0.61123973885E+03 -0.20562504415E+04 -0.72112185212E+03  0.22631386662E+04  0.00000000000E+00 0.  1.
<mgrwt>
<rscale>  0 0.42946204E+04</rscale>
<asrwt>0</asrwt>
<pdfrwt beam="1">  1        2 0.22967135E+00 0.42946204E+04</pdfrwt>
<pdfrwt beam="2">  1       -2 0.47517769E+00 0.42946204E+04</pdfrwt>
<totfact> 0.23457972E-02</totfact>
</mgrwt>
</event>
<event>
 6    1  0.2238133E-007  0.3402795E+04  0.7818608E-02  0.8137221E-01
         -2   -1    0    0    0  501 -0.00000000000E+00  0.00000000000E+00  0.16306920661E+04  0.16306920661E+04  0.00000000000E+00 0.  1.
          2   -1    0    0  501    0  0.00000000000E+00 -0.00000000000E+00 -0.17751689463E+04  0.17751689463E+04  0.00000000000E+00 0. -1.
         23    2    1    2    0    0  0.13661603990E+04 -0.65461979899E+03  0.70063341935E+03  0.16711758147E+04  0.83786026195E+02 0.  0.
         13    1    3    3    0    0  0.48146388349E+03 -0.21985566070E+03  0.20240576224E+03  0.56666751736E+03  0.00000000000E+00 0. -1.
        -13    1    3    3    0    0  0.88469651551E+03 -0.43476413829E+03  0.49822765711E+03  0.11045082973E+04  0.00000000000E+00 0.  1.
         22    1    1    2    0    0 -0.13661603990E+04  0.65461979899E+03 -0.84511029951E+03  0.17346851978E+04  0.00000000000E+00 0. -1.
<mgrwt>
<rscale>  0 0.34027953E+04</rscale>
<asrwt>0</asrwt>
<pdfrwt beam="1">  1        2 0.27310291E+00 0.34027953E+04</pdfrwt>
<pdfrwt beam="2">  1       -2 0.25087570E+00 0.34027953E+04</pdfrwt>
<totfact> 0.46825644E-01</totfact>
</mgrwt>
</event>
<event>
 6    1  0.2238133E-007  0.2106890E+04  0.7818608E-02  0.8558214E-01
          1   -1    0    0  501    0  0.00000000000E+00  0.00000000000E+00  0.11149262416E+04  0.11149262416E+04  0.00000000000E+00 0. -1.
         -1   -1    0    0    0  501 -0.00000000000E+00 -0.00000000000E+00 -0.99535416479E+03  0.99535416479E+03  0.00000000000E+00 0.  1.
         23    2    1    2    0    0 -0.18637397448E+03  0.65890261408E+03  0.85908556453E+03  0.11024271870E+04  0.91813846153E+02 0.  0.
         13    1    3    3    0    0 -0.22099306234E+02  0.23824612805E+03  0.29375610065E+03  0.37886969203E+03  0.00000000000E+00 0. -1.
        -13    1    3    3    0    0 -0.16427466824E+03  0.42065648603E+03  0.56532946388E+03  0.72355749502E+03  0.00000000000E+00 0.  1.
         22    1    1    2    0    0  0.18637397448E+03 -0.65890261408E+03 -0.73951348773E+03  0.10078532193E+04  0.00000000000E+00 0.  1.
<mgrwt>
<rscale>  0 0.21068901E+04</rscale>
<asrwt>0</asrwt>
<pdfrwt beam="1">  1        1 0.17152711E+00 0.21068901E+04</pdfrwt>
<pdfrwt beam="2">  1       -1 0.15313141E+00 0.21068901E+04</pdfrwt>
<totfact> 0.37464406E+00</totfact>
</mgrwt>
</event>
<event>
 6    1  0.2238133E-007  0.8998090E+03  0.7818608E-02  0.9425820E-01
          1   -1    0    0  501    0  0.00000000000E+00  0.00000000000E+00  0.39411072277E+03  0.39411072277E+03  0.00000000000E+00 0. -1.
         -1   -1    0    0    0  501 -0.00000000000E+00 -0.00000000000E+00 -0.51359688625E+03  0.51359688625E+03  0.00000000000E+00 0.  1.
         23    2    1    2    0    0  0.17524389051E+02 -0.44448695073E+03 -0.76056999889E+02  0.46076035729E+03  0.92949911454E+02 0.  0.
         11    1    3    3    0    0  0.37889221170E+02 -0.32467444326E+03 -0.21612729031E+02  0.32759150972E+03  0.00000000000E+00 0. -1.
        -11    1    3    3    0    0 -0.20364832120E+02 -0.11981250747E+03 -0.54444270859E+02  0.13316884757E+03  0.00000000000E+00 0.  1.
         22    1    1    2    0    0 -0.17524389051E+02  0.44448695073E+03 -0.43429163589E+02  0.44694725173E+03  0.00000000000E+00 0.  1.
<mgrwt>
<rscale>  0 0.89980896E+03</rscale>
<asrwt>0</asrwt>
<pdfrwt beam="1">  1        1 0.60632419E-01 0.89980896E+03</pdfrwt>
<pdfrwt beam="2">  1       -1 0.79014906E-01 0.89980896E+03</pdfrwt>
<totfact> 0.98845129E+01</totfact>
</mgrwt>
</event>
<event>
 6    1  0.2238133E-007  0.3642392E+04  0.7818608E-02  0.8080850E-01
          2   -1    0    0  501    0  0.00000000000E+00  0.00000000000E+00  0.18698579888E+04  0.18698579888E+04  0.00000000000E+00 0. -1.
         -2   -1    0    0    0  501 -0.00000000000E+00 -0.00000000000E+00 -0.17738002749E+04  0.17738002749E+04  0.00000000000E+00 0.  1.
         23    2    1    2    0    0 -0.16393550234E+04  0.36748968727E+03 -0.65211124097E+03  0.18045578456E+04  0.92985937088E+02 0.  0.
         11    1    3    3    0    0 -0.66478309378E+03  0.17301387350E+03 -0.30876867023E+03  0.75313242787E+03  0.00000000000E+00 0. -1.
        -11    1    3    3    0    0 -0.97457192962E+03  0.19447581377E+03 -0.34334257074E+03  0.10514254177E+04  0.00000000000E+00 0.  1.
         22    1    1    2    0    0  0.16393550234E+04 -0.36748968727E+03  0.74816895483E+03  0.18391004181E+04  0.00000000000E+00 0. -1.
<mgrwt>
<rscale>  0 0.36423919E+04</rscale>
<asrwt>0</asrwt>
<pdfrwt beam="1">  1        2 0.28767046E+00 0.36423919E+04</pdfrwt>
<pdfrwt beam="2">  1       -2 0.27289235E+00 0.36423919E+04</pdfrwt>
<totfact> 0.29829183E-01</totfact>
</mgrwt>
</event>
<event>
 6    1  0.2238133E-007  0.1565827E+04  0.7818608E-02  0.8841821E-01
          2   -1    0    0  501    0  0.00000000000E+00  0.00000000000E+00  0.19248385902E+04  0.19248385902E+04  0.00000000000E+00 0. -1.
         -2   -1    0    0    0  501 -0.00000000000E+00 -0.00000000000E+00 -0.31844432535E+03  0.31844432535E+03  0.00000000000E+00 0.  1.
         23    2    1    2    0    0  0.24545096444E+02 -0.36460483143E+03  0.17934887879E+04  0.18327424116E+04  0.93827343549E+02 0.  0.
         13    1    3    3    0    0 -0.27438914396E+02 -0.11994891202E+03  0.72515423349E+03  0.73551974676E+03  0.00000000000E+00 0. -1.
        -13    1    3    3    0    0  0.51984010840E+02 -0.24465591941E+03  0.10683345544E+04  0.10972226649E+04  0.00000000000E+00 0.  1.
         22    1    1    2    0    0 -0.24545096444E+02  0.36460483143E+03 -0.18709452297E+03  0.41054050395E+03  0.00000000000E+00 0.  1.
<mgrwt>
<rscale>  0 0.15658275E+04</rscale>
<asrwt>0</asrwt>
<pdfrwt beam="1">  1        2 0.29612901E+00 0.15658275E+04</pdfrwt>
<pdfrwt beam="2">  1       -2 0.48991436E-01 0.15658275E+04</pdfrwt>
<totfact> 0.27902227E+01</totfact>
</mgrwt>
</event>
<event>
 6    1  0.2238133E-007  0.1584937E+04  0.7818608E-02  0.8829855E-01
         -2   -1    0    0    0  501 -0.00000000000E+00  0.00000000000E+00  0.24084934733E+03  0.24084934733E+03  0.00000000000E+00 0.  1.
          2   -1    0    0  501    0  0.00000000000E+00 -0.00000000000E+00 -0.26074660331E+04  0.26074660331E+04  0.00000000000E+00 0. -1.
         23    2    1    2    0    0  0.25182728935E+03 -0.68260519370E+03 -0.63472509486E+03  0.96980125571E+03  0.90948861454E+02 0.  0.
         13    1    3    3    0    0  0.25342382748E+03 -0.60936015113E+03 -0.56920823088E+03  0.87151674696E+03  0.00000000000E+00 0.  1.
        -13    1    3    3    0    0 -0.15965381323E+01 -0.73245042570E+02 -0.65516863974E+02  0.98284508749E+02  0.00000000000E+00 0. -1.
         22    1    1    2    0    0 -0.25182728935E+03  0.68260519370E+03 -0.17318915910E+04  0.18785141248E+04  0.00000000000E+00 0. -1.
<mgrwt>
<rscale>  0 0.15849372E+04</rscale>
<asrwt>0</asrwt>
<pdfrwt beam="1">  1        2 0.40114862E+00 0.15849372E+04</pdfrwt>
<pdfrwt beam="2">  1       -2 0.37053746E-01 0.15849372E+04</pdfrwt>
<totfact> 0.19911402E+01</totfact>
</mgrwt>
</event>
<event>
 6    1  0.2238133E-007  0.3681770E+03  0.7818608E-02  0.1055392E+00
         -2   -1    0    0    0  501 -0.00000000000E+00  0.00000000000E+00  0.31724504675E+02  0.31724504675E+02  0.00000000000E+00 0.  1.
          2   -1    0    0  501    0  0.00000000000E+00 -0.00000000000E+00 -0.10682147145E+04  0.10682147145E+04  0.00000000000E+00 0. -1.
         23    2    1    2    0    0  0.72252218579E+02  0.73835340960E+02 -0.96381382940E+03  0.97363048260E+03  0.91362893048E+02 0.  0.
         11    1    3    3    0    0  0.60537415762E+02  0.32546868491E+02 -0.27422267051E+03  0.28270505899E+03  0.00000000000E+00 0. -1.
        -11    1    3    3    0    0  0.11714802817E+02  0.41288472469E+02 -0.68959115889E+03  0.69092542360E+03  0.00000000000E+00 0.  1.
         22    1    1    2    0    0 -0.72252218579E+02 -0.73835340960E+02 -0.72676380415E+02  0.12630873657E+03  0.00000000000E+00 0.  1.
<mgrwt>
<rscale>  0 0.36817704E+03</rscale>
<asrwt>0</asrwt>
<pdfrwt beam="1">  1        2 0.16434072E+00 0.36817704E+03</pdfrwt>
<pdfrwt beam="2">  1       -2 0.48806931E-02 0.36817704E+03</pdfrwt>
<totfact> 0.48686737E+03</totfact>
</mgrwt>
</event>
<event>
 6    1  0.2238133E-007  0.1324809E+04  0.7818608E-02  0.9010119E-01
          2   -1    0    0  501    0  0.00000000000E+00  0.00000000000E+00  0.84026748166E+03  0.84026748166E+03  0.00000000000E+00 0. -1.
         -2   -1    0    0    0  501 -0.00000000000E+00 -0.00000000000E+00 -0.52219067512E+03  0.52219067512E+03  0.00000000000E+00 0.  1.
         23    2    1    2    0    0 -0.50833297054E+03  0.15700138101E+03  0.56018267717E+03  0.77793519301E+03  0.91250699374E+02 0.  0.
         11    1    3    3    0    0 -0.19489677880E+03  0.83473770696E+02  0.27948536622E+03  0.35080577919E+03  0.00000000000E+00 0. -1.
        -11    1    3    3    0    0 -0.31343619175E+03  0.73527610312E+02  0.28069731095E+03  0.42712941382E+03  0.00000000000E+00 0.  1.
         22    1    1    2    0    0  0.50833297054E+03 -0.15700138101E+03 -0.24210587063E+03  0.58452296377E+03  0.00000000000E+00 0.  1.
<mgrwt>
<rscale>  0 0.13248092E+04</rscale>
<asrwt>0</asrwt>
<pdfrwt beam="1">  1        2 0.12927192E+00 0.13248092E+04</pdfrwt>
<pdfrwt beam="2">  1       -2 0.80337027E-01 0.13248092E+04</pdfrwt>
<totfact> 0.43214545E+01</totfact>
</mgrwt>
</event>
<event>
 6    1  0.2238133E-007  0.1434352E+04  0.7818608E-02  0.8929322E-01
         -4   -1    0    0    0  501 -0.00000000000E+00  0.00000000000E+00  0.18765313527E+04  0.18765313527E+04  0.00000000000E+00 0.  1.
          4   -1    0    0  501    0  0.00000000000E+00 -0.00000000000E+00 -0.27409151562E+03  0.27409151562E+03  0.00000000000E+00 0. -1.
         23    2    1    2    0    0 -0.12592661648E+03 -0.40759710946E+03  0.16633732949E+04  0.17196869072E+04  0.92300726723E+02 0.  0.
         13    1    3    3    0    0 -0.91782949123E+02 -0.37864091758E+03  0.15372643992E+04  0.15858672351E+04  0.00000000000E+00 0. -1.
        -13    1    3    3    0    0 -0.34143667353E+02 -0.28956191881E+02  0.12610889567E+03  0.13381967208E+03  0.00000000000E+00 0.  1.
         22    1    1    2    0    0  0.12592661648E+03  0.40759710946E+03 -0.60933457754E+02  0.43093596120E+03  0.00000000000E+00 0. -1.
<mgrwt>
<rscale>  0 0.14343519E+04</rscale>
<asrwt>0</asrwt>
<pdfrwt beam="1">  1        4 0.42167927E-01 0.14343519E+04</pdfrwt>
<pdfrwt beam="2">  1       -4 0.28869712E+00 0.14343519E+04</pdfrwt>
<totfact> 0.38898997E-01</totfact>
</mgrwt>
</event>
<event>
 6    1  0.2238133E-007  0.1634430E+04  0.7818608E-02  0.8799671E-01
         -2   -1    0    0    0  501 -0.00000000000E+00  0.00000000000E+00  0.65445339319E+03  0.65445339319E+03  0.00000000000E+00 0.  1.
          2   -1    0    0  501    0  0.00000000000E+00 -0.00000000000E+00 -0.10204548524E+04  0.10204548524E+04  0.00000000000E+00 0. -1.
         23    2    1    2    0    0 -0.33966412931E+03  0.19317784189E+02  0.57501190584E+03  0.67428291575E+03  0.90960766717E+02 0.  0.
         11    1    3    3    0    0 -0.18313654032E+03 -0.21546349049E+02  0.36745066608E+03  0.41112434805E+03  0.00000000000E+00 0. -1.
        -11    1    3    3    0    0 -0.15652758899E+03  0.40864133238E+02  0.20756123976E+03  0.26315856769E+03  0.00000000000E+00 0.  1.
         22    1    1    2    0    0  0.33966412931E+03 -0.19317784189E+02 -0.94101336504E+03  0.10006253298E+04  0.00000000000E+00 0. -1.
<mgrwt>
<rscale>  0 0.16344297E+04</rscale>
<asrwt>0</asrwt>
<pdfrwt beam="1">  1        2 0.15699305E+00 0.16344297E+04</pdfrwt>
<pdfrwt beam="2">  1       -2 0.10068514E+00 0.16344297E+04</pdfrwt>
<totfact> 0.18999921E+01</totfact>
</mgrwt>
</event>
<event>
 6    1  0.2238133E-007  0.5978040E+04  0.7818608E-02  0.7693131E-01
         -2   -1    0    0    0  501 -0.00000000000E+00  0.00000000000E+00  0.40136045351E+04  0.40136045351E+04  0.00000000000E+00 0.  1.
          2   -1    0    0  501    0  0.00000000000E+00 -0.00000000000E+00 -0.22259892206E+04  0.22259892206E+04  0.00000000000E+00 0. -1.
         23    2    1    2    0    0  0.14262907126E+04  0.22640152293E+04  0.22826177788E+04  0.35183628587E+04  0.91995251371E+02 0.  0.
         11    1    3    3    0    0  0.69155974663E+03  0.11640410993E+04  0.11932854168E+04  0.18047649847E+04  0.00000000000E+00 0. -1.
        -11    1    3    3    0    0  0.73473096599E+03  0.10999741300E+04  0.10893323620E+04  0.17135978740E+04  0.00000000000E+00 0.  1.
         22    1    1    2    0    0 -0.14262907126E+04 -0.22640152293E+04 -0.49500246427E+03  0.27212308970E+04  0.00000000000E+00 0. -1.
<mgrwt>
<rscale>  0 0.59780400E+04</rscale>
<asrwt>0</asrwt>
<pdfrwt beam="1">  1        2 0.34245988E+00 0.59780400E+04</pdfrwt>
<pdfrwt beam="2">  1       -2 0.61747762E+00 0.59780400E+04</pdfrwt>
<totfact> 0.14984607E-03</totfact>
</mgrwt>
</event>
<event>
 6    1  0.2238133E-007  0.2691645E+04  0.7818608E-02  0.8337721E-01
         -2   -1    0    0    0  501 -0.00000000000E+00  0.00000000000E+00  0.60945955586E+03  0.60945955586E+03  0.00000000000E+00 0.  1.
          2   -1    0    0  501    0  0.00000000000E+00 -0.00000000000E+00 -0.29718766110E+04  0.29718766110E+04  0.00000000000E+00 0. -1.
         23    2    1    2    0    0  0.78204930996E+03  0.11021633960E+03  0.26734399302E+03  0.83554084763E+03  0.53915978324E+02 0.  0.
         11    1    3    3    0    0  0.12456829816E+03  0.15539190223E+02  0.63652562299E+02  0.14074933757E+03  0.00000000000E+00 0.  1.
        -11    1    3    3    0    0  0.65748101181E+03  0.94677149373E+02  0.20369143072E+03  0.69479151006E+03  0.00000000000E+00 0. -1.
         22    1    1    2    0    0 -0.78204930996E+03 -0.11021633960E+03 -0.26297610481E+04  0.27457953192E+04  0.00000000000E+00 0. -1.
<mgrwt>
<rscale>  0 0.26916453E+04</rscale>
<asrwt>0</asrwt>
<pdfrwt beam="1">  1        2 0.45721179E+00 0.26916453E+04</pdfrwt>
<pdfrwt beam="2">  1       -2 0.93763009E-01 0.26916453E+04</pdfrwt>
<totfact> 0.15292078E+00</totfact>
</mgrwt>
</event>
<event>
 6    1  0.2238133E-007  0.1497196E+04  0.7818608E-02  0.8886320E-01
          2   -1    0    0  501    0  0.00000000000E+00  0.00000000000E+00  0.75984297224E+03  0.75984297224E+03  0.00000000000E+00 0. -1.
         -2   -1    0    0    0  501 -0.00000000000E+00 -0.00000000000E+00 -0.73751899775E+03  0.73751899775E+03  0.00000000000E+00 0.  1.
         23    2    1    2    0    0 -0.37560412734E+03  0.24011338587E+03  0.60992352372E+03  0.75979425865E+03  0.80917934660E+02 0.  0.
         11    1    3    3    0    0 -0.22719014238E+03  0.11603219869E+03  0.39909788868E+03  0.47366439245E+03  0.00000000000E+00 0. -1.
        -11    1    3    3    0    0 -0.14841398496E+03  0.12408118718E+03  0.21082563504E+03  0.28612986621E+03  0.00000000000E+00 0.  1.
         22    1    1    2    0    0  0.37560412734E+03 -0.24011338587E+03 -0.58759954923E+03  0.73756771133E+03  0.00000000000E+00 0.  1.
<mgrwt>
<rscale>  0 0.14971955E+04</rscale>
<asrwt>0</asrwt>
<pdfrwt beam="1">  1        2 0.11689892E+00 0.14971955E+04</pdfrwt>
<pdfrwt beam="2">  1       -2 0.11346446E+00 0.14971955E+04</pdfrwt>
<totfact> 0.21710070E+01</totfact>
</mgrwt>
</event>
<event>
 6    1  0.2238133E-007  0.3003864E+04  0.7818608E-02  0.8242628E-01
          2   -1    0    0  501    0  0.00000000000E+00  0.00000000000E+00  0.29552807945E+04  0.29552807945E+04  0.00000000000E+00 0. -1.
         -2   -1    0    0    0  501 -0.00000000000E+00 -0.00000000000E+00 -0.76331136019E+03  0.76331136019E+03  0.00000000000E+00 0.  1.
         23    2    1    2    0    0 -0.82478474906E+03  0.95690996656E+03  0.94570282906E+02  0.12701171667E+04  0.91145556193E+02 0.  0.
         13    1    3    3    0    0 -0.39708212503E+03  0.51275219327E+03  0.78896574017E+02  0.65330980026E+03  0.00000000000E+00 0. -1.
        -13    1    3    3    0    0 -0.42770262403E+03  0.44415777329E+03  0.15673708889E+02  0.61680736646E+03  0.00000000000E+00 0.  1.
         22    1    1    2    0    0  0.82478474906E+03 -0.95690996656E+03  0.20973991514E+04  0.24484749880E+04  0.00000000000E+00 0. -1.
<mgrwt>
<rscale>  0 0.30038638E+04</rscale>
<asrwt>0</asrwt>
<pdfrwt beam="1">  1        2 0.45465858E+00 0.30038638E+04</pdfrwt>
<pdfrwt beam="2">  1       -2 0.11743252E+00 0.30038638E+04</pdfrwt>
<totfact> 0.88961835E-01</totfact>
</mgrwt>
</event>
<event>
 6    1  0.2238133E-007  0.3672453E+04  0.7818608E-02  0.8074094E-01
         -2   -1    0    0    0  501 -0.00000000000E+00  0.00000000000E+00  0.11625118918E+04  0.11625118918E+04  0.00000000000E+00 0.  1.
          2   -1    0    0  501    0  0.00000000000E+00 -0.00000000000E+00 -0.29003807787E+04  0.29003807787E+04  0.00000000000E+00 0. -1.
         23    2    1    2    0    0 -0.66207223071E+03 -0.80154841287E+03 -0.25422761226E+04  0.27484001837E+04  0.98570732480E+02 0.  0.
         11    1    3    3    0    0 -0.46612381185E+03 -0.62862627867E+03 -0.18740641048E+04  0.20309009516E+04  0.00000000000E+00 0. -1.
        -11    1    3    3    0    0 -0.19594841886E+03 -0.17292213420E+03 -0.66821201782E+03  0.71749923213E+03  0.00000000000E+00 0.  1.
         22    1    1    2    0    0  0.66207223071E+03  0.80154841287E+03  0.80440723577E+03  0.13144924868E+04  0.00000000000E+00 0. -1.
<mgrwt>
<rscale>  0 0.36724527E+04</rscale>
<asrwt>0</asrwt>
<pdfrwt beam="1">  1        2 0.44621243E+00 0.36724527E+04</pdfrwt>
<pdfrwt beam="2">  1       -2 0.17884798E+00 0.36724527E+04</pdfrwt>
<totfact> 0.30032002E-01</totfact>
</mgrwt>
</event>
<event>
 6    1  0.2238133E-007  0.3019118E+04  0.7818608E-02  0.8238293E-01
          2   -1    0    0  501    0  0.00000000000E+00  0.00000000000E+00  0.11927694036E+04  0.11927694036E+04  0.00000000000E+00 0. -1.
         -2   -1    0    0    0  501 -0.00000000000E+00 -0.00000000000E+00 -0.19104851492E+04  0.19104851492E+04  0.00000000000E+00 0.  1.
         23    2    1    2    0    0 -0.23596432530E+03  0.11652530713E+03 -0.18856102710E+04  0.19060766493E+04  0.91349817569E+02 0.  0.
         13    1    3    3    0    0 -0.13836565104E+03  0.10819254848E+03 -0.13732278783E+04  0.13844152147E+04  0.00000000000E+00 0. -1.
        -13    1    3    3    0    0 -0.97598674252E+02  0.83327586478E+01 -0.51238239271E+03  0.52166143468E+03  0.00000000000E+00 0.  1.
         22    1    1    2    0    0  0.23596432530E+03 -0.11652530713E+03  0.11678945254E+04  0.11971779035E+04  0.00000000000E+00 0. -1.
<mgrwt>
<rscale>  0 0.30191179E+04</rscale>
<asrwt>0</asrwt>
<pdfrwt beam="1">  1        2 0.18350299E+00 0.30191179E+04</pdfrwt>
<pdfrwt beam="2">  1       -2 0.29392079E+00 0.30191179E+04</pdfrwt>
<totfact> 0.56611098E-01</totfact>
</mgrwt>
</event>
<event>
 6    1  0.2238133E-007  0.4289908E+04  0.7818608E-02  0.7948487E-01
         -2   -1    0    0    0  501 -0.00000000000E+00  0.00000000000E+00  0.17768988422E+04  0.17768988422E+04  0.00000000000E+00 0.  1.
          2   -1    0    0  501    0  0.00000000000E+00 -0.00000000000E+00 -0.25892451888E+04  0.25892451888E+04  0.00000000000E+00 0. -1.
         23    2    1    2    0    0  0.46059833600E+03  0.12278644264E+04 -0.21326280579E+04  0.25052448736E+04  0.91365019894E+02 0.  0.
         13    1    3    3    0    0  0.20459021415E+03  0.51358820986E+03 -0.81634940124E+03  0.98592918099E+03  0.00000000000E+00 0. -1.
        -13    1    3    3    0    0  0.25600812185E+03  0.71427621655E+03 -0.13162786567E+04  0.15193156927E+04  0.00000000000E+00 0.  1.
         22    1    1    2    0    0 -0.46059833600E+03 -0.12278644264E+04  0.13202817113E+04  0.18608991574E+04  0.00000000000E+00 0.  1.
<mgrwt>
<rscale>  0 0.42899076E+04</rscale>
<asrwt>0</asrwt>
<pdfrwt beam="1">  1        2 0.39834542E+00 0.42899076E+04</pdfrwt>
<pdfrwt beam="2">  1       -2 0.27336905E+00 0.42899076E+04</pdfrwt>
<totfact> 0.10999424E-01</totfact>
</mgrwt>
</event>
<event>
 6    1  0.2238133E-007  0.2618747E+04  0.7818608E-02  0.8361861E-01
         -2   -1    0    0    0  501 -0.00000000000E+00  0.00000000000E+00  0.27858903635E+04  0.27858903635E+04  0.00000000000E+00 0.  1.
          2   -1    0    0  501    0  0.00000000000E+00 -0.00000000000E+00 -0.61540785940E+03  0.61540785940E+03  0.00000000000E+00 0. -1.
         23    2    1    2    0    0  0.10235715200E+04  0.32881803423E+03  0.11947458820E+03  0.10856010434E+04  0.91844934958E+02 0.  0.
         11    1    3    3    0    0  0.10393271442E+03  0.26414351401E+02  0.39273584613E+02  0.11420219584E+03  0.00000000000E+00 0. -1.
        -11    1    3    3    0    0  0.91963880554E+03  0.30240368283E+03  0.80201003583E+02  0.97139884755E+03  0.00000000000E+00 0.  1.
         22    1    1    2    0    0 -0.10235715200E+04 -0.32881803423E+03  0.20510079159E+04  0.23156971795E+04  0.00000000000E+00 0.  1.
<mgrwt>
<rscale>  0 0.26187469E+04</rscale>
<asrwt>0</asrwt>
<pdfrwt beam="1">  1        2 0.94678134E-01 0.26187469E+04</pdfrwt>
<pdfrwt beam="2">  1       -2 0.42859851E+00 0.26187469E+04</pdfrwt>
<totfact> 0.20419092E-01</totfact>
</mgrwt>
</event>
<event>
 6    1  0.2238133E-007  0.2952064E+04  0.7818608E-02  0.8257553E-01
         -1   -1    0    0    0  501 -0.00000000000E+00  0.00000000000E+00  0.10792667688E+04  0.10792667688E+04  0.00000000000E+00 0.  1.
          1   -1    0    0  501    0  0.00000000000E+00 -0.00000000000E+00 -0.20186573940E+04  0.20186573940E+04  0.00000000000E+00 0. -1.
         23    2    1    2    0    0  0.19204398015E+03  0.10249863054E+04 -0.15631614510E+04  0.18827830764E+04  0.11798548193E+03 0.  0.
         13    1    3    3    0    0  0.12625703160E+03  0.38390697699E+03 -0.64058041436E+03  0.75740918417E+03  0.00000000000E+00 0. -1.
        -13    1    3    3    0    0  0.65786948549E+02  0.64107932843E+03 -0.92258103669E+03  0.11253738922E+04  0.00000000000E+00 0.  1.
         22    1    1    2    0    0 -0.19204398015E+03 -0.10249863054E+04  0.62377082583E+03  0.12151410864E+04  0.00000000000E+00 0.  1.
<mgrwt>
<rscale>  0 0.29520636E+04</rscale>
<asrwt>0</asrwt>
<pdfrwt beam="1">  1        1 0.31056268E+00 0.29520636E+04</pdfrwt>
<pdfrwt beam="2">  1       -1 0.16604104E+00 0.29520636E+04</pdfrwt>
<totfact> 0.65105044E-01</totfact>
</mgrwt>
</event>
<event>
 6    1  0.2238133E-007  0.2881270E+04  0.7818608E-02  0.8278472E-01
          2   -1    0    0  501    0  0.00000000000E+00  0.00000000000E+00  0.26444825128E+04  0.26444825128E+04  0.00000000000E+00 0. -1.
         -2   -1    0    0    0  501 -0.00000000000E+00 -0.00000000000E+00 -0.78481467354E+03  0.78481467354E+03  0.00000000000E+00 0.  1.
         23    2    1    2    0    0  0.61900103307E+03 -0.11843449933E+04  0.29422417615E+03  0.13710335481E+04  0.85614147557E+02 0.  0.
         13    1    3    3    0    0  0.52203716633E+03 -0.92407493288E+03  0.23124200415E+03  0.10862366911E+04  0.00000000000E+00 0. -1.
        -13    1    3    3    0    0  0.96963866735E+02 -0.26027006039E+03  0.62982172002E+02  0.28479685704E+03  0.00000000000E+00 0.  1.
         22    1    1    2    0    0 -0.61900103307E+03  0.11843449933E+04  0.15654436632E+04  0.20582636383E+04  0.00000000000E+00 0.  1.
<mgrwt>
<rscale>  0 0.28812696E+04</rscale>
<asrwt>0</asrwt>
<pdfrwt beam="1">  1        2 0.40684346E+00 0.28812696E+04</pdfrwt>
<pdfrwt beam="2">  1       -2 0.12074072E+00 0.28812696E+04</pdfrwt>
<totfact> 0.12945720E+00</totfact>
</mgrwt>
</event>
<event>
 6    1  0.2238133E-007  0.1501214E+04  0.7818608E-02  0.8883646E-01
         -2   -1    0    0    0  501 -0.00000000000E+00  0.00000000000E+00  0.14112298715E+04  0.14112298715E+04  0.00000000000E+00 0.  1.
          2   -1    0    0  501    0  0.00000000000E+00 -0.00000000000E+00 -0.39923411466E+03  0.39923411466E+03  0.00000000000E+00 0. -1.
         23    2    1    2    0    0 -0.30783622425E+03  0.54985001646E+03  0.99355573363E+03  0.11800369753E+04  0.90752882357E+02 0.  0.
         11    1    3    3    0    0 -0.18119068070E+03  0.40669585896E+03  0.71135690277E+03  0.83920213750E+03  0.00000000000E+00 0. -1.
        -11    1    3    3    0    0 -0.12664554355E+03  0.14315415749E+03  0.28219883086E+03  0.34083483778E+03  0.00000000000E+00 0.  1.
         22    1    1    2    0    0  0.30783622425E+03 -0.54985001646E+03  0.18440023189E+02  0.63042701085E+03  0.00000000000E+00 0. -1.
<mgrwt>
<rscale>  0 0.15012143E+04</rscale>
<asrwt>0</asrwt>
<pdfrwt beam="1">  1        2 0.61420634E-01 0.15012143E+04</pdfrwt>
<pdfrwt beam="2">  1       -2 0.21711229E+00 0.15012143E+04</pdfrwt>
<totfact> 0.79324500E+00</totfact>
</mgrwt>
</event>
<event>
 6    1  0.2238133E-007  0.1859781E+04  0.7818608E-02  0.8675139E-01
          2   -1    0    0  501    0  0.00000000000E+00  0.00000000000E+00  0.21429209823E+04  0.21429209823E+04  0.00000000000E+00 0. -1.
         -2   -1    0    0    0  501 -0.00000000000E+00 -0.00000000000E+00 -0.40351296093E+03  0.40351296093E+03  0.00000000000E+00 0.  1.
         23    2    1    2    0    0 -0.61917898499E+03  0.60390648290E+03  0.41159628593E+03  0.96176689293E+03  0.86593291989E+02 0.  0.
         13    1    3    3    0    0 -0.26238398711E+03  0.20862279250E+03  0.18697442559E+03  0.38383363853E+03  0.00000000000E+00 0. -1.
        -13    1    3    3    0    0 -0.35679499788E+03  0.39528369039E+03  0.22462186034E+03  0.57793325440E+03  0.00000000000E+00 0.  1.
         22    1    1    2    0    0  0.61917898499E+03 -0.60390648290E+03  0.13278117354E+04  0.15846670503E+04  0.00000000000E+00 0. -1.
<mgrwt>
<rscale>  0 0.18597811E+04</rscale>
<asrwt>0</asrwt>
<pdfrwt beam="1">  1        2 0.32968014E+00 0.18597811E+04</pdfrwt>
<pdfrwt beam="2">  1       -2 0.62078919E-01 0.18597811E+04</pdfrwt>
<totfact> 0.12585616E+01</totfact>
</mgrwt>
</event>
<event>
 6    1  0.2238133E-007  0.2887282E+04  0.7818608E-02  0.8276672E-01
         -2   -1    0    0    0  501 -0.00000000000E+00  0.00000000000E+00  0.12607261652E+04  0.12607261652E+04  0.00000000000E+00 0.  1.
          2   -1    0    0  501    0  0.00000000000E+00 -0.00000000000E+00 -0.16530938078E+04  0.16530938078E+04  0.00000000000E+00 0. -1.
         23    2    1    2    0    0 -0.20442170750E+03 -0.14076571930E+04 -0.43636970291E+03  0.14907166076E+04  0.92360592234E+02 0.  0.
         11    1    3    3    0    0 -0.14320248793E+03 -0.85372648194E+03 -0.30805014295E+03  0.91883118639E+03  0.00000000000E+00 0. -1.
        -11    1    3    3    0    0 -0.61219219568E+02 -0.55393071105E+03 -0.12831955996E+03  0.57188542118E+03  0.00000000000E+00 0.  1.
         22    1    1    2    0    0  0.20442170750E+03  0.14076571930E+04  0.44002060254E+02  0.14231033655E+04  0.00000000000E+00 0.  1.
<mgrwt>
<rscale>  0 0.28872815E+04</rscale>
<asrwt>0</asrwt>
<pdfrwt beam="1">  1        2 0.25432212E+00 0.28872815E+04</pdfrwt>
<pdfrwt beam="2">  1       -2 0.19395787E+00 0.28872815E+04</pdfrwt>
<totfact> 0.13124152E+00</totfact>
</mgrwt>
</event>
<event>
 6    1  0.2238133E-007  0.1685548E+04  0.7818608E-02  0.8769650E-01
         -2   -1    0    0    0  501 -0.00000000000E+00  0.00000000000E+00  0.73204593332E+03  0.73204593332E+03  0.00000000000E+00 0.  1.
          2   -1    0    0  501    0  0.00000000000E+00 -0.00000000000E+00 -0.97025056135E+03  0.97025056135E+03  0.00000000000E+00 0. -1.
         23    2    1    2    0    0  0.80689538303E+02  0.83624541891E+03 -0.10329307102E+03  0.85140382785E+03  0.91661427624E+02 0.  0.
         11    1    3    3    0    0  0.74485132589E+00  0.42988391475E+03 -0.74112943406E+02  0.43622639001E+03  0.00000000000E+00 0. -1.
        -11    1    3    3    0    0  0.79944686977E+02  0.40636150416E+03 -0.29180127617E+02  0.41517743783E+03  0.00000000000E+00 0.  1.
         22    1    1    2    0    0 -0.80689538303E+02 -0.83624541891E+03 -0.13491155700E+03  0.85089266682E+03  0.00000000000E+00 0. -1.
<mgrwt>
<rscale>  0 0.16855480E+04</rscale>
<asrwt>0</asrwt>
<pdfrwt beam="1">  1        2 0.14926932E+00 0.16855480E+04</pdfrwt>
<pdfrwt beam="2">  1       -2 0.11262245E+00 0.16855480E+04</pdfrwt>
<totfact> 0.15565855E+01</totfact>
</mgrwt>
</event>
<event>
 6    1  0.2238133E-007  0.2672398E+04  0.7818608E-02  0.8344017E-01
          4   -1    0    0  501    0  0.00000000000E+00  0.00000000000E+00  0.12336249291E+04  0.12336249291E+04  0.00000000000E+00 0. -1.
         -4   -1    0    0    0  501 -0.00000000000E+00 -0.00000000000E+00 -0.14473022847E+04  0.14473022847E+04  0.00000000000E+00 0.  1.
         23    2    1    2    0    0 -0.11069153315E+03 -0.63711780752E+03 -0.12781988799E+04  0.14353840424E+04  0.91450840580E+02 0.  0.
         11    1    3    3    0    0 -0.26844524951E+02 -0.30601735033E+02 -0.73644539919E+02  0.84146378216E+02  0.00000000000E+00 0. -1.
        -11    1    3    3    0    0 -0.83847008199E+02 -0.60651607249E+03 -0.12045543400E+04  0.13512376641E+04  0.00000000000E+00 0.  1.
         22    1    1    2    0    0  0.11069153315E+03  0.63711780752E+03  0.10645215243E+04  0.12455431714E+04  0.00000000000E+00 0. -1.
<mgrwt>
<rscale>  0 0.26723983E+04</rscale>
<asrwt>0</asrwt>
<pdfrwt beam="1">  1        4 0.18978845E+00 0.26723983E+04</pdfrwt>
<pdfrwt beam="2">  1       -4 0.22266189E+00 0.26723983E+04</pdfrwt>
<totfact> 0.25299419E-02</totfact>
</mgrwt>
</event>
<event>
 6    1  0.2238133E-007  0.1816049E+04  0.7818608E-02  0.8697811E-01
         -2   -1    0    0    0  501 -0.00000000000E+00  0.00000000000E+00  0.44972842158E+03  0.44972842158E+03  0.00000000000E+00 0.  1.
          2   -1    0    0  501    0  0.00000000000E+00 -0.00000000000E+00 -0.18333485072E+04  0.18333485072E+04  0.00000000000E+00 0. -1.
         23    2    1    2    0    0 -0.58198255016E+03 -0.55765149159E+03 -0.17413729341E+03  0.82962328334E+03  0.90951198671E+02 0.  0.
         13    1    3    3    0    0 -0.55098060601E+03 -0.52129750195E+03 -0.18474901072E+03  0.78068105568E+03  0.00000000000E+00 0. -1.
        -13    1    3    3    0    0 -0.31001944157E+02 -0.36353989640E+02  0.10611717311E+02  0.48942227662E+02  0.00000000000E+00 0.  1.
         22    1    1    2    0    0  0.58198255016E+03  0.55765149159E+03 -0.12094827922E+04  0.14534536454E+04  0.00000000000E+00 0. -1.
<mgrwt>
<rscale>  0 0.18160495E+04</rscale>
<asrwt>0</asrwt>
<pdfrwt beam="1">  1        2 0.28205361E+00 0.18160495E+04</pdfrwt>
<pdfrwt beam="2">  1       -2 0.69188989E-01 0.18160495E+04</pdfrwt>
<totfact> 0.14864591E+01</totfact>
</mgrwt>
</event>
<event>
 6    1  0.2238133E-007  0.1384826E+04  0.7818608E-02  0.8964876E-01
         -2   -1    0    0    0  501 -0.00000000000E+00  0.00000000000E+00  0.29590029334E+03  0.29590029334E+03  0.00000000000E+00 0.  1.
          2   -1    0    0  501    0  0.00000000000E+00 -0.00000000000E+00 -0.16202607036E+04  0.16202607036E+04  0.00000000000E+00 0. -1.
         23    2    1    2    0    0 -0.24910979476E+03 -0.26976136703E+03 -0.14725186032E+04  0.15202093141E+04  0.88873150095E+02 0.  0.
         11    1    3    3    0    0 -0.76966081538E+01 -0.16525372344E+02 -0.24591941192E+02  0.30611914017E+02  0.00000000000E+00 0.  1.
        -11    1    3    3    0    0 -0.24141318660E+03 -0.25323599468E+03 -0.14479266620E+04  0.14895974001E+04  0.00000000000E+00 0. -1.
         22    1    1    2    0    0  0.24910979476E+03  0.26976136703E+03  0.14815819300E+03  0.39595168283E+03  0.00000000000E+00 0.  1.
<mgrwt>
<rscale>  0 0.13848258E+04</rscale>
<asrwt>0</asrwt>
<pdfrwt beam="1">  1        2 0.24927088E+00 0.13848258E+04</pdfrwt>
<pdfrwt beam="2">  1       -2 0.45523121E-01 0.13848258E+04</pdfrwt>
<totfact> 0.48430648E+01</totfact>
</mgrwt>
</event>
<event>
 6    1  0.2238133E-007  0.2298802E+04  0.7818608E-02  0.8478394E-01
         -2   -1    0    0    0  501 -0.00000000000E+00  0.00000000000E+00  0.50363612284E+03  0.50363612284E+03  0.00000000000E+00 0.  1.
          2   -1    0    0  501    0  0.00000000000E+00 -0.00000000000E+00 -0.26231696296E+04  0.26231696296E+04  0.00000000000E+00 0. -1.
         23    2    1    2    0    0 -0.14571152382E+03 -0.82718434729E+03 -0.21250015319E+04  0.22868678430E+04  0.93097947584E+02 0.  0.
         11    1    3    3    0    0 -0.95120191629E+02 -0.39402792494E+03 -0.11296002910E+04  0.12001261075E+04  0.00000000000E+00 0.  1.
        -11    1    3    3    0    0 -0.50591332187E+02 -0.43315642235E+03 -0.99540124093E+03  0.10867417354E+04  0.00000000000E+00 0. -1.
         22    1    1    2    0    0  0.14571152382E+03  0.82718434729E+03  0.54680251278E+01  0.83993790954E+03  0.00000000000E+00 0.  1.
<mgrwt>
<rscale>  0 0.22988023E+04</rscale>
<asrwt>0</asrwt>
<pdfrwt beam="1">  1        2 0.40356455E+00 0.22988023E+04</pdfrwt>
<pdfrwt beam="2">  1       -2 0.77482482E-01 0.22988023E+04</pdfrwt>
<totfact> 0.39715183E+00</totfact>
</mgrwt>
</event>
<event>
 6    1  0.2238133E-007  0.3323398E+04  0.7818608E-02  0.8156967E-01
          2   -1    0    0  501    0  0.00000000000E+00  0.00000000000E+00  0.27727812372E+04  0.27727812372E+04  0.00000000000E+00 0. -1.
         -2   -1    0    0    0  501 -0.00000000000E+00 -0.00000000000E+00 -0.99583899946E+03  0.99583899946E+03  0.00000000000E+00 0.  1.
         23    2    1    2    0    0 -0.15818220351E+04  0.47520962499E+03  0.69608671748E+03  0.17947322474E+04  0.92422849356E+02 0.  0.
         13    1    3    3    0    0 -0.36339829699E+03  0.95673067080E+02  0.11922223096E+03  0.39424053366E+03  0.00000000000E+00 0. -1.
        -13    1    3    3    0    0 -0.12184237381E+04  0.37953655791E+03  0.57686448652E+03  0.14004917137E+04  0.00000000000E+00 0.  1.
         22    1    1    2    0    0  0.15818220351E+04 -0.47520962499E+03  0.10808555203E+04  0.19738879893E+04  0.00000000000E+00 0. -1.
<mgrwt>
<rscale>  0 0.33233981E+04</rscale>
<asrwt>0</asrwt>
<pdfrwt beam="1">  1        2 0.42658173E+00 0.33233981E+04</pdfrwt>
<pdfrwt beam="2">  1       -2 0.15320600E+00 0.33233981E+04</pdfrwt>
<totfact> 0.56676750E-01</totfact>
</mgrwt>
</event>
<event>
 6    1  0.2238133E-007  0.2822166E+04  0.7818608E-02  0.8296420E-01
         -2   -1    0    0    0  501 -0.00000000000E+00  0.00000000000E+00  0.12933374521E+04  0.12933374521E+04  0.00000000000E+00 0.  1.
          2   -1    0    0  501    0  0.00000000000E+00 -0.00000000000E+00 -0.15395481523E+04  0.15395481523E+04  0.00000000000E+00 0. -1.
         23    2    1    2    0    0  0.13414790444E+04  0.17626244669E+03  0.27353140949E+03  0.13834835423E+04  0.92589433227E+02 0.  0.
         11    1    3    3    0    0  0.60482001010E+03  0.12473799957E+03  0.13535340912E+03  0.63220831892E+03  0.00000000000E+00 0.  1.
        -11    1    3    3    0    0  0.73665903434E+03  0.51524447123E+02  0.13817800038E+03  0.75127522341E+03  0.00000000000E+00 0. -1.
         22    1    1    2    0    0 -0.13414790444E+04 -0.17626244669E+03 -0.51974210970E+03  0.14494020620E+04  0.00000000000E+00 0. -1.
<mgrwt>
<rscale>  0 0.28221660E+04</rscale>
<asrwt>0</asrwt>
<pdfrwt beam="1">  1        2 0.23685356E+00 0.28221660E+04</pdfrwt>
<pdfrwt beam="2">  1       -2 0.19897499E+00 0.28221660E+04</pdfrwt>
<totfact> 0.14149463E+00</totfact>
</mgrwt>
</event>
<event>
 6    1  0.2238133E-007  0.4251625E+04  0.7818608E-02  0.7955624E-01
         -1   -1    0    0    0  501 -0.00000000000E+00  0.00000000000E+00  0.31762658908E+04  0.31762658908E+04  0.00000000000E+00 0.  1.
          1   -1    0    0  501    0  0.00000000000E+00 -0.00000000000E+00 -0.14227645832E+04  0.14227645832E+04  0.00000000000E+00 0. -1.
         23    2    1    2    0    0 -0.66757328110E+03 -0.18251065566E+04 -0.52467975252E+02  0.19460711679E+04  0.88159364319E+02 0.  0.
         13    1    3    3    0    0 -0.29271386158E+02 -0.43529769657E+02  0.52674867879E+01  0.52720027609E+02  0.00000000000E+00 0. -1.
        -13    1    3    3    0    0 -0.63830189494E+03 -0.17815767870E+04 -0.57735462040E+02  0.18933511403E+04  0.00000000000E+00 0.  1.
         22    1    1    2    0    0  0.66757328110E+03  0.18251065566E+04  0.18059692829E+04  0.26529593060E+04  0.00000000000E+00 0.  1.
<mgrwt>
<rscale>  0 0.42516249E+04</rscale>
<asrwt>0</asrwt>
<pdfrwt beam="1">  1        1 0.21888686E+00 0.42516249E+04</pdfrwt>
<pdfrwt beam="2">  1       -1 0.48865629E+00 0.42516249E+04</pdfrwt>
<totfact> 0.10057125E-02</totfact>
</mgrwt>
</event>
<event>
 6    1  0.2238133E-007  0.1589228E+04  0.7818608E-02  0.8827193E-01
          2   -1    0    0  501    0  0.00000000000E+00  0.00000000000E+00  0.93791464040E+03  0.93791464040E+03  0.00000000000E+00 0. -1.
         -2   -1    0    0    0  501 -0.00000000000E+00 -0.00000000000E+00 -0.67320795317E+03  0.67320795317E+03  0.00000000000E+00 0.  1.
         23    2    1    2    0    0  0.71120910896E+03 -0.25322517390E+03  0.37537932666E+03  0.84810895118E+03  0.91857328612E+02 0.  0.
         13    1    3    3    0    0  0.33072552055E+03 -0.13136965565E+03  0.22608044626E+03  0.42160375301E+03  0.00000000000E+00 0. -1.
        -13    1    3    3    0    0  0.38048358841E+03 -0.12185551825E+03  0.14929888039E+03  0.42650519817E+03  0.00000000000E+00 0.  1.
         22    1    1    2    0    0 -0.71120910896E+03  0.25322517390E+03 -0.11067263942E+03  0.76301364240E+03  0.00000000000E+00 0.  1.
<mgrwt>
<rscale>  0 0.15892282E+04</rscale>
<asrwt>0</asrwt>
<pdfrwt beam="1">  1        2 0.14429456E+00 0.15892282E+04</pdfrwt>
<pdfrwt beam="2">  1       -2 0.10357045E+00 0.15892282E+04</pdfrwt>
<totfact> 0.20165282E+01</totfact>
</mgrwt>
</event>
<event>
 6    1  0.2238133E-007  0.3517785E+04  0.7818608E-02  0.8109588E-01
          1   -1    0    0  501    0  0.00000000000E+00  0.00000000000E+00  0.88443233394E+03  0.88443233394E+03  0.00000000000E+00 0. -1.
         -1   -1    0    0    0  501 -0.00000000000E+00 -0.00000000000E+00 -0.34979528229E+04  0.34979528229E+04  0.00000000000E+00 0.  1.
         23    2    1    2    0    0 -0.26406049065E+02  0.17456487524E+04 -0.10529559399E+04  0.20407300674E+04  0.88747677689E+02 0.  0.
         13    1    3    3    0    0  0.26540637417E+00  0.52720905873E+03 -0.36506242809E+03  0.64126440604E+03  0.00000000000E+00 0.  1.
        -13    1    3    3    0    0 -0.26671455439E+02  0.12184396937E+04 -0.68789351183E+03  0.13994656614E+04  0.00000000000E+00 0. -1.
         22    1    1    2    0    0  0.26406049065E+02 -0.17456487524E+04 -0.15605645491E+04  0.23416550895E+04  0.00000000000E+00 0.  1.
<mgrwt>
<rscale>  0 0.35177849E+04</rscale>
<asrwt>0</asrwt>
<pdfrwt beam="1">  1        1 0.13606651E+00 0.35177849E+04</pdfrwt>
<pdfrwt beam="2">  1       -1 0.53814659E+00 0.35177849E+04</pdfrwt>
<totfact> 0.13294787E-02</totfact>
</mgrwt>
</event>
<event>
 6    1  0.2238133E-007  0.3321730E+03  0.7818608E-02  0.1070179E+00
          2   -1    0    0  501    0  0.00000000000E+00  0.00000000000E+00  0.28485233189E+04  0.28485233189E+04  0.00000000000E+00 0. -1.
         -2   -1    0    0    0  501 -0.00000000000E+00 -0.00000000000E+00 -0.96838700045E+01  0.96838700045E+01  0.00000000000E+00 0.  1.
         23    2    1    2    0    0 -0.20551231721E+02 -0.92894969835E+02  0.25652014758E+04  0.25685011847E+04  0.88813826981E+02 0.  0.
         11    1    3    3    0    0 -0.39373213299E+02 -0.73112377335E+02  0.23636716057E+04  0.23651298335E+04  0.00000000000E+00 0. -1.
        -11    1    3    3    0    0  0.18821981578E+02 -0.19782592500E+02  0.20152987003E+03  0.20337135116E+03  0.00000000000E+00 0.  1.
         22    1    1    2    0    0  0.20551231721E+02  0.92894969835E+02  0.27363797307E+03  0.28970600417E+03  0.00000000000E+00 0.  1.
<mgrwt>
<rscale>  0 0.33217302E+03</rscale>
<asrwt>0</asrwt>
<pdfrwt beam="1">  1        2 0.43823369E+00 0.33217302E+03</pdfrwt>
<pdfrwt beam="2">  1       -2 0.14898284E-02 0.33217302E+03</pdfrwt>
<totfact> 0.30300896E+03</totfact>
</mgrwt>
</event>
<event>
 6    1  0.2238133E-007  0.2762453E+04  0.7818608E-02  0.8315021E-01
         -2   -1    0    0    0  501 -0.00000000000E+00  0.00000000000E+00  0.11101341644E+04  0.11101341644E+04  0.00000000000E+00 0.  1.
          2   -1    0    0  501    0  0.00000000000E+00 -0.00000000000E+00 -0.17185193364E+04  0.17185193364E+04  0.00000000000E+00 0. -1.
         23    2    1    2    0    0 -0.76358932070E+03 -0.11436631524E+04 -0.18942865884E+03  0.13911005046E+04  0.90792842145E+02 0.  0.
         13    1    3    3    0    0 -0.16694790131E+03 -0.18905620781E+03 -0.25514230923E+02  0.25350508366E+03  0.00000000000E+00 0. -1.
        -13    1    3    3    0    0 -0.59664141939E+03 -0.95460694462E+03 -0.16391442792E+03  0.11375954209E+04  0.00000000000E+00 0.  1.
         22    1    1    2    0    0  0.76358932070E+03  0.11436631524E+04 -0.41895651312E+03  0.14375529962E+04  0.00000000000E+00 0.  1.
<mgrwt>
<rscale>  0 0.27624533E+04</rscale>
<asrwt>0</asrwt>
<pdfrwt beam="1">  1        2 0.26438759E+00 0.27624533E+04</pdfrwt>
<pdfrwt beam="2">  1       -2 0.17078987E+00 0.27624533E+04</pdfrwt>
<totfact> 0.17589719E+00</totfact>
</mgrwt>
</event>
<event>
 6    1  0.2238133E-007  0.3726897E+04  0.7818608E-02  0.8062027E-01
         -2   -1    0    0    0  501 -0.00000000000E+00  0.00000000000E+00  0.20876750312E+04  0.20876750312E+04  0.00000000000E+00 0.  1.
          2   -1    0    0  501    0  0.00000000000E+00 -0.00000000000E+00 -0.16633046969E+04  0.16633046969E+04  0.00000000000E+00 0. -1.
         23    2    1    2    0    0  0.11177940857E+04  0.38683028062E+03 -0.12354749055E+04  0.17127973261E+04  0.90416560325E+02 0.  0.
         11    1    3    3    0    0  0.29117871757E+03  0.10879836816E+03 -0.26983114640E+03  0.41161994370E+03  0.00000000000E+00 0. -1.
        -11    1    3    3    0    0  0.82661536813E+03  0.27803191246E+03 -0.96564375905E+03  0.13011773824E+04  0.00000000000E+00 0.  1.
         22    1    1    2    0    0 -0.11177940857E+04 -0.38683028062E+03  0.16598452397E+04  0.20381824020E+04  0.00000000000E+00 0.  1.
<mgrwt>
<rscale>  0 0.37268967E+04</rscale>
<asrwt>0</asrwt>
<pdfrwt beam="1">  1        2 0.25589303E+00 0.37268967E+04</pdfrwt>
<pdfrwt beam="2">  1       -2 0.32118077E+00 0.37268967E+04</pdfrwt>
<totfact> 0.19519903E-01</totfact>
</mgrwt>
</event>
<event>
 6    1  0.2238133E-007  0.2737446E+04  0.7818608E-02  0.8322956E-01
         -2   -1    0    0    0  501 -0.00000000000E+00  0.00000000000E+00  0.67374392116E+03  0.67374392116E+03  0.00000000000E+00 0.  1.
          2   -1    0    0  501    0  0.00000000000E+00 -0.00000000000E+00 -0.27805856579E+04  0.27805856579E+04  0.00000000000E+00 0. -1.
         23    2    1    2    0    0  0.12590786948E+04  0.32657204927E+03 -0.15858736716E+04  0.20531385900E+04  0.91947290350E+02 0.  0.
         11    1    3    3    0    0  0.29289497690E+03  0.44456085827E+02 -0.32436531161E+03  0.43929109533E+03  0.00000000000E+00 0. -1.
        -11    1    3    3    0    0  0.96618371790E+03  0.28211596344E+03 -0.12615083600E+04  0.16138474946E+04  0.00000000000E+00 0.  1.
         22    1    1    2    0    0 -0.12590786948E+04 -0.32657204927E+03 -0.52096806513E+03  0.14011909891E+04  0.00000000000E+00 0.  1.
<mgrwt>
<rscale>  0 0.27374460E+04</rscale>
<asrwt>0</asrwt>
<pdfrwt beam="1">  1        2 0.42778241E+00 0.27374460E+04</pdfrwt>
<pdfrwt beam="2">  1       -2 0.10365291E+00 0.27374460E+04</pdfrwt>
<totfact> 0.15749571E+00</totfact>
</mgrwt>
</event>
<event>
 6    1  0.2238133E-007  0.1728572E+04  0.7818608E-02  0.8745234E-01
         -2   -1    0    0    0  501 -0.00000000000E+00  0.00000000000E+00  0.19590113732E+03  0.19590113732E+03  0.00000000000E+00 0.  1.
          2   -1    0    0  501    0  0.00000000000E+00 -0.00000000000E+00 -0.38130999476E+04  0.38130999476E+04  0.00000000000E+00 0. -1.
         23    2    1    2    0    0  0.73643946408E+03 -0.31234554121E+03 -0.10689133244E+04  0.13381095224E+04  0.89769579559E+02 0.  0.
         13    1    3    3    0    0  0.59370154719E+03 -0.24467555284E+03 -0.79539801329E+03  0.10222551799E+04  0.00000000000E+00 0. -1.
        -13    1    3    3    0    0  0.14273791689E+03 -0.67669988375E+02 -0.27351531112E+03  0.31585434247E+03  0.00000000000E+00 0.  1.
         22    1    1    2    0    0 -0.73643946408E+03  0.31234554121E+03 -0.25482854858E+04  0.26708915625E+04  0.00000000000E+00 0.  1.
<mgrwt>
<rscale>  0 0.17285724E+04</rscale>
<asrwt>0</asrwt>
<pdfrwt beam="1">  1        2 0.58663078E+00 0.17285724E+04</pdfrwt>
<pdfrwt beam="2">  1       -2 0.30138636E-01 0.17285724E+04</pdfrwt>
<totfact> 0.46960534E+00</totfact>
</mgrwt>
</event>
<event>
 6    1  0.2238133E-007  0.2321194E+04  0.7818608E-02  0.8469611E-01
         -2   -1    0    0    0  501 -0.00000000000E+00  0.00000000000E+00  0.11853765296E+04  0.11853765296E+04  0.00000000000E+00 0.  1.
          2   -1    0    0  501    0  0.00000000000E+00 -0.00000000000E+00 -0.11363358198E+04  0.11363358198E+04  0.00000000000E+00 0. -1.
         23    2    1    2    0    0  0.96260108722E+03 -0.36503631101E+03  0.55659234972E+03  0.11739052974E+04  0.91685560278E+02 0.  0.
         13    1    3    3    0    0  0.72490427096E+03 -0.28161159806E+03  0.37506577169E+03  0.86340351361E+03  0.00000000000E+00 0.  1.
        -13    1    3    3    0    0  0.23769681626E+03 -0.83424712954E+02  0.18152657803E+03  0.31050178377E+03  0.00000000000E+00 0. -1.
         22    1    1    2    0    0 -0.96260108722E+03  0.36503631101E+03 -0.50755163999E+03  0.11478070521E+04  0.00000000000E+00 0. -1.
<mgrwt>
<rscale>  0 0.23211944E+04</rscale>
<asrwt>0</asrwt>
<pdfrwt beam="1">  1        2 0.17482089E+00 0.23211944E+04</pdfrwt>
<pdfrwt beam="2">  1       -2 0.18236562E+00 0.23211944E+04</pdfrwt>
<totfact> 0.32709768E+00</totfact>
</mgrwt>
</event>
<event>
 6    1  0.2238133E-007  0.2532487E+04  0.7818608E-02  0.8391503E-01
         -2   -1    0    0    0  501 -0.00000000000E+00  0.00000000000E+00  0.11340669760E+04  0.11340669760E+04  0.00000000000E+00 0.  1.
          2   -1    0    0  501    0  0.00000000000E+00 -0.00000000000E+00 -0.14138247657E+04  0.14138247657E+04  0.00000000000E+00 0. -1.
         23    2    1    2    0    0 -0.69648168411E+03  0.92494724278E+03  0.37163744954E+03  0.12193851003E+04  0.90396298520E+02 0.  0.
         13    1    3    3    0    0 -0.36622550213E+03  0.43494213240E+03  0.14765971883E+03  0.58745141885E+03  0.00000000000E+00 0.  1.
        -13    1    3    3    0    0 -0.33025618198E+03  0.49000511039E+03  0.22397773071E+03  0.63193368149E+03  0.00000000000E+00 0. -1.
         22    1    1    2    0    0  0.69648168411E+03 -0.92494724278E+03 -0.65139523927E+03  0.13285066413E+04  0.00000000000E+00 0. -1.
<mgrwt>
<rscale>  0 0.25324865E+04</rscale>
<asrwt>0</asrwt>
<pdfrwt beam="1">  1        2 0.21751150E+00 0.25324865E+04</pdfrwt>
<pdfrwt beam="2">  1       -2 0.17447184E+00 0.25324865E+04</pdfrwt>
<totfact> 0.25049693E+00</totfact>
</mgrwt>
</event>
<event>
 6    1  0.2238133E-007  0.3865732E+04  0.7818608E-02  0.8032194E-01
         -2   -1    0    0    0  501 -0.00000000000E+00  0.00000000000E+00  0.18542375667E+04  0.18542375667E+04  0.00000000000E+00 0.  1.
          2   -1    0    0  501    0  0.00000000000E+00 -0.00000000000E+00 -0.20148285432E+04  0.20148285432E+04  0.00000000000E+00 0. -1.
         23    2    1    2    0    0  0.84363595816E+02  0.13307120827E+04 -0.14792796008E+04  0.19937390581E+04  0.93890526478E+02 0.  0.
         13    1    3    3    0    0  0.75909255019E+02  0.91016210918E+03 -0.10708818903E+04  0.14074605867E+04  0.00000000000E+00 0. -1.
        -13    1    3    3    0    0  0.84543407971E+01  0.42054997351E+03 -0.40839771047E+03  0.58627847139E+03  0.00000000000E+00 0.  1.
         22    1    1    2    0    0 -0.84363595816E+02 -0.13307120827E+04  0.13186886243E+04  0.18753270518E+04  0.00000000000E+00 0.  1.
<mgrwt>
<rscale>  0 0.38657319E+04</rscale>
<asrwt>0</asrwt>
<pdfrwt beam="1">  1        2 0.30997362E+00 0.38657319E+04</pdfrwt>
<pdfrwt beam="2">  1       -2 0.28526732E+00 0.38657319E+04</pdfrwt>
<totfact> 0.20446871E-01</totfact>
</mgrwt>
</event>
<event>
 6    1  0.2242493E-007  0.3825471E+04  0.7818608E-02  0.8040711E-01
         -2   -1    0    0    0  501 -0.00000000000E+00  0.00000000000E+00  0.20653489353E+04  0.20653489353E+04  0.00000000000E+00 0.  1.
          2   -1    0    0  501    0  0.00000000000E+00 -0.00000000000E+00 -0.17713993456E+04  0.17713993456E+04  0.00000000000E+00 0. -1.
         23    2    1    2    0    0 -0.70598812311E+03  0.72816554692E+03 -0.14780412197E+04  0.17950343630E+04  0.94330396197E+02 0.  0.
         11    1    3    3    0    0 -0.13470254593E+03  0.17092942712E+03 -0.26327602856E+03  0.34157855926E+03  0.00000000000E+00 0. -1.
        -11    1    3    3    0    0 -0.57128557719E+03  0.55723611980E+03 -0.12147651911E+04  0.14534558038E+04  0.00000000000E+00 0.  1.
         22    1    1    2    0    0  0.70598812311E+03 -0.72816554692E+03  0.17719908094E+04  0.20417139178E+04  0.00000000000E+00 0.  1.
<mgrwt>
<rscale>  0 0.38254713E+04</rscale>
<asrwt>0</asrwt>
<pdfrwt beam="1">  1        2 0.27252297E+00 0.38254713E+04</pdfrwt>
<pdfrwt beam="2">  1       -2 0.31774599E+00 0.38254713E+04</pdfrwt>
<totfact> 0.17704033E-01</totfact>
</mgrwt>
</event>
<event>
 6    1  0.2238133E-007  0.2729365E+04  0.7818608E-02  0.8325539E-01
          2   -1    0    0  501    0  0.00000000000E+00  0.00000000000E+00  0.32129933720E+04  0.32129933720E+04  0.00000000000E+00 0. -1.
         -2   -1    0    0    0  501 -0.00000000000E+00 -0.00000000000E+00 -0.57963351739E+03  0.57963351739E+03  0.00000000000E+00 0.  1.
         23    2    1    2    0    0 -0.61549352183E+03 -0.12140557767E+04  0.12146711096E+04  0.18265542916E+04  0.90060931534E+02 0.  0.
         13    1    3    3    0    0 -0.39216760764E+03 -0.76667668445E+03  0.82576308012E+03  0.11930939759E+04  0.00000000000E+00 0.  1.
        -13    1    3    3    0    0 -0.22332591419E+03 -0.44737909227E+03  0.38890802944E+03  0.63346031566E+03  0.00000000000E+00 0. -1.
         22    1    1    2    0    0  0.61549352183E+03  0.12140557767E+04  0.14186887451E+04  0.19660725978E+04  0.00000000000E+00 0. -1.
<mgrwt>
<rscale>  0 0.27293652E+04</rscale>
<asrwt>0</asrwt>
<pdfrwt beam="1">  1        2 0.49430666E+00 0.27293652E+04</pdfrwt>
<pdfrwt beam="2">  1       -2 0.89174389E-01 0.27293652E+04</pdfrwt>
<totfact> 0.12011638E+00</totfact>
</mgrwt>
</event>
<event>
 6    1  0.2238133E-007  0.1689025E+04  0.7818608E-02  0.8767649E-01
         -2   -1    0    0    0  501 -0.00000000000E+00  0.00000000000E+00  0.40435531570E+03  0.40435531570E+03  0.00000000000E+00 0.  1.
          2   -1    0    0  501    0  0.00000000000E+00 -0.00000000000E+00 -0.17637983809E+04  0.17637983809E+04  0.00000000000E+00 0. -1.
         23    2    1    2    0    0  0.45862085370E+03  0.20193048116E+02  0.22461816261E+03  0.51891422943E+03  0.89876648186E+02 0.  0.
         13    1    3    3    0    0  0.26696225783E+03  0.54920016035E+02  0.11976410840E+03  0.29770538613E+03  0.00000000000E+00 0. -1.
        -13    1    3    3    0    0  0.19165859587E+03 -0.34726967918E+02  0.10485405421E+03  0.22120884330E+03  0.00000000000E+00 0.  1.
         22    1    1    2    0    0 -0.45862085370E+03 -0.20193048116E+02 -0.15840612278E+04  0.16492394672E+04  0.00000000000E+00 0. -1.
<mgrwt>
<rscale>  0 0.16890249E+04</rscale>
<asrwt>0</asrwt>
<pdfrwt beam="1">  1        2 0.27135360E+00 0.16890249E+04</pdfrwt>
<pdfrwt beam="2">  1       -2 0.62208510E-01 0.16890249E+04</pdfrwt>
<totfact> 0.20641759E+01</totfact>
</mgrwt>
</event>
<event>
 6    1  0.2238133E-007  0.1009894E+04  0.7818608E-02  0.9297759E-01
         -1   -1    0    0    0  501 -0.00000000000E+00  0.00000000000E+00  0.83937029979E+03  0.83937029979E+03  0.00000000000E+00 0.  1.
          1   -1    0    0  501    0  0.00000000000E+00 -0.00000000000E+00 -0.30376515629E+03  0.30376515629E+03  0.00000000000E+00 0. -1.
         23    2    1    2    0    0  0.20429541514E+03 -0.36837589578E+03 -0.36357147474E+02  0.43279871935E+03  0.92495794813E+02 0.  0.
         11    1    3    3    0    0  0.14889476467E+03 -0.23713631279E+03  0.17384239807E+02  0.28054499386E+03  0.00000000000E+00 0.  1.
        -11    1    3    3    0    0  0.55400650464E+02 -0.13123958300E+03 -0.53741387281E+02  0.15225372549E+03  0.00000000000E+00 0. -1.
         22    1    1    2    0    0 -0.20429541514E+03  0.36837589578E+03  0.57196229097E+03  0.71033673672E+03  0.00000000000E+00 0.  1.
<mgrwt>
<rscale>  0 0.10098940E+04</rscale>
<asrwt>0</asrwt>
<pdfrwt beam="1">  1        1 0.46733101E-01 0.10098940E+04</pdfrwt>
<pdfrwt beam="2">  1       -1 0.12913389E+00 0.10098940E+04</pdfrwt>
<totfact> 0.44594928E+01</totfact>
</mgrwt>
</event>
<event>
 6    1  0.2238133E-007  0.3713199E+04  0.7818608E-02  0.8065043E-01
          2   -1    0    0  501    0  0.00000000000E+00  0.00000000000E+00  0.27734473408E+04  0.27734473408E+04  0.00000000000E+00 0. -1.
         -2   -1    0    0    0  501 -0.00000000000E+00 -0.00000000000E+00 -0.12428435243E+04  0.12428435243E+04  0.00000000000E+00 0.  1.
         23    2    1    2    0    0 -0.15051615031E+04  0.10491127377E+04  0.10664660834E+04  0.21237865660E+04  0.83491223152E+02 0.  0.
         13    1    3    3    0    0 -0.66138881252E+03  0.50756810108E+03  0.50313485591E+03  0.97375829742E+03  0.00000000000E+00 0. -1.
        -13    1    3    3    0    0 -0.84377269058E+03  0.54154463657E+03  0.56333122749E+03  0.11500282686E+04  0.00000000000E+00 0.  1.
         22    1    1    2    0    0  0.15051615031E+04 -0.10491127377E+04  0.46413773312E+03  0.18925042991E+04  0.00000000000E+00 0.  1.
<mgrwt>
<rscale>  0 0.37131987E+04</rscale>
<asrwt>0</asrwt>
<pdfrwt beam="1">  1        2 0.42668421E+00 0.37131987E+04</pdfrwt>
<pdfrwt beam="2">  1       -2 0.19120670E+00 0.37131987E+04</pdfrwt>
<totfact> 0.29469318E-01</totfact>
</mgrwt>
</event>
<event>
 6    1  0.2238133E-007  0.2688480E+04  0.7818608E-02  0.8338753E-01
          2   -1    0    0  501    0  0.00000000000E+00  0.00000000000E+00  0.12705237820E+04  0.12705237820E+04  0.00000000000E+00 0. -1.
         -2   -1    0    0    0  501 -0.00000000000E+00 -0.00000000000E+00 -0.14222327666E+04  0.14222327666E+04  0.00000000000E+00 0.  1.
         23    2    1    2    0    0  0.31746207743E+03 -0.50841444025E+03 -0.12793597717E+04  0.14157038045E+04  0.90489904553E+02 0.  0.
         11    1    3    3    0    0  0.18108830889E+03 -0.23267048184E+03 -0.54797678063E+03  0.62225965709E+03  0.00000000000E+00 0.  1.
        -11    1    3    3    0    0  0.13637376854E+03 -0.27574395841E+03 -0.73138299111E+03  0.79344414739E+03  0.00000000000E+00 0. -1.
         22    1    1    2    0    0 -0.31746207743E+03  0.50841444025E+03  0.11276507871E+04  0.12770527441E+04  0.00000000000E+00 0. -1.
<mgrwt>
<rscale>  0 0.26884795E+04</rscale>
<asrwt>0</asrwt>
<pdfrwt beam="1">  1        2 0.19546520E+00 0.26884795E+04</pdfrwt>
<pdfrwt beam="2">  1       -2 0.21880504E+00 0.26884795E+04</pdfrwt>
<totfact> 0.15192644E+00</totfact>
</mgrwt>
</event>
<event>
 6    1  0.2238133E-007  0.6564384E+03  0.7818608E-02  0.9794772E-01
         -2   -1    0    0    0  501 -0.00000000000E+00  0.00000000000E+00  0.16597682630E+03  0.16597682630E+03  0.00000000000E+00 0.  1.
          2   -1    0    0  501    0  0.00000000000E+00 -0.00000000000E+00 -0.64905348194E+03  0.64905348194E+03  0.00000000000E+00 0. -1.
         23    2    1    2    0    0 -0.11573431437E+03  0.20185007166E+03  0.29114390161E+02  0.25246693371E+03  0.93562930446E+02 0.  0.
         11    1    3    3    0    0 -0.10226891649E+03  0.84545447949E+02  0.16863542960E+02  0.13375815164E+03  0.00000000000E+00 0. -1.
        -11    1    3    3    0    0 -0.13465397874E+02  0.11730462371E+03  0.12250847201E+02  0.11870878207E+03  0.00000000000E+00 0.  1.
         22    1    1    2    0    0  0.11573431437E+03 -0.20185007166E+03 -0.51219104581E+03  0.56256337452E+03  0.00000000000E+00 0.  1.
<mgrwt>
<rscale>  0 0.65643838E+03</rscale>
<asrwt>0</asrwt>
<pdfrwt beam="1">  1        2 0.99854385E-01 0.65643838E+03</pdfrwt>
<pdfrwt beam="2">  1       -2 0.25534896E-01 0.65643838E+03</pdfrwt>
<totfact> 0.62489926E+02</totfact>
</mgrwt>
</event>
<event>
 6    1  0.2238133E-007  0.2603202E+04  0.7818608E-02  0.8367114E-01
          1   -1    0    0  501    0  0.00000000000E+00  0.00000000000E+00  0.16382936690E+04  0.16382936690E+04  0.00000000000E+00 0. -1.
         -1   -1    0    0    0  501 -0.00000000000E+00 -0.00000000000E+00 -0.10341032597E+04  0.10341032597E+04  0.00000000000E+00 0.  1.
         23    2    1    2    0    0 -0.87258042532E+03  0.96260169676E+03  0.34744862659E+03  0.13480423809E+04  0.92190495156E+02 0.  0.
         11    1    3    3    0    0 -0.66834620036E+03  0.72586782677E+03  0.30344965065E+03  0.10323044299E+04  0.00000000000E+00 0. -1.
        -11    1    3    3    0    0 -0.20423422496E+03  0.23673386999E+03  0.43998975938E+02  0.31573795104E+03  0.00000000000E+00 0.  1.
         22    1    1    2    0    0  0.87258042532E+03 -0.96260169676E+03  0.25674178278E+03  0.13243545478E+04  0.00000000000E+00 0. -1.
<mgrwt>
<rscale>  0 0.26032017E+04</rscale>
<asrwt>0</asrwt>
<pdfrwt beam="1">  1        1 0.25204518E+00 0.26032017E+04</pdfrwt>
<pdfrwt beam="2">  1       -1 0.15909281E+00 0.26032017E+04</pdfrwt>
<totfact> 0.13731883E+00</totfact>
</mgrwt>
</event>
<event>
 6    1  0.2238133E-007  0.3561483E+04  0.7818608E-02  0.8099372E-01
         -2   -1    0    0    0  501 -0.00000000000E+00  0.00000000000E+00  0.10907141841E+04  0.10907141841E+04  0.00000000000E+00 0.  1.
          2   -1    0    0  501    0  0.00000000000E+00 -0.00000000000E+00 -0.29073065551E+04  0.29073065551E+04  0.00000000000E+00 0. -1.
         23    2    1    2    0    0 -0.17004724112E+04  0.11145405936E+03 -0.33338303063E+03  0.17388309782E+04  0.91435753613E+02 0.  0.
         11    1    3    3    0    0 -0.84441300023E+03  0.39155126568E+02 -0.12177153534E+03  0.85404610280E+03  0.00000000000E+00 0. -1.
        -11    1    3    3    0    0 -0.85605941095E+03  0.72298932792E+02 -0.21161149529E+03  0.88478487538E+03  0.00000000000E+00 0.  1.
         22    1    1    2    0    0  0.17004724112E+04 -0.11145405936E+03 -0.14832093404E+04  0.22591897609E+04  0.00000000000E+00 0. -1.
<mgrwt>
<rscale>  0 0.35614831E+04</rscale>
<asrwt>0</asrwt>
<pdfrwt beam="1">  1        2 0.44727792E+00 0.35614831E+04</pdfrwt>
<pdfrwt beam="2">  1       -2 0.16780219E+00 0.35614831E+04</pdfrwt>
<totfact> 0.35904797E-01</totfact>
</mgrwt>
</event>
<event>
 6    1  0.2238133E-007  0.3845479E+04  0.7818608E-02  0.8036465E-01
          2   -1    0    0  501    0  0.00000000000E+00  0.00000000000E+00  0.11021301182E+04  0.11021301182E+04  0.00000000000E+00 0. -1.
         -2   -1    0    0    0  501 -0.00000000000E+00 -0.00000000000E+00 -0.33543479563E+04  0.33543479563E+04  0.00000000000E+00 0.  1.
         23    2    1    2    0    0 -0.91768589143E+03 -0.96250348557E+01  0.82979175381E+03  0.12407319462E+04  0.92851338727E+02 0.  0.
         11    1    3    3    0    0 -0.64348765567E+03 -0.37540114930E+02  0.61991366065E+03  0.89430339924E+03  0.00000000000E+00 0. -1.
        -11    1    3    3    0    0 -0.27419823575E+03  0.27915080074E+02  0.20987809316E+03  0.34642854700E+03  0.00000000000E+00 0.  1.
         22    1    1    2    0    0  0.91768589143E+03  0.96250348557E+01 -0.30820095920E+04  0.32157461283E+04  0.00000000000E+00 0.  1.
<mgrwt>
<rscale>  0 0.38454794E+04</rscale>
<asrwt>0</asrwt>
<pdfrwt beam="1">  1        2 0.16955848E+00 0.38454794E+04</pdfrwt>
<pdfrwt beam="2">  1       -2 0.51605354E+00 0.38454794E+04</pdfrwt>
<totfact> 0.22875737E-02</totfact>
</mgrwt>
</event>
<event>
 6    1  0.2238133E-007  0.3999680E+04  0.7818608E-02  0.8004611E-01
          2   -1    0    0  501    0  0.00000000000E+00  0.00000000000E+00  0.34634701802E+04  0.34634701802E+04  0.00000000000E+00 0. -1.
         -2   -1    0    0    0  501 -0.00000000000E+00 -0.00000000000E+00 -0.11547262890E+04  0.11547262890E+04  0.00000000000E+00 0.  1.
         23    2    1    2    0    0 -0.11691992468E+04 -0.15076730689E+04  0.46555860383E+03  0.19653796711E+04  0.76599455060E+02 0.  0.
         11    1    3    3    0    0 -0.82467697627E+03 -0.10054844463E+04  0.32091201712E+03  0.13394310769E+04  0.00000000000E+00 0.  1.
        -11    1    3    3    0    0 -0.34452227050E+03 -0.50218862257E+03  0.14464658671E+03  0.62594859418E+03  0.00000000000E+00 0. -1.
         22    1    1    2    0    0  0.11691992468E+04  0.15076730689E+04  0.18431852874E+04  0.26528167982E+04  0.00000000000E+00 0. -1.
<mgrwt>
<rscale>  0 0.39996800E+04</rscale>
<asrwt>0</asrwt>
<pdfrwt beam="1">  1        2 0.53284156E+00 0.39996800E+04</pdfrwt>
<pdfrwt beam="2">  1       -2 0.17765020E+00 0.39996800E+04</pdfrwt>
<totfact> 0.12782293E-01</totfact>
</mgrwt>
</event>
<event>
 6    1  0.2238133E-007  0.4137224E+04  0.7818608E-02  0.7977422E-01
          2   -1    0    0  501    0  0.00000000000E+00  0.00000000000E+00  0.11225186417E+04  0.11225186417E+04  0.00000000000E+00 0. -1.
         -2   -1    0    0    0  501 -0.00000000000E+00 -0.00000000000E+00 -0.38121019874E+04  0.38121019874E+04  0.00000000000E+00 0.  1.
         23    2    1    2    0    0  0.12491430908E+04  0.90403934607E+03  0.29740351922E+03  0.15731126145E+04  0.92676016192E+02 0.  0.
         11    1    3    3    0    0  0.95689988413E+01  0.18814548084E+02  0.84580153662E+01  0.22739634613E+02  0.00000000000E+00 0. -1.
        -11    1    3    3    0    0  0.12395740920E+04  0.88522479799E+03  0.28894550386E+03  0.15503729799E+04  0.00000000000E+00 0.  1.
         22    1    1    2    0    0 -0.12491430908E+04 -0.90403934607E+03 -0.29869868650E+04  0.33615080146E+04  0.00000000000E+00 0.  1.
<mgrwt>
<rscale>  0 0.41372240E+04</rscale>
<asrwt>0</asrwt>
<pdfrwt beam="1">  1        2 0.17269518E+00 0.41372240E+04</pdfrwt>
<pdfrwt beam="2">  1       -2 0.58647722E+00 0.41372240E+04</pdfrwt>
<totfact> 0.94973488E-03</totfact>
</mgrwt>
</event>
<event>
 6    1  0.2238133E-007  0.1278030E+04  0.7818608E-02  0.9047171E-01
          1   -1    0    0  501    0  0.00000000000E+00  0.00000000000E+00  0.31086077716E+03  0.31086077716E+03  0.00000000000E+00 0. -1.
         -1   -1    0    0    0  501 -0.00000000000E+00 -0.00000000000E+00 -0.13135798436E+04  0.13135798436E+04  0.00000000000E+00 0.  1.
         23    2    1    2    0    0 -0.53308328845E+02 -0.22068241915E+03 -0.12587693523E+04  0.12822356282E+04  0.89918940843E+02 0.  0.
         11    1    3    3    0    0  0.80517364255E+01 -0.74407382287E+02 -0.59941726600E+03  0.60407147572E+03  0.00000000000E+00 0. -1.
        -11    1    3    3    0    0 -0.61360065271E+02 -0.14627503686E+03 -0.65935208627E+03  0.67816415247E+03  0.00000000000E+00 0.  1.
         22    1    1    2    0    0  0.53308328845E+02  0.22068241915E+03  0.25605028585E+03  0.34220499256E+03  0.00000000000E+00 0. -1.
<mgrwt>
<rscale>  0 0.12780304E+04</rscale>
<asrwt>0</asrwt>
<pdfrwt beam="1">  1        1 0.47824735E-01 0.12780304E+04</pdfrwt>
<pdfrwt beam="2">  1       -1 0.20208921E+00 0.12780304E+04</pdfrwt>
<totfact> 0.11993071E+01</totfact>
</mgrwt>
</event>
<event>
 6    1  0.2238133E-007  0.2617666E+04  0.7818608E-02  0.8362225E-01
         -2   -1    0    0    0  501 -0.00000000000E+00  0.00000000000E+00  0.38481528918E+03  0.38481528918E+03  0.00000000000E+00 0.  1.
          2   -1    0    0  501    0  0.00000000000E+00 -0.00000000000E+00 -0.44516005302E+04  0.44516005302E+04  0.00000000000E+00 0. -1.
         23    2    1    2    0    0  0.12761131071E+04 -0.13102005603E+03 -0.15708114777E+04  0.20300808529E+04  0.90269893294E+02 0.  0.
         13    1    3    3    0    0  0.78898175285E+03 -0.54702789306E+02 -0.10226540277E+04  0.12927899527E+04  0.00000000000E+00 0.  1.
        -13    1    3    3    0    0  0.48713135422E+03 -0.76317266727E+02 -0.54815745000E+03  0.73729090015E+03  0.00000000000E+00 0. -1.
         22    1    1    2    0    0 -0.12761131071E+04  0.13102005603E+03 -0.24959737634E+04  0.28063349666E+04  0.00000000000E+00 0.  1.
<mgrwt>
<rscale>  0 0.26176661E+04</rscale>
<asrwt>0</asrwt>
<pdfrwt beam="1">  1        2 0.68486160E+00 0.26176661E+04</pdfrwt>
<pdfrwt beam="2">  1       -2 0.59202354E-01 0.26176661E+04</pdfrwt>
<totfact> 0.32389612E-01</totfact>
</mgrwt>
</event>
<event>
 6    1  0.2238133E-007  0.2117145E+04  0.7818608E-02  0.8553728E-01
          2   -1    0    0  501    0  0.00000000000E+00  0.00000000000E+00  0.73799770037E+03  0.73799770037E+03  0.00000000000E+00 0. -1.
         -2   -1    0    0    0  501 -0.00000000000E+00 -0.00000000000E+00 -0.15183993586E+04  0.15183993586E+04  0.00000000000E+00 0.  1.
         23    2    1    2    0    0  0.17253815994E+03  0.74265030010E+03 -0.11703802940E+04  0.14000196766E+04  0.94689901384E+02 0.  0.
         11    1    3    3    0    0  0.10564633031E+03  0.40121996583E+03 -0.71890537427E+03  0.83003827939E+03  0.00000000000E+00 0. -1.
        -11    1    3    3    0    0  0.66891829635E+02  0.34143033426E+03 -0.45147491968E+03  0.56998139718E+03  0.00000000000E+00 0.  1.
         22    1    1    2    0    0 -0.17253815994E+03 -0.74265030010E+03  0.38997863568E+03  0.85637738244E+03  0.00000000000E+00 0. -1.
<mgrwt>
<rscale>  0 0.21171445E+04</rscale>
<asrwt>0</asrwt>
<pdfrwt beam="1">  1        2 0.11353811E+00 0.21171445E+04</pdfrwt>
<pdfrwt beam="2">  1       -2 0.23359990E+00 0.21171445E+04</pdfrwt>
<totfact> 0.28596988E+00</totfact>
</mgrwt>
</event>
<event>
 6    1  0.2238133E-007  0.2584763E+04  0.7818608E-02  0.8373395E-01
          2   -1    0    0  501    0  0.00000000000E+00  0.00000000000E+00  0.16355667500E+04  0.16355667500E+04  0.00000000000E+00 0. -1.
         -2   -1    0    0    0  501 -0.00000000000E+00 -0.00000000000E+00 -0.10212058371E+04  0.10212058371E+04  0.00000000000E+00 0.  1.
         23    2    1    2    0    0 -0.15195356494E+03 -0.82608383926E+03  0.13152450778E+04  0.15628150889E+04  0.83767489347E+02 0.  0.
         11    1    3    3    0    0 -0.66335359050E+02 -0.38725457290E+03  0.69246515332E+03  0.79616234064E+03  0.00000000000E+00 0. -1.
        -11    1    3    3    0    0 -0.85618205892E+02 -0.43882926636E+03  0.62277992445E+03  0.76665274831E+03  0.00000000000E+00 0.  1.
         22    1    1    2    0    0  0.15195356494E+03  0.82608383926E+03 -0.70088416484E+03  0.10939574982E+04  0.00000000000E+00 0.  1.
<mgrwt>
<rscale>  0 0.25847633E+04</rscale>
<asrwt>0</asrwt>
<pdfrwt beam="1">  1        2 0.25162565E+00 0.25847633E+04</pdfrwt>
<pdfrwt beam="2">  1       -2 0.15710859E+00 0.25847633E+04</pdfrwt>
<totfact> 0.24976843E+00</totfact>
</mgrwt>
</event>
<event>
 6    1  0.2238133E-007  0.9353175E+03  0.7818608E-02  0.9382479E-01
          2   -1    0    0  501    0  0.00000000000E+00  0.00000000000E+00  0.13421834059E+04  0.13421834059E+04  0.00000000000E+00 0. -1.
         -2   -1    0    0    0  501 -0.00000000000E+00 -0.00000000000E+00 -0.16294696269E+03  0.16294696269E+03  0.00000000000E+00 0.  1.
         23    2    1    2    0    0  0.39593139296E+03 -0.23873072599E+03  0.63960879767E+03  0.79453060551E+03  0.91790204180E+02 0.  0.
         11    1    3    3    0    0  0.14571523242E+03 -0.42458318766E+02  0.17704751090E+03  0.23319832527E+03  0.00000000000E+00 0. -1.
        -11    1    3    3    0    0  0.25021616055E+03 -0.19627240722E+03  0.46256128676E+03  0.56133228025E+03  0.00000000000E+00 0.  1.
         22    1    1    2    0    0 -0.39593139296E+03  0.23873072599E+03  0.53962764556E+03  0.71059976310E+03  0.00000000000E+00 0.  1.
<mgrwt>
<rscale>  0 0.93531751E+03</rscale>
<asrwt>0</asrwt>
<pdfrwt beam="1">  1        2 0.20648975E+00 0.93531751E+03</pdfrwt>
<pdfrwt beam="2">  1       -2 0.25068764E-01 0.93531751E+03</pdfrwt>
<totfact> 0.22303091E+02</totfact>
</mgrwt>
</event>
<event>
 6    1  0.2238133E-007  0.2904856E+04  0.7818608E-02  0.8271434E-01
          2   -1    0    0  501    0  0.00000000000E+00  0.00000000000E+00  0.12958665324E+04  0.12958665324E+04  0.00000000000E+00 0. -1.
         -2   -1    0    0    0  501 -0.00000000000E+00 -0.00000000000E+00 -0.16279048088E+04  0.16279048088E+04  0.00000000000E+00 0.  1.
         23    2    1    2    0    0 -0.71296158719E+03  0.48833121463E+03  0.10070208173E+04  0.13300772500E+04  0.90735685109E+02 0.  0.
         13    1    3    3    0    0 -0.61033311558E+03  0.37790843868E+03  0.84539082366E+03  0.11090567816E+04  0.00000000000E+00 0.  1.
        -13    1    3    3    0    0 -0.10262847161E+03  0.11042277594E+03  0.16162999363E+03  0.22102046845E+03  0.00000000000E+00 0. -1.
         22    1    1    2    0    0  0.71296158719E+03 -0.48833121463E+03 -0.13390590937E+04  0.15936940912E+04  0.00000000000E+00 0.  1.
<mgrwt>
<rscale>  0 0.29048562E+04</rscale>
<asrwt>0</asrwt>
<pdfrwt beam="1">  1        2 0.19936408E+00 0.29048562E+04</pdfrwt>
<pdfrwt beam="2">  1       -2 0.25044689E+00 0.29048562E+04</pdfrwt>
<totfact> 0.91579277E-01</totfact>
</mgrwt>
</event>
<event>
 6    1  0.2238133E-007  0.1005762E+04  0.7818608E-02  0.9302248E-01
         -2   -1    0    0    0  501 -0.00000000000E+00  0.00000000000E+00  0.15935190130E+03  0.15935190130E+03  0.00000000000E+00 0.  1.
          2   -1    0    0  501    0  0.00000000000E+00 -0.00000000000E+00 -0.15869857371E+04  0.15869857371E+04  0.00000000000E+00 0. -1.
         23    2    1    2    0    0 -0.11050690955E+03  0.25946068137E+03 -0.53778960413E+01  0.29639157720E+03  0.91035284543E+02 0.  0.
         13    1    3    3    0    0 -0.88037301550E+02  0.93588305487E+02 -0.10578950015E+02  0.12892343298E+03  0.00000000000E+00 0. -1.
        -13    1    3    3    0    0 -0.22469608003E+02  0.16587237588E+03  0.52010539734E+01  0.16746814422E+03  0.00000000000E+00 0.  1.
         22    1    1    2    0    0  0.11050690955E+03 -0.25946068137E+03 -0.14222559397E+04  0.14499460612E+04  0.00000000000E+00 0. -1.
<mgrwt>
<rscale>  0 0.10057618E+04</rscale>
<asrwt>0</asrwt>
<pdfrwt beam="1">  1        2 0.24415164E+00 0.10057618E+04</pdfrwt>
<pdfrwt beam="2">  1       -2 0.24515678E-01 0.10057618E+04</pdfrwt>
<totfact> 0.16818119E+02</totfact>
</mgrwt>
</event>
<event>
 6    1  0.2238133E-007  0.1245437E+04  0.7818608E-02  0.9073989E-01
          1   -1    0    0  501    0  0.00000000000E+00  0.00000000000E+00  0.38115368160E+03  0.38115368160E+03  0.00000000000E+00 0. -1.
         -1   -1    0    0    0  501 -0.00000000000E+00 -0.00000000000E+00 -0.10173807167E+04  0.10173807167E+04  0.00000000000E+00 0.  1.
         23    2    1    2    0    0 -0.49180893251E+03  0.16764088014E+03 -0.69892066049E+03  0.87517029798E+03  0.86333481407E+02 0.  0.
         11    1    3    3    0    0 -0.34849961592E+03  0.83294313952E+02 -0.43987308714E+03  0.56734315702E+03  0.00000000000E+00 0.  1.
        -11    1    3    3    0    0 -0.14330931660E+03  0.84346566185E+02 -0.25904757335E+03  0.30782714096E+03  0.00000000000E+00 0. -1.
         22    1    1    2    0    0  0.49180893251E+03 -0.16764088014E+03  0.62693625435E+02  0.52336410028E+03  0.00000000000E+00 0. -1.
<mgrwt>
<rscale>  0 0.12454371E+04</rscale>
<asrwt>0</asrwt>
<pdfrwt beam="1">  1        1 0.58639029E-01 0.12454371E+04</pdfrwt>
<pdfrwt beam="2">  1       -1 0.15652011E+00 0.12454371E+04</pdfrwt>
<totfact> 0.19606864E+01</totfact>
</mgrwt>
</event>
<event>
 6    1  0.2238133E-007  0.2817917E+04  0.7818608E-02  0.8297727E-01
          2   -1    0    0  501    0  0.00000000000E+00  0.00000000000E+00  0.15170677087E+04  0.15170677087E+04  0.00000000000E+00 0. -1.
         -2   -1    0    0    0  501 -0.00000000000E+00 -0.00000000000E+00 -0.13085538177E+04  0.13085538177E+04  0.00000000000E+00 0.  1.
         23    2    1    2    0    0  0.47014408682E+03  0.37251041145E+02  0.14342222973E+04  0.15123111291E+04  0.87568548063E+02 0.  0.
         11    1    3    3    0    0  0.30453172312E+03  0.42177247434E+02  0.80712529802E+03  0.86369539613E+03  0.00000000000E+00 0.  1.
        -11    1    3    3    0    0  0.16561236369E+03 -0.49262062887E+01  0.62709699931E+03  0.64861573297E+03  0.00000000000E+00 0. -1.
         22    1    1    2    0    0 -0.47014408682E+03 -0.37251041145E+02 -0.12257084063E+04  0.13133103973E+04  0.00000000000E+00 0.  1.
<mgrwt>
<rscale>  0 0.28179175E+04</rscale>
<asrwt>0</asrwt>
<pdfrwt beam="1">  1        2 0.23339503E+00 0.28179175E+04</pdfrwt>
<pdfrwt beam="2">  1       -2 0.20131597E+00 0.28179175E+04</pdfrwt>
<totfact> 0.14066168E+00</totfact>
</mgrwt>
</event>
<event>
 6    1  0.2238133E-007  0.2345288E+04  0.7818608E-02  0.8460276E-01
         -2   -1    0    0    0  501 -0.00000000000E+00  0.00000000000E+00  0.73921810794E+03  0.73921810794E+03  0.00000000000E+00 0.  1.
          2   -1    0    0  501    0  0.00000000000E+00 -0.00000000000E+00 -0.18602010649E+04  0.18602010649E+04  0.00000000000E+00 0. -1.
         23    2    1    2    0    0 -0.38376713814E+03  0.51856315699E+02 -0.17860715031E+04  0.18298029906E+04  0.90339784210E+02 0.  0.
         13    1    3    3    0    0 -0.75253179564E+02  0.20095722369E+02 -0.54640569301E+03  0.55192939807E+03  0.00000000000E+00 0.  1.
        -13    1    3    3    0    0 -0.30851395858E+03  0.31760593330E+02 -0.12396658101E+04  0.12778735926E+04  0.00000000000E+00 0. -1.
         22    1    1    2    0    0  0.38376713814E+03 -0.51856315699E+02  0.66508854610E+03  0.76961618223E+03  0.00000000000E+00 0.  1.
<mgrwt>
<rscale>  0 0.23452883E+04</rscale>
<asrwt>0</asrwt>
<pdfrwt beam="1">  1        2 0.28618478E+00 0.23452883E+04</pdfrwt>
<pdfrwt beam="2">  1       -2 0.11372586E+00 0.23452883E+04</pdfrwt>
<totfact> 0.43728990E+00</totfact>
</mgrwt>
</event>
<event>
 6    1  0.2238133E-007  0.2213345E+04  0.7818608E-02  0.8512894E-01
          2   -1    0    0  501    0  0.00000000000E+00  0.00000000000E+00  0.23348112722E+04  0.23348112722E+04  0.00000000000E+00 0. -1.
         -2   -1    0    0    0  501 -0.00000000000E+00 -0.00000000000E+00 -0.52454948947E+03  0.52454948947E+03  0.00000000000E+00 0.  1.
         23    2    1    2    0    0  0.10347933917E+04 -0.13021554468E+03  0.13775974629E+04  0.17302230972E+04  0.90242699153E+02 0.  0.
         13    1    3    3    0    0  0.78249679436E+03 -0.61404807554E+02  0.10113913972E+04  0.12802282382E+04  0.00000000000E+00 0. -1.
        -13    1    3    3    0    0  0.25229659734E+03 -0.68810737128E+02  0.36620606572E+03  0.44999485902E+03  0.00000000000E+00 0.  1.
         22    1    1    2    0    0 -0.10347933917E+04  0.13021554468E+03  0.43266431978E+03  0.11291376644E+04  0.00000000000E+00 0.  1.
<mgrwt>
<rscale>  0 0.22133450E+04</rscale>
<asrwt>0</asrwt>
<pdfrwt beam="1">  1        2 0.35920173E+00 0.22133450E+04</pdfrwt>
<pdfrwt beam="2">  1       -2 0.80699922E-01 0.22133450E+04</pdfrwt>
<totfact> 0.53602162E+00</totfact>
</mgrwt>
</event>
<event>
 6    1  0.2238133E-007  0.9353232E+03  0.7818608E-02  0.9382472E-01
         -2   -1    0    0    0  501 -0.00000000000E+00  0.00000000000E+00  0.78603325062E+03  0.78603325062E+03  0.00000000000E+00 0.  1.
          2   -1    0    0  501    0  0.00000000000E+00 -0.00000000000E+00 -0.27824190380E+03  0.27824190380E+03  0.00000000000E+00 0. -1.
         23    2    1    2    0    0 -0.12518314445E+03  0.26417099898E+03 -0.15159094166E+03  0.34299702588E+03  0.95968796024E+02 0.  0.
         13    1    3    3    0    0 -0.89952696807E+02  0.24096839504E+03 -0.99065283077E+02  0.27562870929E+03  0.00000000000E+00 0. -1.
        -13    1    3    3    0    0 -0.35230447645E+02  0.23202603939E+02 -0.52525658582E+02  0.67368316591E+02  0.00000000000E+00 0.  1.
         22    1    1    2    0    0  0.12518314445E+03 -0.26417099898E+03  0.65938228848E+03  0.72127812854E+03  0.00000000000E+00 0.  1.
<mgrwt>
<rscale>  0 0.93532323E+03</rscale>
<asrwt>0</asrwt>
<pdfrwt beam="1">  1        2 0.42806447E-01 0.93532323E+03</pdfrwt>
<pdfrwt beam="2">  1       -2 0.12092819E+00 0.93532323E+03</pdfrwt>
<totfact> 0.62275367E+01</totfact>
</mgrwt>
</event>
<event>
 6    1  0.2238133E-007  0.1544077E+04  0.7818608E-02  0.8855660E-01
         -1   -1    0    0    0  501 -0.00000000000E+00  0.00000000000E+00  0.82315207453E+03  0.82315207453E+03  0.00000000000E+00 0.  1.
          1   -1    0    0  501    0  0.00000000000E+00 -0.00000000000E+00 -0.72409874373E+03  0.72409874373E+03  0.00000000000E+00 0. -1.
         23    2    1    2    0    0  0.34071390357E+03  0.24231085796E+03  0.69690134433E+03  0.81771482652E+03  0.90473962044E+02 0.  0.
         11    1    3    3    0    0  0.10176399820E+03  0.88055213325E+02  0.30609559678E+03  0.33437127014E+03  0.00000000000E+00 0.  1.
        -11    1    3    3    0    0  0.23894990538E+03  0.15425564463E+03  0.39080574755E+03  0.48334355638E+03  0.00000000000E+00 0. -1.
         22    1    1    2    0    0 -0.34071390357E+03 -0.24231085796E+03 -0.59784801353E+03  0.72953599175E+03  0.00000000000E+00 0. -1.
<mgrwt>
<rscale>  0 0.15440769E+04</rscale>
<asrwt>0</asrwt>
<pdfrwt beam="1">  1        1 0.11139981E+00 0.15440769E+04</pdfrwt>
<pdfrwt beam="2">  1       -1 0.12663878E+00 0.15440769E+04</pdfrwt>
<totfact> 0.13509976E+01</totfact>
</mgrwt>
</event>
<event>
 6    1  0.2238133E-007  0.2560943E+04  0.7818608E-02  0.8381590E-01
          2   -1    0    0  501    0  0.00000000000E+00  0.00000000000E+00  0.13475311481E+04  0.13475311481E+04  0.00000000000E+00 0. -1.
         -2   -1    0    0    0  501 -0.00000000000E+00 -0.00000000000E+00 -0.12167488776E+04  0.12167488776E+04  0.00000000000E+00 0.  1.
         23    2    1    2    0    0  0.10878905423E+04  0.59405081634E+03 -0.24995463656E+03  0.12676062823E+04  0.89141248692E+02 0.  0.
         13    1    3    3    0    0  0.23932308885E+03  0.13668982575E+03 -0.18457972068E+02  0.27622517274E+03  0.00000000000E+00 0.  1.
        -13    1    3    3    0    0  0.84856745342E+03  0.45736099059E+03 -0.23149666449E+03  0.99138110956E+03  0.00000000000E+00 0. -1.
         22    1    1    2    0    0 -0.10878905423E+04 -0.59405081634E+03  0.38073690705E+03  0.12966737434E+04  0.00000000000E+00 0.  1.
<mgrwt>
<rscale>  0 0.25609428E+04</rscale>
<asrwt>0</asrwt>
<pdfrwt beam="1">  1        2 0.20731249E+00 0.25609428E+04</pdfrwt>
<pdfrwt beam="2">  1       -2 0.18719213E+00 0.25609428E+04</pdfrwt>
<totfact> 0.22290352E+00</totfact>
</mgrwt>
</event>
<event>
 6    1  0.2238133E-007  0.2575009E+04  0.7818608E-02  0.8376740E-01
          4   -1    0    0  501    0  0.00000000000E+00  0.00000000000E+00  0.19369731882E+04  0.19369731882E+04  0.00000000000E+00 0. -1.
         -4   -1    0    0    0  501 -0.00000000000E+00 -0.00000000000E+00 -0.85580301865E+03  0.85580301865E+03  0.00000000000E+00 0.  1.
         23    2    1    2    0    0 -0.20216962280E+03  0.34331700683E+03  0.18672571087E+04  0.19114863571E+04  0.91607094889E+02 0.  0.
         13    1    3    3    0    0 -0.53860261800E+02  0.87930692452E+02  0.69463387959E+03  0.70224565585E+03  0.00000000000E+00 0. -1.
        -13    1    3    3    0    0 -0.14830936100E+03  0.25538631438E+03  0.11726232291E+04  0.12092407012E+04  0.00000000000E+00 0.  1.
         22    1    1    2    0    0  0.20216962280E+03 -0.34331700683E+03 -0.78608693909E+03  0.88128984980E+03  0.00000000000E+00 0.  1.
<mgrwt>
<rscale>  0 0.25750087E+04</rscale>
<asrwt>0</asrwt>
<pdfrwt beam="1">  1        4 0.29799587E+00 0.25750087E+04</pdfrwt>
<pdfrwt beam="2">  1       -4 0.13166200E+00 0.25750087E+04</pdfrwt>
<totfact> 0.23529361E-02</totfact>
</mgrwt>
</event>
<event>
 6    1  0.2238133E-007  0.1764881E+04  0.7818608E-02  0.8725202E-01
          2   -1    0    0  501    0  0.00000000000E+00  0.00000000000E+00  0.65301360074E+03  0.65301360074E+03  0.00000000000E+00 0. -1.
         -2   -1    0    0    0  501 -0.00000000000E+00 -0.00000000000E+00 -0.11924728075E+04  0.11924728075E+04  0.00000000000E+00 0.  1.
         23    2    1    2    0    0 -0.47612073152E+03 -0.73369422666E+03 -0.16860536697E+03  0.89547022958E+03  0.91874877300E+02 0.  0.
         13    1    3    3    0    0 -0.27247210594E+03 -0.35579690652E+03 -0.55687410020E+02  0.45159005175E+03  0.00000000000E+00 0. -1.
        -13    1    3    3    0    0 -0.20364862557E+03 -0.37789732014E+03 -0.11291795695E+03  0.44388017783E+03  0.00000000000E+00 0.  1.
         22    1    1    2    0    0  0.47612073152E+03  0.73369422666E+03 -0.37085383978E+03  0.95001617865E+03  0.00000000000E+00 0. -1.
<mgrwt>
<rscale>  0 0.17648807E+04</rscale>
<asrwt>0</asrwt>
<pdfrwt beam="1">  1        2 0.10046363E+00 0.17648807E+04</pdfrwt>
<pdfrwt beam="2">  1       -2 0.18345735E+00 0.17648807E+04</pdfrwt>
<totfact> 0.72594137E+00</totfact>
</mgrwt>
</event>
<event>
 6    1  0.2238133E-007  0.1136737E+04  0.7818608E-02  0.9170108E-01
          2   -1    0    0  501    0  0.00000000000E+00  0.00000000000E+00  0.25481418177E+04  0.25481418177E+04  0.00000000000E+00 0. -1.
         -2   -1    0    0    0  501 -0.00000000000E+00 -0.00000000000E+00 -0.12677571507E+03  0.12677571507E+03  0.00000000000E+00 0.  1.
         23    2    1    2    0    0  0.32651464791E+03  0.28739120947E+03  0.37246924935E+03  0.58035699701E+03  0.94209233557E+02 0.  0.
         13    1    3    3    0    0  0.20819735168E+03  0.12954157236E+03  0.23722168760E+03  0.34117632580E+03  0.00000000000E+00 0.  1.
        -13    1    3    3    0    0  0.11831729623E+03  0.15784963711E+03  0.13524756175E+03  0.23918067122E+03  0.00000000000E+00 0. -1.
         22    1    1    2    0    0 -0.32651464791E+03 -0.28739120947E+03  0.20488968533E+04  0.20945605358E+04  0.00000000000E+00 0. -1.
<mgrwt>
<rscale>  0 0.11367366E+04</rscale>
<asrwt>0</asrwt>
<pdfrwt beam="1">  1        2 0.39202178E+00 0.11367366E+04</pdfrwt>
<pdfrwt beam="2">  1       -2 0.19503958E-01 0.11367366E+04</pdfrwt>
<totfact> 0.72848643E+01</totfact>
</mgrwt>
</event>
<event>
 6    1  0.2238133E-007  0.1760584E+04  0.7818608E-02  0.8727546E-01
         -2   -1    0    0    0  501 -0.00000000000E+00  0.00000000000E+00  0.77119404634E+03  0.77119404634E+03  0.00000000000E+00 0.  1.
          2   -1    0    0  501    0  0.00000000000E+00 -0.00000000000E+00 -0.10048233984E+04  0.10048233984E+04  0.00000000000E+00 0. -1.
         23    2    1    2    0    0 -0.72722062626E+02 -0.61524823342E+03 -0.74478405097E+03  0.97283750636E+03  0.88829297440E+02 0.  0.
         13    1    3    3    0    0 -0.33200086585E+02 -0.46654295272E+03 -0.50874741444E+03  0.69107778447E+03  0.00000000000E+00 0.  1.
        -13    1    3    3    0    0 -0.39521976041E+02 -0.14870528070E+03 -0.23603663653E+03  0.28175972190E+03  0.00000000000E+00 0. -1.
         22    1    1    2    0    0  0.72722062626E+02  0.61524823342E+03  0.51115469894E+03  0.80317993835E+03  0.00000000000E+00 0.  1.
<mgrwt>
<rscale>  0 0.17605838E+04</rscale>
<asrwt>0</asrwt>
<pdfrwt beam="1">  1        2 0.15458821E+00 0.17605838E+04</pdfrwt>
<pdfrwt beam="2">  1       -2 0.11864524E+00 0.17605838E+04</pdfrwt>
<totfact> 0.12937260E+01</totfact>
</mgrwt>
</event>
<event>
 6    1  0.2238133E-007  0.1328251E+04  0.7818608E-02  0.9007457E-01
          2   -1    0    0  501    0  0.00000000000E+00  0.00000000000E+00  0.28143699983E+04  0.28143699983E+04  0.00000000000E+00 0. -1.
         -2   -1    0    0    0  501 -0.00000000000E+00 -0.00000000000E+00 -0.15671807910E+03  0.15671807910E+03  0.00000000000E+00 0.  1.
         23    2    1    2    0    0  0.57320574549E+02 -0.47528412032E+03  0.23546041697E+04  0.24045030601E+04  0.91068803713E+02 0.  0.
         13    1    3    3    0    0 -0.11597041223E+02 -0.27512500194E+03  0.13694165362E+04  0.13968285177E+04  0.00000000000E+00 0. -1.
        -13    1    3    3    0    0  0.68917615772E+02 -0.20015911838E+03  0.98518763345E+03  0.10076745425E+04  0.00000000000E+00 0.  1.
         22    1    1    2    0    0 -0.57320574549E+02  0.47528412032E+03  0.30304774948E+03  0.56658501724E+03  0.00000000000E+00 0.  1.
<mgrwt>
<rscale>  0 0.13282510E+04</rscale>
<asrwt>0</asrwt>
<pdfrwt beam="1">  1        2 0.43297996E+00 0.13282510E+04</pdfrwt>
<pdfrwt beam="2">  1       -2 0.24110476E-01 0.13282510E+04</pdfrwt>
<totfact> 0.34240887E+01</totfact>
</mgrwt>
</event>
<event>
 6    1  0.2238133E-007  0.3017049E+04  0.7818608E-02  0.8238879E-01
          2   -1    0    0  501    0  0.00000000000E+00  0.00000000000E+00  0.11060838303E+04  0.11060838303E+04  0.00000000000E+00 0. -1.
         -2   -1    0    0    0  501 -0.00000000000E+00 -0.00000000000E+00 -0.20573909024E+04  0.20573909024E+04  0.00000000000E+00 0.  1.
         23    2    1    2    0    0  0.10611382328E+04  0.90704113225E+03  0.11946533160E+03  0.14041306774E+04  0.92590653763E+02 0.  0.
         13    1    3    3    0    0  0.33996892472E+03  0.23508729361E+03  0.33748106324E+02  0.41470934409E+03  0.00000000000E+00 0. -1.
        -13    1    3    3    0    0  0.72116930804E+03  0.67195383864E+03  0.85717225276E+02  0.98942133332E+03  0.00000000000E+00 0.  1.
         22    1    1    2    0    0 -0.10611382328E+04 -0.90704113225E+03 -0.10707724036E+04  0.17593440553E+04  0.00000000000E+00 0.  1.
<mgrwt>
<rscale>  0 0.30170494E+04</rscale>
<asrwt>0</asrwt>
<pdfrwt beam="1">  1        2 0.17016675E+00 0.30170494E+04</pdfrwt>
<pdfrwt beam="2">  1       -2 0.31652167E+00 0.30170494E+04</pdfrwt>
<totfact> 0.46442799E-01</totfact>
</mgrwt>
</event>
<event>
 6    1  0.2238133E-007  0.2899064E+04  0.7818608E-02  0.8273156E-01
          2   -1    0    0  501    0  0.00000000000E+00  0.00000000000E+00  0.14706338286E+04  0.14706338286E+04  0.00000000000E+00 0. -1.
         -2   -1    0    0    0  501 -0.00000000000E+00 -0.00000000000E+00 -0.14287334371E+04  0.14287334371E+04  0.00000000000E+00 0.  1.
         23    2    1    2    0    0 -0.42764764864E+03  0.90111919351E+03 -0.10289610737E+04  0.14359320638E+04  0.90783745043E+02 0.  0.
         13    1    3    3    0    0 -0.45913112381E+02  0.17521391796E+03 -0.19941026651E+03  0.26939262300E+03  0.00000000000E+00 0.  1.
        -13    1    3    3    0    0 -0.38173453626E+03  0.72590527554E+03 -0.82955080721E+03  0.11665394408E+04  0.00000000000E+00 0. -1.
         22    1    1    2    0    0  0.42764764864E+03 -0.90111919351E+03  0.10708614652E+04  0.14634352018E+04  0.00000000000E+00 0. -1.
<mgrwt>
<rscale>  0 0.28990645E+04</rscale>
<asrwt>0</asrwt>
<pdfrwt beam="1">  1        2 0.22625136E+00 0.28990645E+04</pdfrwt>
<pdfrwt beam="2">  1       -2 0.21980514E+00 0.28990645E+04</pdfrwt>
<totfact> 0.11284275E+00</totfact>
</mgrwt>
</event>
<event>
 6    1  0.2238133E-007  0.5564296E+04  0.7818608E-02  0.7746904E-01
          2   -1    0    0  501    0  0.00000000000E+00  0.00000000000E+00  0.47749471593E+04  0.47749471593E+04  0.00000000000E+00 0. -1.
         -2   -1    0    0    0  501 -0.00000000000E+00 -0.00000000000E+00 -0.16210329144E+04  0.16210329144E+04  0.00000000000E+00 0.  1.
         23    2    1    2    0    0 -0.77741550595E+02  0.12186119684E+04  0.44499500487E+04  0.46153151184E+04  0.89550702294E+02 0.  0.
         13    1    3    3    0    0  0.82855568960E+00  0.65432686482E+02  0.17403799030E+03  0.18593371139E+03  0.00000000000E+00 0.  1.
        -13    1    3    3    0    0 -0.78570106285E+02  0.11531792819E+04  0.42759120584E+04  0.44293814070E+04  0.00000000000E+00 0. -1.
         22    1    1    2    0    0  0.77741550595E+02 -0.12186119684E+04 -0.12960358038E+04  0.17806649553E+04  0.00000000000E+00 0.  1.
<mgrwt>
<rscale>  0 0.55642956E+04</rscale>
<asrwt>0</asrwt>
<pdfrwt beam="1">  1        2 0.73460725E+00 0.55642956E+04</pdfrwt>
<pdfrwt beam="2">  1       -2 0.24938968E+00 0.55642956E+04</pdfrwt>
<totfact> 0.28227569E-03</totfact>
</mgrwt>
</event>
<event>
 6    1  0.2238133E-007  0.8094855E+03  0.7818608E-02  0.9546388E-01
          2   -1    0    0  501    0  0.00000000000E+00  0.00000000000E+00  0.16107860495E+03  0.16107860495E+03  0.00000000000E+00 0. -1.
         -2   -1    0    0    0  501 -0.00000000000E+00 -0.00000000000E+00 -0.10169984032E+04  0.10169984032E+04  0.00000000000E+00 0.  1.
         23    2    1    2    0    0  0.14179251651E+03  0.35021208880E+03 -0.62400464458E+03  0.73475064598E+03  0.87881115328E+02 0.  0.
         11    1    3    3    0    0  0.94486925150E+02  0.14660756777E+03 -0.22911111657E+03  0.28794697722E+03  0.00000000000E+00 0. -1.
        -11    1    3    3    0    0  0.47305591358E+02  0.20360452104E+03 -0.39489352800E+03  0.44680366876E+03  0.00000000000E+00 0.  1.
         22    1    1    2    0    0 -0.14179251651E+03 -0.35021208880E+03 -0.23191515366E+03  0.44332636215E+03  0.00000000000E+00 0. -1.
<mgrwt>
<rscale>  0 0.80948548E+03</rscale>
<asrwt>0</asrwt>
<pdfrwt beam="1">  1        2 0.24781324E-01 0.80948548E+03</pdfrwt>
<pdfrwt beam="2">  1       -2 0.15646129E+00 0.80948548E+03</pdfrwt>
<totfact> 0.59750524E+01</totfact>
</mgrwt>
</event>
<event>
 6    1  0.2238133E-007  0.1852117E+04  0.7818608E-02  0.8679065E-01
          2   -1    0    0  501    0  0.00000000000E+00  0.00000000000E+00  0.27986901904E+04  0.27986901904E+04  0.00000000000E+00 0. -1.
         -2   -1    0    0    0  501 -0.00000000000E+00 -0.00000000000E+00 -0.30642333073E+03  0.30642333073E+03  0.00000000000E+00 0.  1.
         23    2    1    2    0    0  0.30151071390E+03  0.57456052047E+03  0.14657823058E+03  0.67133381728E+03  0.90417997398E+02 0.  0.
         13    1    3    3    0    0  0.14285635498E+03  0.24264700687E+03  0.20009085590E+02  0.28228686049E+03  0.00000000000E+00 0.  1.
        -13    1    3    3    0    0  0.15865435892E+03  0.33191351361E+03  0.12656914499E+03  0.38904695679E+03  0.00000000000E+00 0. -1.
         22    1    1    2    0    0 -0.30151071390E+03 -0.57456052047E+03  0.23456886290E+04  0.24337797038E+04  0.00000000000E+00 0. -1.
<mgrwt>
<rscale>  0 0.18521166E+04</rscale>
<asrwt>0</asrwt>
<pdfrwt beam="1">  1        2 0.43056770E+00 0.18521166E+04</pdfrwt>
<pdfrwt beam="2">  1       -2 0.47142053E-01 0.18521166E+04</pdfrwt>
<totfact> 0.93099109E+00</totfact>
</mgrwt>
</event>
<event>
 6    1  0.2238133E-007  0.2509006E+04  0.7818608E-02  0.8399784E-01
          1   -1    0    0  501    0  0.00000000000E+00  0.00000000000E+00  0.86659296750E+03  0.86659296750E+03  0.00000000000E+00 0. -1.
         -1   -1    0    0    0  501 -0.00000000000E+00 -0.00000000000E+00 -0.18160525092E+04  0.18160525092E+04  0.00000000000E+00 0.  1.
         23    2    1    2    0    0  0.48275975992E+03 -0.75367339107E+03  0.46198637855E+03  0.10113405518E+04  0.91091885015E+02 0.  0.
         13    1    3    3    0    0  0.31379213028E+03 -0.41441918364E+03  0.28862986747E+03  0.59457208242E+03  0.00000000000E+00 0. -1.
        -13    1    3    3    0    0  0.16896762964E+03 -0.33925420743E+03  0.17335651108E+03  0.41676846937E+03  0.00000000000E+00 0.  1.
         22    1    1    2    0    0 -0.48275975992E+03  0.75367339107E+03 -0.14114459202E+04  0.16713049249E+04  0.00000000000E+00 0.  1.
<mgrwt>
<rscale>  0 0.25090064E+04</rscale>
<asrwt>0</asrwt>
<pdfrwt beam="1">  1        1 0.13332200E+00 0.25090064E+04</pdfrwt>
<pdfrwt beam="2">  1       -1 0.27939269E+00 0.25090064E+04</pdfrwt>
<totfact> 0.77324205E-01</totfact>
</mgrwt>
</event>
<event>
 6    1  0.2238133E-007  0.1958372E+04  0.7818608E-02  0.8626334E-01
          2   -1    0    0  501    0  0.00000000000E+00  0.00000000000E+00  0.18304189661E+04  0.18304189661E+04  0.00000000000E+00 0. -1.
         -2   -1    0    0    0  501 -0.00000000000E+00 -0.00000000000E+00 -0.52381719440E+03  0.52381719440E+03  0.00000000000E+00 0.  1.
         23    2    1    2    0    0 -0.32983294955E+03 -0.38724963546E+03 -0.34808646380E+03  0.62312518443E+03  0.91480896452E+02 0.  0.
         13    1    3    3    0    0 -0.28128649796E+03 -0.27385836618E+03 -0.28031469635E+03  0.48238659564E+03  0.00000000000E+00 0. -1.
        -13    1    3    3    0    0 -0.48546451586E+02 -0.11339126929E+03 -0.67771767454E+02  0.14073858879E+03  0.00000000000E+00 0.  1.
         22    1    1    2    0    0  0.32983294955E+03  0.38724963546E+03  0.16546882355E+04  0.17311109761E+04  0.00000000000E+00 0. -1.
<mgrwt>
<rscale>  0 0.19583717E+04</rscale>
<asrwt>0</asrwt>
<pdfrwt beam="1">  1        2 0.28160291E+00 0.19583717E+04</pdfrwt>
<pdfrwt beam="2">  1       -2 0.80587262E-01 0.19583717E+04</pdfrwt>
<totfact> 0.10519060E+01</totfact>
</mgrwt>
</event>
<event>
 6    1  0.2238133E-007  0.2586122E+04  0.7818608E-02  0.8372931E-01
         -2   -1    0    0    0  501 -0.00000000000E+00  0.00000000000E+00  0.79419881622E+03  0.79419881622E+03  0.00000000000E+00 0.  1.
          2   -1    0    0  501    0  0.00000000000E+00 -0.00000000000E+00 -0.21052741825E+04  0.21052741825E+04  0.00000000000E+00 0. -1.
         23    2    1    2    0    0  0.37300476904E+03  0.84280478874E+03  0.35788299686E+03  0.99293831832E+03  0.91617656048E+02 0.  0.
         11    1    3    3    0    0  0.25682703792E+03  0.60750959096E+03  0.21255905928E+03  0.69297141658E+03  0.00000000000E+00 0. -1.
        -11    1    3    3    0    0  0.11617773112E+03  0.23529519778E+03  0.14532393758E+03  0.29996690174E+03  0.00000000000E+00 0.  1.
         22    1    1    2    0    0 -0.37300476904E+03 -0.84280478874E+03 -0.16689583632E+04  0.19065346804E+04  0.00000000000E+00 0. -1.
<mgrwt>
<rscale>  0 0.25861216E+04</rscale>
<asrwt>0</asrwt>
<pdfrwt beam="1">  1        2 0.32388833E+00 0.25861216E+04</pdfrwt>
<pdfrwt beam="2">  1       -2 0.12218443E+00 0.25861216E+04</pdfrwt>
<totfact> 0.26235594E+00</totfact>
</mgrwt>
</event>
<event>
 6    1  0.2238133E-007  0.1644590E+04  0.7818608E-02  0.8793614E-01
          2   -1    0    0  501    0  0.00000000000E+00  0.00000000000E+00  0.97456510868E+03  0.97456510868E+03  0.00000000000E+00 0. -1.
         -2   -1    0    0    0  501 -0.00000000000E+00 -0.00000000000E+00 -0.69381578699E+03  0.69381578699E+03  0.00000000000E+00 0.  1.
         23    2    1    2    0    0  0.37228924224E+02  0.80758958906E+03  0.32356551014E+01  0.81362901804E+03  0.91622990415E+02 0.  0.
         11    1    3    3    0    0 -0.21563702227E+02  0.49971023423E+03  0.64427551530E+00  0.50017569567E+03  0.00000000000E+00 0. -1.
        -11    1    3    3    0    0  0.58792626451E+02  0.30787935484E+03  0.25913795861E+01  0.31345332238E+03  0.00000000000E+00 0.  1.
         22    1    1    2    0    0 -0.37228924224E+02 -0.80758958906E+03  0.27751366658E+03  0.85475187763E+03  0.00000000000E+00 0. -1.
<mgrwt>
<rscale>  0 0.16445895E+04</rscale>
<asrwt>0</asrwt>
<pdfrwt beam="1">  1        2 0.14993309E+00 0.16445895E+04</pdfrwt>
<pdfrwt beam="2">  1       -2 0.10674089E+00 0.16445895E+04</pdfrwt>
<totfact> 0.17667969E+01</totfact>
</mgrwt>
</event>
<event>
 6    1  0.2238133E-007  0.3717420E+04  0.7818608E-02  0.8064112E-01
          2   -1    0    0  501    0  0.00000000000E+00  0.00000000000E+00  0.24749324317E+04  0.24749324317E+04  0.00000000000E+00 0. -1.
         -2   -1    0    0    0  501 -0.00000000000E+00 -0.00000000000E+00 -0.13959179686E+04  0.13959179686E+04  0.00000000000E+00 0.  1.
         23    2    1    2    0    0 -0.15801831986E+04  0.59082854688E+03  0.13495353924E+04  0.21622723699E+04  0.90103902280E+02 0.  0.
         11    1    3    3    0    0 -0.17810592235E+03  0.81741621746E+02  0.12560802551E+03  0.23276767038E+03  0.00000000000E+00 0. -1.
        -11    1    3    3    0    0 -0.14020772762E+04  0.50908692514E+03  0.12239273669E+04  0.19295046995E+04  0.00000000000E+00 0.  1.
         22    1    1    2    0    0  0.15801831986E+04 -0.59082854688E+03 -0.27052092936E+03  0.17085780304E+04  0.00000000000E+00 0. -1.
<mgrwt>
<rscale>  0 0.37174199E+04</rscale>
<asrwt>0</asrwt>
<pdfrwt beam="1">  1        2 0.38075884E+00 0.37174199E+04</pdfrwt>
<pdfrwt beam="2">  1       -2 0.21475661E+00 0.37174199E+04</pdfrwt>
<totfact> 0.31011709E-01</totfact>
</mgrwt>
</event>
<event>
 6    1  0.2238133E-007  0.2509712E+04  0.7818608E-02  0.8399534E-01
          2   -1    0    0  501    0  0.00000000000E+00  0.00000000000E+00  0.33743452583E+04  0.33743452583E+04  0.00000000000E+00 0. -1.
         -2   -1    0    0    0  501 -0.00000000000E+00 -0.00000000000E+00 -0.46665739978E+03  0.46665739978E+03  0.00000000000E+00 0.  1.
         23    2    1    2    0    0 -0.34210260501E+03 -0.10026817508E+04  0.43128438507E+03  0.11474958270E+04  0.91299323165E+02 0.  0.
         13    1    3    3    0    0 -0.95933614447E+02 -0.28867587372E+03  0.16904227338E+03  0.34801193750E+03  0.00000000000E+00 0. -1.
        -13    1    3    3    0    0 -0.24616899056E+03 -0.71400587708E+03  0.26224211169E+03  0.79948388950E+03  0.00000000000E+00 0.  1.
         22    1    1    2    0    0  0.34210260501E+03  0.10026817508E+04  0.24764034734E+04  0.26935068311E+04  0.00000000000E+00 0. -1.
<mgrwt>
<rscale>  0 0.25097117E+04</rscale>
<asrwt>0</asrwt>
<pdfrwt beam="1">  1        2 0.51913003E+00 0.25097117E+04</pdfrwt>
<pdfrwt beam="2">  1       -2 0.71793448E-01 0.25097117E+04</pdfrwt>
<totfact> 0.15569370E+00</totfact>
</mgrwt>
</event>
<event>
 6    1  0.2238133E-007  0.1720221E+04  0.7818608E-02  0.8749915E-01
         -2   -1    0    0    0  501 -0.00000000000E+00  0.00000000000E+00  0.91926824618E+03  0.91926824618E+03  0.00000000000E+00 0.  1.
          2   -1    0    0  501    0  0.00000000000E+00 -0.00000000000E+00 -0.80475931774E+03  0.80475931774E+03  0.00000000000E+00 0. -1.
         23    2    1    2    0    0  0.50254322798E+03 -0.25870288251E+02  0.75173855736E+03  0.91206662411E+03  0.11634302894E+03 0.  0.
         13    1    3    3    0    0  0.30032394493E+03 -0.25462353186E+02  0.34699522052E+03  0.45961776118E+03  0.00000000000E+00 0. -1.
        -13    1    3    3    0    0  0.20221928306E+03 -0.40793506568E+00  0.40474333683E+03  0.45244886292E+03  0.00000000000E+00 0.  1.
         22    1    1    2    0    0 -0.50254322798E+03  0.25870288251E+02 -0.63722962892E+03  0.81196093981E+03  0.00000000000E+00 0. -1.
<mgrwt>
<rscale>  0 0.17202206E+04</rscale>
<asrwt>0</asrwt>
<pdfrwt beam="1">  1        2 0.12380913E+00 0.17202206E+04</pdfrwt>
<pdfrwt beam="2">  1       -2 0.14142588E+00 0.17202206E+04</pdfrwt>
<totfact> 0.11353681E+01</totfact>
</mgrwt>
</event>
<event>
 6    1  0.2238133E-007  0.2430878E+04  0.7818608E-02  0.8428033E-01
         -2   -1    0    0    0  501 -0.00000000000E+00  0.00000000000E+00  0.10847036034E+04  0.10847036034E+04  0.00000000000E+00 0.  1.
          2   -1    0    0  501    0  0.00000000000E+00 -0.00000000000E+00 -0.13619312604E+04  0.13619312604E+04  0.00000000000E+00 0. -1.
         23    2    1    2    0    0  0.68692237994E+03  0.38543817104E+02 -0.11452146884E+04  0.13390476354E+04  0.90464940550E+02 0.  0.
         11    1    3    3    0    0  0.32787955532E+03  0.23026631049E+02 -0.63423710521E+03  0.71434720841E+03  0.00000000000E+00 0. -1.
        -11    1    3    3    0    0  0.35904282462E+03  0.15517186055E+02 -0.51097758321E+03  0.62470042702E+03  0.00000000000E+00 0.  1.
         22    1    1    2    0    0 -0.68692237994E+03 -0.38543817104E+02  0.86798703140E+03  0.11075872284E+04  0.00000000000E+00 0.  1.
<mgrwt>
<rscale>  0 0.24308778E+04</rscale>
<asrwt>0</asrwt>
<pdfrwt beam="1">  1        2 0.20952789E+00 0.24308778E+04</pdfrwt>
<pdfrwt beam="2">  1       -2 0.16687748E+00 0.24308778E+04</pdfrwt>
<totfact> 0.30634425E+00</totfact>
</mgrwt>
</event>
<event>
 6    1  0.2238133E-007  0.4909487E+04  0.7818608E-02  0.7842623E-01
          2   -1    0    0  501    0  0.00000000000E+00  0.00000000000E+00  0.19966850000E+04  0.19966850000E+04  0.00000000000E+00 0. -1.
         -2   -1    0    0    0  501 -0.00000000000E+00 -0.00000000000E+00 -0.30178851939E+04  0.30178851939E+04  0.00000000000E+00 0.  1.
         23    2    1    2    0    0  0.40642867068E+03  0.14690754898E+04 -0.24750247970E+04  0.29081578326E+04  0.90924002930E+02 0.  0.
         13    1    3    3    0    0  0.27534879324E+03  0.11050463573E+04 -0.18970857229E+04  0.22126632481E+04  0.00000000000E+00 0. -1.
        -13    1    3    3    0    0  0.13107987744E+03  0.36402913256E+03 -0.57793907417E+03  0.69549458450E+03  0.00000000000E+00 0.  1.
         22    1    1    2    0    0 -0.40642867068E+03 -0.14690754898E+04  0.14538246031E+04  0.21064123613E+04  0.00000000000E+00 0. -1.
<mgrwt>
<rscale>  0 0.49094872E+04</rscale>
<asrwt>0</asrwt>
<pdfrwt beam="1">  1        2 0.30718231E+00 0.49094872E+04</pdfrwt>
<pdfrwt beam="2">  1       -2 0.46429003E+00 0.49094872E+04</pdfrwt>
<totfact> 0.13795060E-02</totfact>
</mgrwt>
</event>
<event>
 6    1  0.2238133E-007  0.1902943E+04  0.7818608E-02  0.8653393E-01
         -2   -1    0    0    0  501 -0.00000000000E+00  0.00000000000E+00  0.13307558574E+04  0.13307558574E+04  0.00000000000E+00 0.  1.
          2   -1    0    0  501    0  0.00000000000E+00 -0.00000000000E+00 -0.68028881762E+03  0.68028881762E+03  0.00000000000E+00 0. -1.
         23    2    1    2    0    0  0.10750698770E+03  0.88769022003E+03  0.66289936413E+03  0.11167817149E+04  0.90631962990E+02 0.  0.
         11    1    3    3    0    0 -0.12471850395E+02  0.16041420265E+03  0.10158523442E+03  0.19028353401E+03  0.00000000000E+00 0.  1.
        -11    1    3    3    0    0  0.11997883810E+03  0.72727601738E+03  0.56131412971E+03  0.92649818093E+03  0.00000000000E+00 0. -1.
         22    1    1    2    0    0 -0.10750698770E+03 -0.88769022003E+03 -0.12432324328E+02  0.89426296011E+03  0.00000000000E+00 0. -1.
<mgrwt>
<rscale>  0 0.19029433E+04</rscale>
<asrwt>0</asrwt>
<pdfrwt beam="1">  1        2 0.10465982E+00 0.19029433E+04</pdfrwt>
<pdfrwt beam="2">  1       -2 0.20473167E+00 0.19029433E+04</pdfrwt>
<totfact> 0.49228612E+00</totfact>
</mgrwt>
</event>
<event>
 6    1  0.2238133E-007  0.2248795E+04  0.7818608E-02  0.8498389E-01
         -2   -1    0    0    0  501 -0.00000000000E+00  0.00000000000E+00  0.17969317098E+04  0.17969317098E+04  0.00000000000E+00 0.  1.
          2   -1    0    0  501    0  0.00000000000E+00 -0.00000000000E+00 -0.70357140903E+03  0.70357140903E+03  0.00000000000E+00 0. -1.
         23    2    1    2    0    0  0.43623322580E+03  0.32875921897E+03 -0.54277327963E+03  0.77559293444E+03  0.92517649797E+02 0.  0.
         11    1    3    3    0    0  0.34979119299E+03  0.23220848684E+03 -0.45477667903E+03  0.61894788783E+03  0.00000000000E+00 0. -1.
        -11    1    3    3    0    0  0.86442032810E+02  0.96550732134E+02 -0.87996600590E+02  0.15664504661E+03  0.00000000000E+00 0.  1.
         22    1    1    2    0    0 -0.43623322580E+03 -0.32875921897E+03  0.16361335804E+04  0.17249101844E+04  0.00000000000E+00 0.  1.
<mgrwt>
<rscale>  0 0.22487950E+04</rscale>
<asrwt>0</asrwt>
<pdfrwt beam="1">  1        2 0.10824176E+00 0.22487950E+04</pdfrwt>
<pdfrwt beam="2">  1       -2 0.27645103E+00 0.22487950E+04</pdfrwt>
<totfact> 0.16407199E+00</totfact>
</mgrwt>
</event>
<event>
 6    1  0.2238133E-007  0.1518330E+04  0.7818608E-02  0.8872355E-01
          2   -1    0    0  501    0  0.00000000000E+00  0.00000000000E+00  0.78660172687E+03  0.78660172687E+03  0.00000000000E+00 0. -1.
         -2   -1    0    0    0  501 -0.00000000000E+00 -0.00000000000E+00 -0.73268494662E+03  0.73268494662E+03  0.00000000000E+00 0.  1.
         23    2    1    2    0    0 -0.53464845611E+03 -0.17145998837E+03 -0.48007233350E+03  0.74443709271E+03  0.92030649131E+02 0.  0.
         13    1    3    3    0    0 -0.44429383901E+03 -0.10731289219E+03 -0.40404315899E+03  0.61005241295E+03  0.00000000000E+00 0.  1.
        -13    1    3    3    0    0 -0.90354617102E+02 -0.64147096176E+02 -0.76029174506E+02  0.13438467976E+03  0.00000000000E+00 0. -1.
         22    1    1    2    0    0  0.53464845611E+03  0.17145998837E+03  0.53398911374E+03  0.77484958078E+03  0.00000000000E+00 0. -1.
<mgrwt>
<rscale>  0 0.15183297E+04</rscale>
<asrwt>0</asrwt>
<pdfrwt beam="1">  1        2 0.12101565E+00 0.15183297E+04</pdfrwt>
<pdfrwt beam="2">  1       -2 0.11272076E+00 0.15183297E+04</pdfrwt>
<totfact> 0.21046258E+01</totfact>
</mgrwt>
</event>
<event>
 6    1  0.2894651E-007  0.2991149E+04  0.7818608E-02  0.8246263E-01
         -2   -1    0    0    0  501 -0.00000000000E+00  0.00000000000E+00  0.14691515822E+04  0.14691515822E+04  0.00000000000E+00 0.  1.
          2   -1    0    0  501    0  0.00000000000E+00 -0.00000000000E+00 -0.15224724812E+04  0.15224724812E+04  0.00000000000E+00 0. -1.
         23    2    1    2    0    0 -0.83042965400E+03 -0.83431532040E+03  0.89373911815E+03  0.14807904722E+04  0.90968935200E+02 0.  0.
         13    1    3    3    0    0 -0.28708004798E+03 -0.33633676579E+03  0.37081954028E+03  0.57710008268E+03  0.00000000000E+00 0.  1.
        -13    1    3    3    0    0 -0.54334960602E+03 -0.49797855462E+03  0.52291957787E+03  0.90369038954E+03  0.00000000000E+00 0. -1.
         22    1    1    2    0    0  0.83042965400E+03  0.83431532040E+03 -0.94706001717E+03  0.15108335912E+04  0.00000000000E+00 0. -1.
<mgrwt>
<rscale>  0 0.29911488E+04</rscale>
<asrwt>0</asrwt>
<pdfrwt beam="1">  1        2 0.23422653E+00 0.29911488E+04</pdfrwt>
<pdfrwt beam="2">  1       -2 0.22602332E+00 0.29911488E+04</pdfrwt>
<totfact> 0.95638037E-01</totfact>
</mgrwt>
</event>
<event>
 6    1  0.2238133E-007  0.3208843E+04  0.7818608E-02  0.8186486E-01
          2   -1    0    0  501    0  0.00000000000E+00  0.00000000000E+00  0.30224009655E+04  0.30224009655E+04  0.00000000000E+00 0. -1.
         -2   -1    0    0    0  501 -0.00000000000E+00 -0.00000000000E+00 -0.85169663052E+03  0.85169663052E+03  0.00000000000E+00 0.  1.
         23    2    1    2    0    0  0.85451205392E+03  0.79629924796E+03 -0.23938798893E+03  0.11958839465E+04  0.92457891516E+02 0.  0.
         13    1    3    3    0    0  0.97171933903E+02  0.82569966445E+02  0.22623197281E+01  0.12753549384E+03  0.00000000000E+00 0. -1.
        -13    1    3    3    0    0  0.75734012002E+03  0.71372928152E+03 -0.24165030866E+03  0.10683484527E+04  0.00000000000E+00 0.  1.
         22    1    1    2    0    0 -0.85451205392E+03 -0.79629924796E+03  0.24100923239E+04  0.26782136495E+04  0.00000000000E+00 0. -1.
<mgrwt>
<rscale>  0 0.32088432E+04</rscale>
<asrwt>0</asrwt>
<pdfrwt beam="1">  1        2 0.46498476E+00 0.32088432E+04</pdfrwt>
<pdfrwt beam="2">  1       -2 0.13103025E+00 0.32088432E+04</pdfrwt>
<totfact> 0.60332574E-01</totfact>
</mgrwt>
</event>
<event>
 6    1  0.2238133E-007  0.2909869E+04  0.7818608E-02  0.8269947E-01
          2   -1    0    0  501    0  0.00000000000E+00  0.00000000000E+00  0.22577191688E+04  0.22577191688E+04  0.00000000000E+00 0. -1.
         -2   -1    0    0    0  501 -0.00000000000E+00 -0.00000000000E+00 -0.93759864360E+03  0.93759864360E+03  0.00000000000E+00 0.  1.
         23    2    1    2    0    0  0.10811583807E+04 -0.57880228403E+02 -0.40424348838E+03  0.11592223293E+04  0.90166767353E+02 0.  0.
         11    1    3    3    0    0  0.55550904288E+03 -0.61392575150E+02 -0.24256176875E+03  0.60925820196E+03  0.00000000000E+00 0.  1.
        -11    1    3    3    0    0  0.52564933779E+03  0.35123467470E+01 -0.16168171963E+03  0.54996412734E+03  0.00000000000E+00 0. -1.
         22    1    1    2    0    0 -0.10811583807E+04  0.57880228403E+02  0.17243640135E+04  0.20360954831E+04  0.00000000000E+00 0. -1.
<mgrwt>
<rscale>  0 0.29098690E+04</rscale>
<asrwt>0</asrwt>
<pdfrwt beam="1">  1        2 0.34734141E+00 0.29098690E+04</pdfrwt>
<pdfrwt beam="2">  1       -2 0.14424595E+00 0.29098690E+04</pdfrwt>
<totfact> 0.13723258E+00</totfact>
</mgrwt>
</event>
<event>
 6    1  0.2238133E-007  0.1792120E+04  0.7818608E-02  0.8710501E-01
          2   -1    0    0  501    0  0.00000000000E+00  0.00000000000E+00  0.30272147693E+04  0.30272147693E+04  0.00000000000E+00 0. -1.
         -2   -1    0    0    0  501 -0.00000000000E+00 -0.00000000000E+00 -0.26523497906E+03  0.26523497906E+03  0.00000000000E+00 0.  1.
         23    2    1    2    0    0  0.33996716940E+03 -0.15257898130E+03  0.28769914062E+04  0.29024680903E+04  0.91561139348E+02 0.  0.
         11    1    3    3    0    0  0.16976487502E+03 -0.51849281534E+02  0.16664314984E+04  0.16758587052E+04  0.00000000000E+00 0. -1.
        -11    1    3    3    0    0  0.17020229438E+03 -0.10072969977E+03  0.12105599078E+04  0.12266093851E+04  0.00000000000E+00 0.  1.
         22    1    1    2    0    0 -0.33996716940E+03  0.15257898130E+03 -0.11501161595E+03  0.38998165804E+03  0.00000000000E+00 0.  1.
<mgrwt>
<rscale>  0 0.17921197E+04</rscale>
<asrwt>0</asrwt>
<pdfrwt beam="1">  1        2 0.46572533E+00 0.17921197E+04</pdfrwt>
<pdfrwt beam="2">  1       -2 0.40805383E-01 0.17921197E+04</pdfrwt>
<totfact> 0.90299738E+00</totfact>
</mgrwt>
</event>
<event>
 6    1  0.2238133E-007  0.2274237E+04  0.7818608E-02  0.8488149E-01
          2   -1    0    0  501    0  0.00000000000E+00  0.00000000000E+00  0.16676147830E+04  0.16676147830E+04  0.00000000000E+00 0. -1.
         -2   -1    0    0    0  501 -0.00000000000E+00 -0.00000000000E+00 -0.77538171224E+03  0.77538171224E+03  0.00000000000E+00 0.  1.
         23    2    1    2    0    0 -0.48224417982E+03 -0.42438625032E+03 -0.55866528494E+03  0.85624850737E+03  0.91604952580E+02 0.  0.
         13    1    3    3    0    0 -0.18930130550E+03 -0.19865588185E+03 -0.28919281511E+03  0.39866229815E+03  0.00000000000E+00 0.  1.
        -13    1    3    3    0    0 -0.29294287433E+03 -0.22573036848E+03 -0.26947246983E+03  0.45758620922E+03  0.00000000000E+00 0. -1.
         22    1    1    2    0    0  0.48224417982E+03  0.42438625032E+03  0.14508983557E+04  0.15867479878E+04  0.00000000000E+00 0. -1.
<mgrwt>
<rscale>  0 0.22742366E+04</rscale>
<asrwt>0</asrwt>
<pdfrwt beam="1">  1        2 0.25655612E+00 0.22742366E+04</pdfrwt>
<pdfrwt beam="2">  1       -2 0.11928949E+00 0.22742366E+04</pdfrwt>
<totfact> 0.50057664E+00</totfact>
</mgrwt>
</event>
<event>
 6    1  0.2238133E-007  0.1146855E+04  0.7818608E-02  0.9160690E-01
          2   -1    0    0  501    0  0.00000000000E+00  0.00000000000E+00  0.70832954951E+03  0.70832954951E+03  0.00000000000E+00 0. -1.
         -2   -1    0    0    0  501 -0.00000000000E+00 -0.00000000000E+00 -0.46421752603E+03  0.46421752603E+03  0.00000000000E+00 0.  1.
         23    2    1    2    0    0  0.47204942482E+03 -0.24641226316E+03  0.33026194409E+03  0.63312936009E+03  0.90720295302E+02 0.  0.
         11    1    3    3    0    0  0.35063093678E+03 -0.20304840937E+03  0.20801099574E+03  0.45545503041E+03  0.00000000000E+00 0.  1.
        -11    1    3    3    0    0  0.12141848805E+03 -0.43363853787E+02  0.12225094836E+03  0.17767432968E+03  0.00000000000E+00 0. -1.
         22    1    1    2    0    0 -0.47204942482E+03  0.24641226316E+03 -0.86149920613E+02  0.53941771544E+03  0.00000000000E+00 0.  1.
<mgrwt>
<rscale>  0 0.11468548E+04</rscale>
<asrwt>0</asrwt>
<pdfrwt beam="1">  1        2 0.10897378E+00 0.11468548E+04</pdfrwt>
<pdfrwt beam="2">  1       -2 0.71418081E-01 0.11468548E+04</pdfrwt>
<totfact> 0.71128625E+01</totfact>
</mgrwt>
</event>
<event>
 6    1  0.2238133E-007  0.1685472E+04  0.7818608E-02  0.8769694E-01
          2   -1    0    0  501    0  0.00000000000E+00  0.00000000000E+00  0.27677639733E+04  0.27677639733E+04  0.00000000000E+00 0. -1.
         -2   -1    0    0    0  501 -0.00000000000E+00 -0.00000000000E+00 -0.25659842407E+03  0.25659842407E+03  0.00000000000E+00 0.  1.
         23    2    1    2    0    0  0.47105550706E+03 -0.28089938665E+03  0.24015814738E+04  0.24650713946E+04  0.90474578874E+02 0.  0.
         11    1    3    3    0    0  0.27317926640E+02 -0.33563128004E+02  0.29167178391E+03  0.29486468457E+03  0.00000000000E+00 0. -1.
        -11    1    3    3    0    0  0.44373758042E+03 -0.24733625865E+03  0.21099096899E+04  0.21702067101E+04  0.00000000000E+00 0.  1.
         22    1    1    2    0    0 -0.47105550706E+03  0.28089938665E+03  0.10958407550E+03  0.55929100275E+03  0.00000000000E+00 0.  1.
<mgrwt>
<rscale>  0 0.16854719E+04</rscale>
<asrwt>0</asrwt>
<pdfrwt beam="1">  1        2 0.42580982E+00 0.16854719E+04</pdfrwt>
<pdfrwt beam="2">  1       -2 0.39476683E-01 0.16854719E+04</pdfrwt>
<totfact> 0.14027276E+01</totfact>
</mgrwt>
</event>
<event>
 6    1  0.2238133E-007  0.1083675E+04  0.7818608E-02  0.9221251E-01
          2   -1    0    0  501    0  0.00000000000E+00  0.00000000000E+00  0.16348149349E+03  0.16348149349E+03  0.00000000000E+00 0. -1.
         -2   -1    0    0    0  501 -0.00000000000E+00 -0.00000000000E+00 -0.17958471481E+04  0.17958471481E+04  0.00000000000E+00 0.  1.
         23    2    1    2    0    0 -0.18268812480E+03  0.17615737541E+03 -0.16797646884E+04  0.17011561406E+04  0.88974347733E+02 0.  0.
         11    1    3    3    0    0 -0.98661243345E+01 -0.67107199773E+01 -0.18315816606E+03  0.18354641911E+03  0.00000000000E+00 0. -1.
        -11    1    3    3    0    0 -0.17282200047E+03  0.18286809539E+03 -0.14966065223E+04  0.15176097215E+04  0.00000000000E+00 0.  1.
         22    1    1    2    0    0  0.18268812480E+03 -0.17615737541E+03  0.47399033772E+02  0.25817250097E+03  0.00000000000E+00 0. -1.
<mgrwt>
<rscale>  0 0.10836748E+04</rscale>
<asrwt>0</asrwt>
<pdfrwt beam="1">  1        2 0.25150998E-01 0.10836748E+04</pdfrwt>
<pdfrwt beam="2">  1       -2 0.27628418E+00 0.10836748E+04</pdfrwt>
<totfact> 0.96860869E+00</totfact>
</mgrwt>
</event>
<event>
 6    1  0.2238133E-007  0.1568762E+04  0.7818608E-02  0.8839972E-01
          2   -1    0    0  501    0  0.00000000000E+00  0.00000000000E+00  0.56017711080E+03  0.56017711080E+03  0.00000000000E+00 0. -1.
         -2   -1    0    0    0  501 -0.00000000000E+00 -0.00000000000E+00 -0.10983191823E+04  0.10983191823E+04  0.00000000000E+00 0.  1.
         23    2    1    2    0    0  0.24149716229E+03 -0.29305322122E+03 -0.99205706470E+03  0.10666856046E+04  0.97159094580E+02 0.  0.
         13    1    3    3    0    0  0.21147986294E+03 -0.20310252759E+03 -0.67959345876E+03  0.74014974048E+03  0.00000000000E+00 0. -1.
        -13    1    3    3    0    0  0.30017299351E+02 -0.89950693627E+02 -0.31246360594E+03  0.32653586416E+03  0.00000000000E+00 0.  1.
         22    1    1    2    0    0 -0.24149716229E+03  0.29305322122E+03  0.45391499323E+03  0.59181068843E+03  0.00000000000E+00 0. -1.
<mgrwt>
<rscale>  0 0.15687616E+04</rscale>
<asrwt>0</asrwt>
<pdfrwt beam="1">  1        2 0.86181095E-01 0.15687616E+04</pdfrwt>
<pdfrwt beam="2">  1       -2 0.16897218E+00 0.15687616E+04</pdfrwt>
<totfact> 0.11212004E+01</totfact>
</mgrwt>
</event>
<event>
 6    1  0.2238133E-007  0.2159372E+04  0.7818608E-02  0.8535531E-01
         -2   -1    0    0    0  501 -0.00000000000E+00  0.00000000000E+00  0.51357628204E+03  0.51357628204E+03  0.00000000000E+00 0.  1.
          2   -1    0    0  501    0  0.00000000000E+00 -0.00000000000E+00 -0.22698126125E+04  0.22698126125E+04  0.00000000000E+00 0. -1.
         23    2    1    2    0    0 -0.42595180142E+03  0.26705447206E+03  0.34814435089E+03  0.61978748018E+03  0.10089104694E+03 0.  0.
         11    1    3    3    0    0 -0.79008267224E+02  0.51382780439E+02  0.11761023468E+03  0.15071384713E+03  0.00000000000E+00 0.  1.
        -11    1    3    3    0    0 -0.34694353420E+03  0.21567169162E+03  0.23053411621E+03  0.46907363305E+03  0.00000000000E+00 0. -1.
         22    1    1    2    0    0  0.42595180142E+03 -0.26705447206E+03 -0.21043806813E+04  0.21636014143E+04  0.00000000000E+00 0. -1.
<mgrwt>
<rscale>  0 0.21593721E+04</rscale>
<asrwt>0</asrwt>
<pdfrwt beam="1">  1        2 0.34920194E+00 0.21593721E+04</pdfrwt>
<pdfrwt beam="2">  1       -2 0.79011735E-01 0.21593721E+04</pdfrwt>
<totfact> 0.61472576E+00</totfact>
</mgrwt>
</event>
<event>
 6    1  0.2238133E-007  0.2744070E+04  0.7818608E-02  0.8320846E-01
         -2   -1    0    0    0  501 -0.00000000000E+00  0.00000000000E+00  0.74312635267E+03  0.74312635267E+03  0.00000000000E+00 0.  1.
          2   -1    0    0  501    0  0.00000000000E+00 -0.00000000000E+00 -0.25331903466E+04  0.25331903466E+04  0.00000000000E+00 0. -1.
         23    2    1    2    0    0 -0.85644169580E+03 -0.88690611578E+03 -0.16107158257E+04  0.20304191906E+04  0.90009899451E+02 0.  0.
         11    1    3    3    0    0 -0.50078801168E+03 -0.48482298722E+03 -0.97188059874E+03  0.11959907440E+04  0.00000000000E+00 0.  1.
        -11    1    3    3    0    0 -0.35565368412E+03 -0.40208312856E+03 -0.63883522696E+03  0.83442844660E+03  0.00000000000E+00 0. -1.
         22    1    1    2    0    0  0.85644169580E+03  0.88690611578E+03 -0.17934816819E+03  0.12458975086E+04  0.00000000000E+00 0.  1.
<mgrwt>
<rscale>  0 0.27440703E+04</rscale>
<asrwt>0</asrwt>
<pdfrwt beam="1">  1        2 0.38972159E+00 0.27440703E+04</pdfrwt>
<pdfrwt beam="2">  1       -2 0.11432713E+00 0.27440703E+04</pdfrwt>
<totfact> 0.17406687E+00</totfact>
</mgrwt>
</event>
<event>
 6    1  0.2238133E-007  0.3820236E+04  0.7818608E-02  0.8041826E-01
          2   -1    0    0  501    0  0.00000000000E+00  0.00000000000E+00  0.38199023259E+04  0.38199023259E+04  0.00000000000E+00 0. -1.
         -2   -1    0    0    0  501 -0.00000000000E+00 -0.00000000000E+00 -0.95514251166E+03  0.95514251166E+03  0.00000000000E+00 0.  1.
         23    2    1    2    0    0  0.18934035913E+03 -0.81841903761E+03 -0.70962795309E+03  0.11032731393E+04  0.89332499322E+02 0.  0.
         13    1    3    3    0    0  0.10280025837E+03 -0.54256092969E+03 -0.51215507302E+03  0.75315541183E+03  0.00000000000E+00 0.  1.
        -13    1    3    3    0    0  0.86540100765E+02 -0.27585810792E+03 -0.19747288007E+03  0.35011772749E+03  0.00000000000E+00 0. -1.
         22    1    1    2    0    0 -0.18934035913E+03  0.81841903761E+03  0.35743877673E+04  0.36717716982E+04  0.00000000000E+00 0. -1.
<mgrwt>
<rscale>  0 0.38202362E+04</rscale>
<asrwt>0</asrwt>
<pdfrwt beam="1">  1        2 0.58767728E+00 0.38202362E+04</pdfrwt>
<pdfrwt beam="2">  1       -2 0.14694500E+00 0.38202362E+04</pdfrwt>
<totfact> 0.11977536E-01</totfact>
</mgrwt>
</event>
<event>
 6    1  0.2238133E-007  0.8597829E+03  0.7818608E-02  0.9477300E-01
          4   -1    0    0  501    0  0.00000000000E+00  0.00000000000E+00  0.81265916714E+03  0.81265916714E+03  0.00000000000E+00 0. -1.
         -4   -1    0    0    0  501 -0.00000000000E+00 -0.00000000000E+00 -0.22740977641E+03  0.22740977641E+03  0.00000000000E+00 0.  1.
         23    2    1    2    0    0  0.27883740511E+03  0.30202134985E+03  0.42657135541E+03  0.59944902440E+03  0.91699603803E+02 0.  0.
         13    1    3    3    0    0  0.17057638330E+03  0.24411425844E+03  0.31610517290E+03  0.43429316601E+03  0.00000000000E+00 0. -1.
        -13    1    3    3    0    0  0.10826102181E+03  0.57907091416E+02  0.11046618251E+03  0.16515585838E+03  0.00000000000E+00 0.  1.
         22    1    1    2    0    0 -0.27883740511E+03 -0.30202134985E+03  0.15867803532E+03  0.44061991915E+03  0.00000000000E+00 0. -1.
<mgrwt>
<rscale>  0 0.85978286E+03</rscale>
<asrwt>0</asrwt>
<pdfrwt beam="1">  1        4 0.12502449E+00 0.85978286E+03</pdfrwt>
<pdfrwt beam="2">  1       -4 0.34986120E-01 0.85978286E+03</pdfrwt>
<totfact> 0.75727478E+00</totfact>
</mgrwt>
</event>
<event>
 6    1  0.2238133E-007  0.2071833E+04  0.7818608E-02  0.8573753E-01
          2   -1    0    0  501    0  0.00000000000E+00  0.00000000000E+00  0.79907110975E+03  0.79907110975E+03  0.00000000000E+00 0. -1.
         -2   -1    0    0    0  501 -0.00000000000E+00 -0.00000000000E+00 -0.13429635463E+04  0.13429635463E+04  0.00000000000E+00 0.  1.
         23    2    1    2    0    0 -0.38034065502E+03 -0.84274345340E+03  0.20622520977E+03  0.95142471766E+03  0.88343727145E+02 0.  0.
         13    1    3    3    0    0 -0.13775755298E+03 -0.31676860438E+03  0.12079400657E+03  0.36593808786E+03  0.00000000000E+00 0. -1.
        -13    1    3    3    0    0 -0.24258310204E+03 -0.52597484902E+03  0.85431203202E+02  0.58548662980E+03  0.00000000000E+00 0.  1.
         22    1    1    2    0    0  0.38034065502E+03  0.84274345340E+03 -0.75011764636E+03  0.11906099384E+04  0.00000000000E+00 0. -1.
<mgrwt>
<rscale>  0 0.20718334E+04</rscale>
<asrwt>0</asrwt>
<pdfrwt beam="1">  1        2 0.12293402E+00 0.20718334E+04</pdfrwt>
<pdfrwt beam="2">  1       -2 0.20660977E+00 0.20718334E+04</pdfrwt>
<totfact> 0.38357112E+00</totfact>
</mgrwt>
</event>
<event>
 6    1  0.2238133E-007  0.6078092E+04  0.7818608E-02  0.7680794E-01
          2   -1    0    0  501    0  0.00000000000E+00  0.00000000000E+00  0.27033655411E+04  0.27033655411E+04  0.00000000000E+00 0. -1.
         -2   -1    0    0    0  501 -0.00000000000E+00 -0.00000000000E+00 -0.34164080141E+04  0.34164080141E+04  0.00000000000E+00 0.  1.
         23    2    1    2    0    0  0.61975154319E+02 -0.30328290195E+04 -0.18593144714E+03  0.30408551062E+04  0.10166854264E+03 0.  0.
         11    1    3    3    0    0  0.71123464197E+02 -0.11101499194E+04 -0.75544706395E+02  0.11149880687E+04  0.00000000000E+00 0.  1.
        -11    1    3    3    0    0 -0.91483098784E+01 -0.19226791001E+04 -0.11038674074E+03  0.19258670375E+04  0.00000000000E+00 0. -1.
         22    1    1    2    0    0 -0.61975154319E+02  0.30328290195E+04 -0.52711102587E+03  0.30789184489E+04  0.00000000000E+00 0. -1.
<mgrwt>
<rscale>  0 0.60780917E+04</rscale>
<asrwt>0</asrwt>
<pdfrwt beam="1">  1        2 0.41590239E+00 0.60780917E+04</pdfrwt>
<pdfrwt beam="2">  1       -2 0.52560123E+00 0.60780917E+04</pdfrwt>
<totfact> 0.20825748E-03</totfact>
</mgrwt>
</event>
<event>
 6    1  0.2238133E-007  0.3415804E+04  0.7818608E-02  0.8134038E-01
          2   -1    0    0  501    0  0.00000000000E+00  0.00000000000E+00  0.29690893826E+04  0.29690893826E+04  0.00000000000E+00 0. -1.
         -2   -1    0    0    0  501 -0.00000000000E+00 -0.00000000000E+00 -0.98243240495E+03  0.98243240495E+03  0.00000000000E+00 0.  1.
         23    2    1    2    0    0 -0.57659560452E+03 -0.11106136230E+04 -0.34845358448E+03  0.13022451980E+04  0.92182125288E+02 0.  0.
         11    1    3    3    0    0 -0.39343653563E+03 -0.73472764990E+03 -0.27551258083E+03  0.87779508388E+03  0.00000000000E+00 0. -1.
        -11    1    3    3    0    0 -0.18315906890E+03 -0.37588597314E+03 -0.72941003651E+02  0.42445011407E+03  0.00000000000E+00 0.  1.
         22    1    1    2    0    0  0.57659560452E+03  0.11106136230E+04  0.23351105621E+04  0.26492765896E+04  0.00000000000E+00 0. -1.
<mgrwt>
<rscale>  0 0.34158042E+04</rscale>
<asrwt>0</asrwt>
<pdfrwt beam="1">  1        2 0.45678298E+00 0.34158042E+04</pdfrwt>
<pdfrwt beam="2">  1       -2 0.15114345E+00 0.34158042E+04</pdfrwt>
<totfact> 0.44195990E-01</totfact>
</mgrwt>
</event>
<event>
 6    1  0.2238133E-007  0.1907131E+04  0.7818608E-02  0.8651315E-01
         -2   -1    0    0    0  501 -0.00000000000E+00  0.00000000000E+00  0.54300800541E+03  0.54300800541E+03  0.00000000000E+00 0.  1.
          2   -1    0    0  501    0  0.00000000000E+00 -0.00000000000E+00 -0.16745371512E+04  0.16745371512E+04  0.00000000000E+00 0. -1.
         23    2    1    2    0    0  0.82199731960E+03  0.42848168997E+03 -0.81425918279E+03  0.12377817252E+04  0.99042569192E+02 0.  0.
         13    1    3    3    0    0  0.30183252405E+03  0.20691631175E+03 -0.34687151868E+03  0.50421928079E+03  0.00000000000E+00 0. -1.
        -13    1    3    3    0    0  0.52016479555E+03  0.22156537822E+03 -0.46738766411E+03  0.73356244446E+03  0.00000000000E+00 0.  1.
         22    1    1    2    0    0 -0.82199731960E+03 -0.42848168997E+03 -0.31726996304E+03  0.97976343141E+03  0.00000000000E+00 0.  1.
<mgrwt>
<rscale>  0 0.19071309E+04</rscale>
<asrwt>0</asrwt>
<pdfrwt beam="1">  1        2 0.25762110E+00 0.19071309E+04</pdfrwt>
<pdfrwt beam="2">  1       -2 0.83539693E-01 0.19071309E+04</pdfrwt>
<totfact> 0.11886792E+01</totfact>
</mgrwt>
</event>
<event>
 6    1  0.2238133E-007  0.1888014E+04  0.7818608E-02  0.8660846E-01
         -2   -1    0    0    0  501 -0.00000000000E+00  0.00000000000E+00  0.50958202731E+03  0.50958202731E+03  0.00000000000E+00 0.  1.
          2   -1    0    0  501    0  0.00000000000E+00 -0.00000000000E+00 -0.17487841919E+04  0.17487841919E+04  0.00000000000E+00 0. -1.
         23    2    1    2    0    0 -0.84094559835E+03 -0.36473105502E+03 -0.87904025136E+03  0.12735135167E+04  0.94375165781E+02 0.  0.
         13    1    3    3    0    0 -0.57969145773E+03 -0.29623666112E+03 -0.63816793301E+03  0.91162308894E+03  0.00000000000E+00 0.  1.
        -13    1    3    3    0    0 -0.26125414061E+03 -0.68494393904E+02 -0.24087231835E+03  0.36189042780E+03  0.00000000000E+00 0. -1.
         22    1    1    2    0    0  0.84094559835E+03  0.36473105502E+03 -0.36016191328E+03  0.98485270252E+03  0.00000000000E+00 0.  1.
<mgrwt>
<rscale>  0 0.18880138E+04</rscale>
<asrwt>0</asrwt>
<pdfrwt beam="1">  1        2 0.26904372E+00 0.18880138E+04</pdfrwt>
<pdfrwt beam="2">  1       -2 0.78397234E-01 0.18880138E+04</pdfrwt>
<totfact> 0.12492792E+01</totfact>
</mgrwt>
</event>
<event>
 6    1  0.2238133E-007  0.1776508E+04  0.7818608E-02  0.8718893E-01
         -2   -1    0    0    0  501 -0.00000000000E+00  0.00000000000E+00  0.28307354389E+03  0.28307354389E+03  0.00000000000E+00 0.  1.
          2   -1    0    0  501    0  0.00000000000E+00 -0.00000000000E+00 -0.27872450643E+04  0.27872450643E+04  0.00000000000E+00 0. -1.
         23    2    1    2    0    0  0.27170954160E+03  0.22557716446E+03 -0.26596994826E+04  0.26844428780E+04  0.86724248841E+02 0.  0.
         13    1    3    3    0    0  0.15468678069E+03  0.72197902184E+02 -0.12574164473E+04  0.12689510074E+04  0.00000000000E+00 0. -1.
        -13    1    3    3    0    0  0.11702276091E+03  0.15337926227E+03 -0.14022830353E+04  0.14154918706E+04  0.00000000000E+00 0.  1.
         22    1    1    2    0    0 -0.27170954160E+03 -0.22557716446E+03  0.15552796220E+03  0.38587573019E+03  0.00000000000E+00 0.  1.
<mgrwt>
<rscale>  0 0.17765082E+04</rscale>
<asrwt>0</asrwt>
<pdfrwt beam="1">  1        2 0.42880692E+00 0.17765082E+04</pdfrwt>
<pdfrwt beam="2">  1       -2 0.43549777E-01 0.17765082E+04</pdfrwt>
<totfact> 0.11161332E+01</totfact>
</mgrwt>
</event>
<event>
 6    1  0.2238133E-007  0.1863424E+04  0.7818608E-02  0.8673280E-01
         -1   -1    0    0    0  501 -0.00000000000E+00  0.00000000000E+00  0.51927990506E+03  0.51927990506E+03  0.00000000000E+00 0.  1.
          1   -1    0    0  501    0  0.00000000000E+00 -0.00000000000E+00 -0.16717141025E+04  0.16717141025E+04  0.00000000000E+00 0. -1.
         23    2    1    2    0    0  0.33715671559E+03  0.69266022595E+03 -0.11891365465E+04  0.14197612918E+04  0.90683846334E+02 0.  0.
         13    1    3    3    0    0  0.23030449223E+03  0.55260469887E+03 -0.89036485539E+03  0.10729220326E+04  0.00000000000E+00 0. -1.
        -13    1    3    3    0    0  0.10685222336E+03  0.14005552708E+03 -0.29877169110E+03  0.34683925917E+03  0.00000000000E+00 0.  1.
         22    1    1    2    0    0 -0.33715671559E+03 -0.69266022595E+03  0.36702349030E+02  0.77123271579E+03  0.00000000000E+00 0.  1.
<mgrwt>
<rscale>  0 0.18634243E+04</rscale>
<asrwt>0</asrwt>
<pdfrwt beam="1">  1        1 0.25718679E+00 0.18634243E+04</pdfrwt>
<pdfrwt beam="2">  1       -1 0.79889215E-01 0.18634243E+04</pdfrwt>
<totfact> 0.73159591E+00</totfact>
</mgrwt>
</event>
<event>
 6    1  0.2238133E-007  0.2032338E+04  0.7818608E-02  0.8591649E-01
         -2   -1    0    0    0  501 -0.00000000000E+00  0.00000000000E+00  0.10095173111E+04  0.10095173111E+04  0.00000000000E+00 0.  1.
          2   -1    0    0  501    0  0.00000000000E+00 -0.00000000000E+00 -0.10228649617E+04  0.10228649617E+04  0.00000000000E+00 0. -1.
         23    2    1    2    0    0  0.89625685078E+03  0.73539955794E+01  0.46772473594E+03  0.10151502123E+04  0.91831917543E+02 0.  0.
         11    1    3    3    0    0  0.69758969549E+03  0.22981207698E+02  0.40119576429E+03  0.80505748890E+03  0.00000000000E+00 0.  1.
        -11    1    3    3    0    0  0.19866715529E+03 -0.15627212119E+02  0.66528971656E+02  0.21009272339E+03  0.00000000000E+00 0. -1.
         22    1    1    2    0    0 -0.89625685078E+03 -0.73539955794E+01 -0.48107238661E+03  0.10172320605E+04  0.00000000000E+00 0.  1.
<mgrwt>
<rscale>  0 0.20323384E+04</rscale>
<asrwt>0</asrwt>
<pdfrwt beam="1">  1        2 0.15736384E+00 0.20323384E+04</pdfrwt>
<pdfrwt beam="2">  1       -2 0.15531036E+00 0.20323384E+04</pdfrwt>
<totfact> 0.61611875E+00</totfact>
</mgrwt>
</event>
<event>
 6    1  0.2238133E-007  0.8761366E+03  0.7818608E-02  0.9455913E-01
         -2   -1    0    0    0  501 -0.00000000000E+00  0.00000000000E+00  0.12381131568E+03  0.12381131568E+03  0.00000000000E+00 0.  1.
          2   -1    0    0  501    0  0.00000000000E+00 -0.00000000000E+00 -0.15499701801E+04  0.15499701801E+04  0.00000000000E+00 0. -1.
         23    2    1    2    0    0 -0.23480129343E+03  0.30374355190E+03 -0.33701104135E+03  0.51895043749E+03  0.91330837398E+02 0.  0.
         11    1    3    3    0    0 -0.18439468125E+03  0.17403755366E+03 -0.19265944155E+03  0.31844643030E+03  0.00000000000E+00 0. -1.
        -11    1    3    3    0    0 -0.50406612184E+02  0.12970599825E+03 -0.14435159980E+03  0.20050400719E+03  0.00000000000E+00 0.  1.
         22    1    1    2    0    0  0.23480129343E+03 -0.30374355190E+03 -0.10891478231E+04  0.11548310583E+04  0.00000000000E+00 0. -1.
<mgrwt>
<rscale>  0 0.87613663E+03</rscale>
<asrwt>0</asrwt>
<pdfrwt beam="1">  1        2 0.23845696E+00 0.87613663E+03</pdfrwt>
<pdfrwt beam="2">  1       -2 0.19047894E-01 0.87613663E+03</pdfrwt>
<totfact> 0.27818616E+02</totfact>
</mgrwt>
</event>
<event>
 6    1  0.2238133E-007  0.2936275E+04  0.7818608E-02  0.8262166E-01
          2   -1    0    0  501    0  0.00000000000E+00  0.00000000000E+00  0.31372949459E+04  0.31372949459E+04  0.00000000000E+00 0. -1.
         -2   -1    0    0    0  501 -0.00000000000E+00 -0.00000000000E+00 -0.68703393414E+03  0.68703393414E+03  0.00000000000E+00 0.  1.
         23    2    1    2    0    0 -0.11606762124E+04 -0.67896955266E+03  0.19892862081E+04  0.24028273172E+04  0.90280536046E+02 0.  0.
         11    1    3    3    0    0 -0.77896127674E+03 -0.44758301464E+03  0.14023074080E+04  0.16654060442E+04  0.00000000000E+00 0.  1.
        -11    1    3    3    0    0 -0.38171493568E+03 -0.23138653802E+03  0.58697880009E+03  0.73742127299E+03  0.00000000000E+00 0. -1.
         22    1    1    2    0    0  0.11606762124E+04  0.67896955266E+03  0.46097480371E+03  0.14215015628E+04  0.00000000000E+00 0. -1.
<mgrwt>
<rscale>  0 0.29362753E+04</rscale>
<asrwt>0</asrwt>
<pdfrwt beam="1">  1        2 0.48266075E+00 0.29362753E+04</pdfrwt>
<pdfrwt beam="2">  1       -2 0.10569753E+00 0.29362753E+04</pdfrwt>
<totfact> 0.88604438E-01</totfact>
</mgrwt>
</event>
<event>
 6    1  0.2238133E-007  0.2674230E+04  0.7818608E-02  0.8343415E-01
         -2   -1    0    0    0  501 -0.00000000000E+00  0.00000000000E+00  0.44660565368E+03  0.44660565368E+03  0.00000000000E+00 0.  1.
          2   -1    0    0  501    0  0.00000000000E+00 -0.00000000000E+00 -0.40032569453E+04  0.40032569453E+04  0.00000000000E+00 0. -1.
         23    2    1    2    0    0 -0.65674434088E+03 -0.11540376941E+04 -0.20194729246E+04  0.24185985933E+04  0.90731106063E+02 0.  0.
         11    1    3    3    0    0 -0.45564738663E+03 -0.87065139364E+03 -0.15272268429E+04  0.18160589803E+04  0.00000000000E+00 0. -1.
        -11    1    3    3    0    0 -0.20109695426E+03 -0.28338630046E+03 -0.49224608166E+03  0.60253961298E+03  0.00000000000E+00 0.  1.
         22    1    1    2    0    0  0.65674434088E+03  0.11540376941E+04 -0.15371783670E+04  0.20312640057E+04  0.00000000000E+00 0. -1.
<mgrwt>
<rscale>  0 0.26742305E+04</rscale>
<asrwt>0</asrwt>
<pdfrwt beam="1">  1        2 0.61588571E+00 0.26742305E+04</pdfrwt>
<pdfrwt beam="2">  1       -2 0.68708560E-01 0.26742305E+04</pdfrwt>
<totfact> 0.57975675E-01</totfact>
</mgrwt>
</event>
<event>
 6    1  0.2238133E-007  0.1378240E+04  0.7818608E-02  0.8969722E-01
         -2   -1    0    0    0  501 -0.00000000000E+00  0.00000000000E+00  0.36373188409E+03  0.36373188409E+03  0.00000000000E+00 0.  1.
          2   -1    0    0  501    0  0.00000000000E+00 -0.00000000000E+00 -0.13055943036E+04  0.13055943036E+04  0.00000000000E+00 0. -1.
         23    2    1    2    0    0  0.59034603300E+03  0.29357430329E+03 -0.69940464441E+03  0.96684481221E+03  0.10453575483E+03 0.  0.
         13    1    3    3    0    0  0.15702679889E+03  0.12856999813E+03 -0.18983194384E+03  0.27789175391E+03  0.00000000000E+00 0. -1.
        -13    1    3    3    0    0  0.43331923411E+03  0.16500430516E+03 -0.50957270058E+03  0.68895305830E+03  0.00000000000E+00 0.  1.
         22    1    1    2    0    0 -0.59034603300E+03 -0.29357430329E+03 -0.24245777515E+03  0.70248137553E+03  0.00000000000E+00 0.  1.
<mgrwt>
<rscale>  0 0.13782399E+04</rscale>
<asrwt>0</asrwt>
<pdfrwt beam="1">  1        2 0.20086066E+00 0.13782399E+04</pdfrwt>
<pdfrwt beam="2">  1       -2 0.55958753E-01 0.13782399E+04</pdfrwt>
<totfact> 0.47960458E+01</totfact>
</mgrwt>
</event>
<event>
 6    1  0.2238133E-007  0.3190906E+04  0.7818608E-02  0.8191223E-01
          1   -1    0    0  501    0  0.00000000000E+00  0.00000000000E+00  0.87138284005E+03  0.87138284005E+03  0.00000000000E+00 0. -1.
         -1   -1    0    0    0  501 -0.00000000000E+00 -0.00000000000E+00 -0.29211838977E+04  0.29211838977E+04  0.00000000000E+00 0.  1.
         23    2    1    2    0    0 -0.40306862852E+03 -0.58483014301E+03 -0.27220439899E+04  0.28146090826E+04  0.89499662523E+02 0.  0.
         13    1    3    3    0    0 -0.64387478086E+02 -0.68194053116E+02 -0.47650980400E+03  0.48565190160E+03  0.00000000000E+00 0. -1.
        -13    1    3    3    0    0 -0.33868115043E+03 -0.51663608989E+03 -0.22455341859E+04  0.23289571810E+04  0.00000000000E+00 0.  1.
         22    1    1    2    0    0  0.40306862852E+03  0.58483014301E+03  0.67224293219E+03  0.97795765519E+03  0.00000000000E+00 0. -1.
<mgrwt>
<rscale>  0 0.31909055E+04</rscale>
<asrwt>0</asrwt>
<pdfrwt beam="1">  1        1 0.13405890E+00 0.31909055E+04</pdfrwt>
<pdfrwt beam="2">  1       -1 0.44941290E+00 0.31909055E+04</pdfrwt>
<totfact> 0.52494895E-02</totfact>
</mgrwt>
</event>
<event>
 6    1  0.2624756E-007  0.1767457E+04  0.7818608E-02  0.8723799E-01
         -2   -1    0    0    0  501 -0.00000000000E+00  0.00000000000E+00  0.54905600999E+03  0.54905600999E+03  0.00000000000E+00 0.  1.
          2   -1    0    0  501    0  0.00000000000E+00 -0.00000000000E+00 -0.14223982936E+04  0.14223982936E+04  0.00000000000E+00 0. -1.
         23    2    1    2    0    0 -0.24462511180E+03  0.45813578561E+03 -0.12321913132E+04  0.13401837836E+04  0.89818138951E+02 0.  0.
         11    1    3    3    0    0 -0.99745005685E+02  0.23242610352E+03 -0.49821783306E+03  0.55874141508E+03  0.00000000000E+00 0. -1.
        -11    1    3    3    0    0 -0.14488010611E+03  0.22570968210E+03 -0.73397348012E+03  0.78144236848E+03  0.00000000000E+00 0.  1.
         22    1    1    2    0    0  0.24462511180E+03 -0.45813578561E+03  0.35884902960E+03  0.63127052000E+03  0.00000000000E+00 0.  1.
<mgrwt>
<rscale>  0 0.17674573E+04</rscale>
<asrwt>0</asrwt>
<pdfrwt beam="1">  1        2 0.21883051E+00 0.17674573E+04</pdfrwt>
<pdfrwt beam="2">  1       -2 0.84470156E-01 0.17674573E+04</pdfrwt>
<totfact> 0.16254023E+01</totfact>
</mgrwt>
</event>
<event>
 6    1  0.2238133E-007  0.3865176E+04  0.7818608E-02  0.8032311E-01
          2   -1    0    0  501    0  0.00000000000E+00  0.00000000000E+00  0.89214064831E+03  0.89214064831E+03  0.00000000000E+00 0. -1.
         -2   -1    0    0    0  501 -0.00000000000E+00 -0.00000000000E+00 -0.41864434931E+04  0.41864434931E+04  0.00000000000E+00 0.  1.
         23    2    1    2    0    0 -0.18370611913E+04  0.59291484013E+03 -0.15614757985E+04  0.24845464777E+04  0.91775282255E+02 0.  0.
         11    1    3    3    0    0 -0.24054820015E+03  0.83707891511E+02 -0.24655061910E+03  0.35448223577E+03  0.00000000000E+00 0.  1.
        -11    1    3    3    0    0 -0.15965129912E+04  0.50920694862E+03 -0.13149251794E+04  0.21300642420E+04  0.00000000000E+00 0. -1.
         22    1    1    2    0    0  0.18370611913E+04 -0.59291484013E+03 -0.17328270463E+04  0.25940376637E+04  0.00000000000E+00 0.  1.
<mgrwt>
<rscale>  0 0.38651760E+04</rscale>
<asrwt>0</asrwt>
<pdfrwt beam="1">  1        2 0.13725241E+00 0.38651760E+04</pdfrwt>
<pdfrwt beam="2">  1       -2 0.64406823E+00 0.38651760E+04</pdfrwt>
<totfact> 0.83036292E-03</totfact>
</mgrwt>
</event>
<event>
 6    1  0.2238133E-007  0.3015598E+04  0.7818608E-02  0.8239291E-01
         -2   -1    0    0    0  501 -0.00000000000E+00  0.00000000000E+00  0.89265494975E+03  0.89265494975E+03  0.00000000000E+00 0.  1.
          2   -1    0    0  501    0  0.00000000000E+00 -0.00000000000E+00 -0.25468503545E+04  0.25468503545E+04  0.00000000000E+00 0. -1.
         23    2    1    2    0    0 -0.13269174457E+04  0.33103045129E+03 -0.10727028849E+03  0.13747369437E+04  0.90020454378E+02 0.  0.
         11    1    3    3    0    0 -0.10874474888E+04  0.25057502653E+03 -0.58701454918E+02  0.11174863515E+04  0.00000000000E+00 0. -1.
        -11    1    3    3    0    0 -0.23946995688E+03  0.80455424758E+02 -0.48568833575E+02  0.25725059225E+03  0.00000000000E+00 0.  1.
         22    1    1    2    0    0  0.13269174457E+04 -0.33103045129E+03 -0.15469251163E+04  0.20647683606E+04  0.00000000000E+00 0. -1.
<mgrwt>
<rscale>  0 0.30155985E+04</rscale>
<asrwt>0</asrwt>
<pdfrwt beam="1">  1        2 0.39182313E+00 0.30155985E+04</pdfrwt>
<pdfrwt beam="2">  1       -2 0.13733153E+00 0.30155985E+04</pdfrwt>
<totfact> 0.10549871E+00</totfact>
</mgrwt>
</event>
<event>
 6    1  0.2238133E-007  0.2581597E+04  0.7818608E-02  0.8374479E-01
          2   -1    0    0  501    0  0.00000000000E+00  0.00000000000E+00  0.23648560448E+04  0.23648560448E+04  0.00000000000E+00 0. -1.
         -2   -1    0    0    0  501 -0.00000000000E+00 -0.00000000000E+00 -0.70455052593E+03  0.70455052593E+03  0.00000000000E+00 0.  1.
         23    2    1    2    0    0 -0.69461854363E+03 -0.60181159565E+02  0.21204446093E+04  0.22340355899E+04  0.92265825717E+02 0.  0.
         13    1    3    3    0    0 -0.50732043852E+03 -0.25919843729E+01  0.15219940294E+04  0.16043212182E+04  0.00000000000E+00 0. -1.
        -13    1    3    3    0    0 -0.18729810511E+03 -0.57589175192E+02  0.59845057991E+03  0.62971437166E+03  0.00000000000E+00 0.  1.
         22    1    1    2    0    0  0.69461854363E+03  0.60181159565E+02 -0.46013909043E+03  0.83537098086E+03  0.00000000000E+00 0.  1.
<mgrwt>
<rscale>  0 0.25815968E+04</rscale>
<asrwt>0</asrwt>
<pdfrwt beam="1">  1        2 0.36382400E+00 0.25815968E+04</pdfrwt>
<pdfrwt beam="2">  1       -2 0.10839239E+00 0.25815968E+04</pdfrwt>
<totfact> 0.25111394E+00</totfact>
</mgrwt>
</event>
<event>
 6    1  0.2722509E-007  0.2872655E+04  0.7818608E-02  0.8281060E-01
         -2   -1    0    0    0  501 -0.00000000000E+00  0.00000000000E+00  0.16112589395E+04  0.16112589395E+04  0.00000000000E+00 0.  1.
          2   -1    0    0  501    0  0.00000000000E+00 -0.00000000000E+00 -0.12803884891E+04  0.12803884891E+04  0.00000000000E+00 0. -1.
         23    2    1    2    0    0 -0.85322079520E+03 -0.19314160090E+03 -0.97734012514E+03  0.13178925833E+04  0.12789737112E+03 0.  0.
         13    1    3    3    0    0 -0.54423613950E+03 -0.18562030252E+03 -0.63238359115E+03  0.85472620096E+03  0.00000000000E+00 0.  1.
        -13    1    3    3    0    0 -0.30898465569E+03 -0.75212983801E+01 -0.34495653399E+03  0.46316638234E+03  0.00000000000E+00 0. -1.
         22    1    1    2    0    0  0.85322079520E+03  0.19314160090E+03  0.13082105755E+04  0.15737548453E+04  0.00000000000E+00 0.  1.
<mgrwt>
<rscale>  0 0.28726555E+04</rscale>
<asrwt>0</asrwt>
<pdfrwt beam="1">  1        2 0.19698284E+00 0.28726555E+04</pdfrwt>
<pdfrwt beam="2">  1       -2 0.24788599E+00 0.28726555E+04</pdfrwt>
<totfact> 0.97224702E-01</totfact>
</mgrwt>
</event>
<event>
 6    1  0.2238133E-007  0.2808963E+04  0.7818608E-02  0.8300491E-01
         -2   -1    0    0    0  501 -0.00000000000E+00  0.00000000000E+00  0.48710431687E+03  0.48710431687E+03  0.00000000000E+00 0.  1.
          2   -1    0    0  501    0  0.00000000000E+00 -0.00000000000E+00 -0.40495798784E+04  0.40495798784E+04  0.00000000000E+00 0. -1.
         23    2    1    2    0    0 -0.13048924577E+04 -0.32789352254E+03 -0.11404959069E+04  0.17660806625E+04  0.89730176272E+02 0.  0.
         13    1    3    3    0    0 -0.32670147857E+03 -0.11334126864E+03 -0.26068818815E+03  0.43305707559E+03  0.00000000000E+00 0. -1.
        -13    1    3    3    0    0 -0.97819097912E+03 -0.21455225390E+03 -0.87980771873E+03  0.13330235869E+04  0.00000000000E+00 0.  1.
         22    1    1    2    0    0  0.13048924577E+04  0.32789352254E+03 -0.24219796546E+04  0.27706035327E+04  0.00000000000E+00 0. -1.
<mgrwt>
<rscale>  0 0.28089627E+04</rscale>
<asrwt>0</asrwt>
<pdfrwt beam="1">  1        2 0.62301228E+00 0.28089627E+04</pdfrwt>
<pdfrwt beam="2">  1       -2 0.74939126E-01 0.28089627E+04</pdfrwt>
<totfact> 0.43382065E-01</totfact>
</mgrwt>
</event>
<event>
 6    1  0.2238133E-007  0.3826020E+04  0.7818608E-02  0.8040594E-01
         -2   -1    0    0    0  501 -0.00000000000E+00  0.00000000000E+00  0.13343346710E+04  0.13343346710E+04  0.00000000000E+00 0.  1.
          2   -1    0    0  501    0  0.00000000000E+00 -0.00000000000E+00 -0.27426459778E+04  0.27426459778E+04  0.00000000000E+00 0. -1.
         23    2    1    2    0    0 -0.34480200707E+03 -0.89513518741E+03  0.10578088343E+04  0.14308695443E+04  0.90954357365E+02 0.  0.
         13    1    3    3    0    0 -0.27379080576E+03 -0.64181620875E+03  0.81453341477E+03  0.10725456330E+04  0.00000000000E+00 0.  1.
        -13    1    3    3    0    0 -0.71011201309E+02 -0.25331897866E+03  0.24327541948E+03  0.35832391127E+03  0.00000000000E+00 0. -1.
         22    1    1    2    0    0  0.34480200707E+03  0.89513518741E+03 -0.24661201410E+04  0.26461111046E+04  0.00000000000E+00 0. -1.
<mgrwt>
<rscale>  0 0.38260202E+04</rscale>
<asrwt>0</asrwt>
<pdfrwt beam="1">  1        2 0.42194554E+00 0.38260202E+04</pdfrwt>
<pdfrwt beam="2">  1       -2 0.20528226E+00 0.38260202E+04</pdfrwt>
<totfact> 0.24604733E-01</totfact>
</mgrwt>
</event>
<event>
 6    1  0.2238133E-007  0.3370353E+04  0.7818608E-02  0.8145221E-01
         -1   -1    0    0    0  501 -0.00000000000E+00  0.00000000000E+00  0.12637756851E+04  0.12637756851E+04  0.00000000000E+00 0.  1.
          1   -1    0    0  501    0  0.00000000000E+00 -0.00000000000E+00 -0.22470920842E+04  0.22470920842E+04  0.00000000000E+00 0. -1.
         23    2    1    2    0    0  0.15015866465E+04  0.52752562477E+03 -0.10649718504E+04  0.19172199555E+04  0.92312372840E+02 0.  0.
         11    1    3    3    0    0  0.33049631190E+03  0.15214063151E+03 -0.22104299015E+03  0.42571655762E+03  0.00000000000E+00 0.  1.
        -11    1    3    3    0    0  0.11710903346E+04  0.37538499326E+03 -0.84392886024E+03  0.14915033979E+04  0.00000000000E+00 0. -1.
         22    1    1    2    0    0 -0.15015866465E+04 -0.52752562477E+03  0.81655451211E+02  0.15936478138E+04  0.00000000000E+00 0. -1.
<mgrwt>
<rscale>  0 0.33703533E+04</rscale>
<asrwt>0</asrwt>
<pdfrwt beam="1">  1        1 0.34570647E+00 0.33703533E+04</pdfrwt>
<pdfrwt beam="2">  1       -1 0.19442703E+00 0.33703533E+04</pdfrwt>
<totfact> 0.27449819E-01</totfact>
</mgrwt>
</event>
<event>
 6    1  0.2238133E-007  0.1869199E+04  0.7818608E-02  0.8670341E-01
          2   -1    0    0  501    0  0.00000000000E+00  0.00000000000E+00  0.19452869898E+04  0.19452869898E+04  0.00000000000E+00 0. -1.
         -2   -1    0    0    0  501 -0.00000000000E+00 -0.00000000000E+00 -0.44902200933E+03  0.44902200933E+03  0.00000000000E+00 0.  1.
         23    2    1    2    0    0  0.34720685596E+03 -0.32855378007E+03  0.17753360817E+04  0.18407921821E+04  0.90539867526E+02 0.  0.
         11    1    3    3    0    0  0.12429501547E+03 -0.61830326229E+02  0.49138256651E+03  0.51061635969E+03  0.00000000000E+00 0.  1.
        -11    1    3    3    0    0  0.22291184049E+03 -0.26672345384E+03  0.12839535152E+04  0.13301758225E+04  0.00000000000E+00 0. -1.
         22    1    1    2    0    0 -0.34720685596E+03  0.32855378007E+03 -0.27907110119E+03  0.55351681703E+03  0.00000000000E+00 0.  1.
<mgrwt>
<rscale>  0 0.18691995E+04</rscale>
<asrwt>0</asrwt>
<pdfrwt beam="1">  1        2 0.29927492E+00 0.18691995E+04</pdfrwt>
<pdfrwt beam="2">  1       -2 0.69080310E-01 0.18691995E+04</pdfrwt>
<totfact> 0.12872314E+01</totfact>
</mgrwt>
</event>
<event>
 6    1  0.2238133E-007  0.2899277E+04  0.7818608E-02  0.8273093E-01
          2   -1    0    0  501    0  0.00000000000E+00  0.00000000000E+00  0.11157061954E+04  0.11157061954E+04  0.00000000000E+00 0. -1.
         -2   -1    0    0    0  501 -0.00000000000E+00 -0.00000000000E+00 -0.18835166792E+04  0.18835166792E+04  0.00000000000E+00 0.  1.
         23    2    1    2    0    0 -0.28334253051E+03 -0.10886134878E+04  0.55924372524E+03  0.12595576226E+04  0.91485217153E+02 0.  0.
         13    1    3    3    0    0 -0.82044106562E+02 -0.47869038854E+03  0.21977389960E+03  0.53308187968E+03  0.00000000000E+00 0. -1.
        -13    1    3    3    0    0 -0.20129842395E+03 -0.60992309931E+03  0.33946982564E+03  0.72647574293E+03  0.00000000000E+00 0.  1.
         22    1    1    2    0    0  0.28334253051E+03  0.10886134878E+04 -0.13270542090E+04  0.17396652521E+04  0.00000000000E+00 0.  1.
<mgrwt>
<rscale>  0 0.28992766E+04</rscale>
<asrwt>0</asrwt>
<pdfrwt beam="1">  1        2 0.17164711E+00 0.28992766E+04</pdfrwt>
<pdfrwt beam="2">  1       -2 0.28977179E+00 0.28992766E+04</pdfrwt>
<totfact> 0.67500593E-01</totfact>
</mgrwt>
</event>
<event>
 6    1  0.2238133E-007  0.1042192E+04  0.7818608E-02  0.9263442E-01
          2   -1    0    0  501    0  0.00000000000E+00  0.00000000000E+00  0.13313361911E+04  0.13313361911E+04  0.00000000000E+00 0. -1.
         -2   -1    0    0    0  501 -0.00000000000E+00 -0.00000000000E+00 -0.20396132652E+03  0.20396132652E+03  0.00000000000E+00 0.  1.
         23    2    1    2    0    0  0.21316129388E+03 -0.10681038806E+03 -0.10793671928E+03  0.27718746463E+03  0.91303663529E+02 0.  0.
         11    1    3    3    0    0  0.14415285944E+03 -0.40117001921E+02 -0.10188983893E+03  0.18102751174E+03  0.00000000000E+00 0. -1.
        -11    1    3    3    0    0  0.69008434440E+02 -0.66693386141E+02 -0.60468803450E+01  0.96159952895E+02  0.00000000000E+00 0.  1.
         22    1    1    2    0    0 -0.21316129388E+03  0.10681038806E+03  0.12353115839E+04  0.12581100530E+04  0.00000000000E+00 0. -1.
<mgrwt>
<rscale>  0 0.10421921E+04</rscale>
<asrwt>0</asrwt>
<pdfrwt beam="1">  1        2 0.20482095E+00 0.10421921E+04</pdfrwt>
<pdfrwt beam="2">  1       -2 0.31378667E-01 0.10421921E+04</pdfrwt>
<totfact> 0.14866231E+02</totfact>
</mgrwt>
</event>
<event>
 6    1  0.2238133E-007  0.1807939E+04  0.7818608E-02  0.8702089E-01
          2   -1    0    0  501    0  0.00000000000E+00  0.00000000000E+00  0.25343210028E+04  0.25343210028E+04  0.00000000000E+00 0. -1.
         -2   -1    0    0    0  501 -0.00000000000E+00 -0.00000000000E+00 -0.32243768629E+03  0.32243768629E+03  0.00000000000E+00 0.  1.
         23    2    1    2    0    0  0.30215810989E+03 -0.79092546535E+03  0.61693959275E+03  0.10510156019E+04  0.84597394492E+02 0.  0.
         13    1    3    3    0    0  0.19784479000E+03 -0.59864113968E+03  0.42882064567E+03  0.76249650570E+03  0.00000000000E+00 0.  1.
        -13    1    3    3    0    0  0.10431331989E+03 -0.19228432568E+03  0.18811894708E+03  0.28851909617E+03  0.00000000000E+00 0. -1.
         22    1    1    2    0    0 -0.30215810989E+03  0.79092546535E+03  0.15949437238E+04  0.18057430872E+04  0.00000000000E+00 0. -1.
<mgrwt>
<rscale>  0 0.18079387E+04</rscale>
<asrwt>0</asrwt>
<pdfrwt beam="1">  1        2 0.38989553E+00 0.18079387E+04</pdfrwt>
<pdfrwt beam="2">  1       -2 0.49605800E-01 0.18079387E+04</pdfrwt>
<totfact> 0.12079490E+01</totfact>
</mgrwt>
</event>
<event>
 6    1  0.2238133E-007  0.1257545E+04  0.7818608E-02  0.9063927E-01
          2   -1    0    0  501    0  0.00000000000E+00  0.00000000000E+00  0.72968950427E+03  0.72968950427E+03  0.00000000000E+00 0. -1.
         -2   -1    0    0    0  501 -0.00000000000E+00 -0.00000000000E+00 -0.54181205085E+03  0.54181205085E+03  0.00000000000E+00 0.  1.
         23    2    1    2    0    0 -0.45459945132E+03 -0.17625773601E+03  0.49145602060E+03  0.69714330707E+03  0.82172500087E+02 0.  0.
         13    1    3    3    0    0 -0.19829434776E+03 -0.10827138361E+03  0.18596408272E+03  0.29261917388E+03  0.00000000000E+00 0.  1.
        -13    1    3    3    0    0 -0.25630510356E+03 -0.67986352403E+02  0.30549193788E+03  0.40452413319E+03  0.00000000000E+00 0. -1.
         22    1    1    2    0    0  0.45459945132E+03  0.17625773601E+03 -0.30357856718E+03  0.57435824804E+03  0.00000000000E+00 0.  1.
<mgrwt>
<rscale>  0 0.12575445E+04</rscale>
<asrwt>0</asrwt>
<pdfrwt beam="1">  1        2 0.11225992E+00 0.12575445E+04</pdfrwt>
<pdfrwt beam="2">  1       -2 0.83355701E-01 0.12575445E+04</pdfrwt>
<totfact> 0.48134004E+01</totfact>
</mgrwt>
</event>
<event>
 6    1  0.2238133E-007  0.5264895E+04  0.7818608E-02  0.7788895E-01
         -2   -1    0    0    0  501 -0.00000000000E+00  0.00000000000E+00  0.33758144572E+04  0.33758144572E+04  0.00000000000E+00 0.  1.
          2   -1    0    0  501    0  0.00000000000E+00 -0.00000000000E+00 -0.20527727014E+04  0.20527727014E+04  0.00000000000E+00 0. -1.
         23    2    1    2    0    0  0.19394222174E+04 -0.17788770968E+04  0.65813909716E+03  0.27142073384E+04  0.89510569830E+02 0.  0.
         13    1    3    3    0    0  0.18157540910E+04 -0.16549952546E+04  0.63568408103E+03  0.25377286030E+04  0.00000000000E+00 0. -1.
        -13    1    3    3    0    0  0.12366812639E+03 -0.12388184219E+03  0.22455016130E+02  0.17647873542E+03  0.00000000000E+00 0.  1.
         22    1    1    2    0    0 -0.19394222174E+04  0.17788770968E+04  0.66490265864E+03  0.27143798201E+04  0.00000000000E+00 0.  1.
<mgrwt>
<rscale>  0 0.52648950E+04</rscale>
<asrwt>0</asrwt>
<pdfrwt beam="1">  1        2 0.31581118E+00 0.52648950E+04</pdfrwt>
<pdfrwt beam="2">  1       -2 0.51935607E+00 0.52648950E+04</pdfrwt>
<totfact> 0.56664336E-03</totfact>
</mgrwt>
</event>
<event>
 6    1  0.2238133E-007  0.2520144E+04  0.7818608E-02  0.8395844E-01
         -2   -1    0    0    0  501 -0.00000000000E+00  0.00000000000E+00  0.94171495831E+03  0.94171495831E+03  0.00000000000E+00 0.  1.
          2   -1    0    0  501    0  0.00000000000E+00 -0.00000000000E+00 -0.16860526628E+04  0.16860526628E+04  0.00000000000E+00 0. -1.
         23    2    1    2    0    0  0.52762823831E+03 -0.26301209131E+03  0.78663010053E+03  0.98720999090E+03  0.90717875983E+02 0.  0.
         11    1    3    3    0    0  0.18579434240E+03 -0.81552236942E+02  0.34274986586E+03  0.39830613298E+03  0.00000000000E+00 0.  1.
        -11    1    3    3    0    0  0.34183389592E+03 -0.18145985437E+03  0.44388023467E+03  0.58890385792E+03  0.00000000000E+00 0. -1.
         22    1    1    2    0    0 -0.52762823831E+03  0.26301209131E+03 -0.15309678051E+04  0.16405576303E+04  0.00000000000E+00 0. -1.
<mgrwt>
<rscale>  0 0.25201437E+04</rscale>
<asrwt>0</asrwt>
<pdfrwt beam="1">  1        2 0.25939271E+00 0.25201437E+04</pdfrwt>
<pdfrwt beam="2">  1       -2 0.14487923E+00 0.25201437E+04</pdfrwt>
<totfact> 0.29197835E+00</totfact>
</mgrwt>
</event>
<event>
 6    1  0.2238133E-007  0.8891069E+03  0.7818608E-02  0.9439302E-01
         -2   -1    0    0    0  501 -0.00000000000E+00  0.00000000000E+00  0.14874837044E+03  0.14874837044E+03  0.00000000000E+00 0.  1.
          2   -1    0    0  501    0  0.00000000000E+00 -0.00000000000E+00 -0.13286045116E+04  0.13286045116E+04  0.00000000000E+00 0. -1.
         23    2    1    2    0    0  0.34734275357E+02  0.35353022328E+03 -0.10269754356E+04  0.10906196422E+04  0.92642161232E+02 0.  0.
         11    1    3    3    0    0  0.55993803154E+02  0.14203754083E+03 -0.48452770632E+03  0.50801286124E+03  0.00000000000E+00 0.  1.
        -11    1    3    3    0    0 -0.21259527797E+02  0.21149268245E+03 -0.54244772927E+03  0.58260678098E+03  0.00000000000E+00 0. -1.
         22    1    1    2    0    0 -0.34734275357E+02 -0.35353022328E+03 -0.15288070558E+03  0.38673323983E+03  0.00000000000E+00 0.  1.
<mgrwt>
<rscale>  0 0.88910687E+03</rscale>
<asrwt>0</asrwt>
<pdfrwt beam="1">  1        2 0.20440069E+00 0.88910687E+03</pdfrwt>
<pdfrwt beam="2">  1       -2 0.22884365E-01 0.88910687E+03</pdfrwt>
<totfact> 0.26823178E+02</totfact>
</mgrwt>
</event>
<event>
 6    1  0.2238133E-007  0.2091770E+04  0.7818608E-02  0.8564878E-01
         -2   -1    0    0    0  501 -0.00000000000E+00  0.00000000000E+00  0.56791712089E+03  0.56791712089E+03  0.00000000000E+00 0.  1.
          2   -1    0    0  501    0  0.00000000000E+00 -0.00000000000E+00 -0.19261171691E+04  0.19261171691E+04  0.00000000000E+00 0. -1.
         23    2    1    2    0    0 -0.97747293881E+03 -0.16448472479E+03 -0.10709448997E+04  0.14620342458E+04  0.90069900114E+02 0.  0.
         11    1    3    3    0    0 -0.12137769175E+03  0.71775120692E+01 -0.14763994323E+03  0.19126320496E+03  0.00000000000E+00 0. -1.
        -11    1    3    3    0    0 -0.85609524706E+03 -0.17166223686E+03 -0.92330495649E+03  0.12707710409E+04  0.00000000000E+00 0.  1.
         22    1    1    2    0    0  0.97747293881E+03  0.16448472479E+03 -0.28725514846E+03  0.10320000441E+04  0.00000000000E+00 0.  1.
<mgrwt>
<rscale>  0 0.20917695E+04</rscale>
<asrwt>0</asrwt>
<pdfrwt beam="1">  1        2 0.29632572E+00 0.20917695E+04</pdfrwt>
<pdfrwt beam="2">  1       -2 0.87371866E-01 0.20917695E+04</pdfrwt>
<totfact> 0.76618595E+00</totfact>
</mgrwt>
</event>
<event>
 6    1  0.2238133E-007  0.2403697E+04  0.7818608E-02  0.8438121E-01
         -2   -1    0    0    0  501 -0.00000000000E+00  0.00000000000E+00  0.12852526303E+04  0.12852526303E+04  0.00000000000E+00 0.  1.
          2   -1    0    0  501    0  0.00000000000E+00 -0.00000000000E+00 -0.11238568460E+04  0.11238568460E+04  0.00000000000E+00 0. -1.
         23    2    1    2    0    0 -0.42617348239E+03  0.81050023090E+03 -0.69687552078E+03  0.11540540614E+04  0.87583239437E+02 0.  0.
         13    1    3    3    0    0 -0.17923999773E+03  0.42940912556E+03 -0.37128644519E+03  0.59529219572E+03  0.00000000000E+00 0.  1.
        -13    1    3    3    0    0 -0.24693348467E+03  0.38109110534E+03 -0.32558907559E+03  0.55876186570E+03  0.00000000000E+00 0. -1.
         22    1    1    2    0    0  0.42617348239E+03 -0.81050023090E+03  0.85827130505E+03  0.12550554149E+04  0.00000000000E+00 0.  1.
<mgrwt>
<rscale>  0 0.24036971E+04</rscale>
<asrwt>0</asrwt>
<pdfrwt beam="1">  1        2 0.17290105E+00 0.24036971E+04</pdfrwt>
<pdfrwt beam="2">  1       -2 0.19773117E+00 0.24036971E+04</pdfrwt>
<totfact> 0.26061559E+00</totfact>
</mgrwt>
</event>
<event>
 6    1  0.3014837E-007  0.4320895E+04  0.7818608E-02  0.7942766E-01
          2   -1    0    0  501    0  0.00000000000E+00  0.00000000000E+00  0.33158652120E+04  0.33158652120E+04  0.00000000000E+00 0. -1.
         -2   -1    0    0    0  501 -0.00000000000E+00 -0.00000000000E+00 -0.14076368105E+04  0.14076368105E+04  0.00000000000E+00 0.  1.
         23    2    1    2    0    0  0.21480744919E+03  0.13423138599E+04  0.27888422187E+04  0.31038016077E+04  0.89413426210E+02 0.  0.
         11    1    3    3    0    0  0.95421673372E+02  0.37921204723E+03  0.75285598174E+03  0.84835087184E+03  0.00000000000E+00 0. -1.
        -11    1    3    3    0    0  0.11938577581E+03  0.96310181265E+03  0.20359862369E+04  0.22554507359E+04  0.00000000000E+00 0.  1.
         22    1    1    2    0    0 -0.21480744919E+03 -0.13423138599E+04 -0.88061381720E+03  0.16197004148E+04  0.00000000000E+00 0.  1.
<mgrwt>
<rscale>  0 0.43208952E+04</rscale>
<asrwt>0</asrwt>
<pdfrwt beam="1">  1        2 0.51013311E+00 0.43208952E+04</pdfrwt>
<pdfrwt beam="2">  1       -2 0.21655951E+00 0.43208952E+04</pdfrwt>
<totfact> 0.86738954E-02</totfact>
</mgrwt>
</event>
<event>
 6    1  0.2238133E-007  0.2394744E+04  0.7818608E-02  0.8441474E-01
         -2   -1    0    0    0  501 -0.00000000000E+00  0.00000000000E+00  0.49696437587E+03  0.49696437587E+03  0.00000000000E+00 0.  1.
          2   -1    0    0  501    0  0.00000000000E+00 -0.00000000000E+00 -0.28849133444E+04  0.28849133444E+04  0.00000000000E+00 0. -1.
         23    2    1    2    0    0 -0.11719333201E+04 -0.17065327735E+02 -0.86192979067E+03  0.14577016723E+04  0.90842001121E+02 0.  0.
         11    1    3    3    0    0 -0.43945456014E+03 -0.50117147402E+02 -0.31810288630E+03  0.54481325715E+03  0.00000000000E+00 0. -1.
        -11    1    3    3    0    0 -0.73247876000E+03  0.33051819666E+02 -0.54382690437E+03  0.91288841517E+03  0.00000000000E+00 0.  1.
         22    1    1    2    0    0  0.11719333201E+04  0.17065327735E+02 -0.15260191778E+04  0.19241760479E+04  0.00000000000E+00 0. -1.
<mgrwt>
<rscale>  0 0.23947435E+04</rscale>
<asrwt>0</asrwt>
<pdfrwt beam="1">  1        2 0.44383280E+00 0.23947435E+04</pdfrwt>
<pdfrwt beam="2">  1       -2 0.76456062E-01 0.23947435E+04</pdfrwt>
<totfact> 0.28257331E+00</totfact>
</mgrwt>
</event>
<event>
 6    1  0.2238133E-007  0.1256499E+04  0.7818608E-02  0.9064791E-01
          2   -1    0    0  501    0  0.00000000000E+00  0.00000000000E+00  0.11380269400E+04  0.11380269400E+04  0.00000000000E+00 0. -1.
         -2   -1    0    0    0  501 -0.00000000000E+00 -0.00000000000E+00 -0.34682605579E+03  0.34682605579E+03  0.00000000000E+00 0.  1.
         23    2    1    2    0    0  0.20554088324E+03 -0.20651349204E+03 -0.25595112866E+03  0.39792051623E+03  0.89077942819E+02 0.  0.
         13    1    3    3    0    0  0.87858068179E+02 -0.10098780898E+03 -0.17502156526E+03  0.22034093131E+03  0.00000000000E+00 0.  1.
        -13    1    3    3    0    0  0.11768281507E+03 -0.10552568306E+03 -0.80929563398E+02  0.17757958492E+03  0.00000000000E+00 0. -1.
         22    1    1    2    0    0 -0.20554088324E+03  0.20651349204E+03  0.10471520128E+04  0.10869324795E+04  0.00000000000E+00 0. -1.
<mgrwt>
<rscale>  0 0.12564989E+04</rscale>
<asrwt>0</asrwt>
<pdfrwt beam="1">  1        2 0.17508107E+00 0.12564989E+04</pdfrwt>
<pdfrwt beam="2">  1       -2 0.53357855E-01 0.12564989E+04</pdfrwt>
<totfact> 0.67189581E+01</totfact>
</mgrwt>
</event>
<event>
 6    1  0.2238133E-007  0.1783589E+04  0.7818608E-02  0.8715076E-01
          2   -1    0    0  501    0  0.00000000000E+00  0.00000000000E+00  0.12502130626E+04  0.12502130626E+04  0.00000000000E+00 0. -1.
         -2   -1    0    0    0  501 -0.00000000000E+00 -0.00000000000E+00 -0.63612970129E+03  0.63612970129E+03  0.00000000000E+00 0.  1.
         23    2    1    2    0    0 -0.41783217588E+02 -0.18058751069E+03  0.12278711431E+04  0.12451773193E+04  0.91876690612E+02 0.  0.
         11    1    3    3    0    0  0.11860785216E+02 -0.33146454019E+02  0.46547461231E+03  0.46680400635E+03  0.00000000000E+00 0. -1.
        -11    1    3    3    0    0 -0.53644002804E+02 -0.14744105667E+03  0.76239653075E+03  0.77837331296E+03  0.00000000000E+00 0.  1.
         22    1    1    2    0    0  0.41783217588E+02  0.18058751069E+03 -0.61378778175E+03  0.64116544457E+03  0.00000000000E+00 0.  1.
<mgrwt>
<rscale>  0 0.17835893E+04</rscale>
<asrwt>0</asrwt>
<pdfrwt beam="1">  1        2 0.19234047E+00 0.17835893E+04</pdfrwt>
<pdfrwt beam="2">  1       -2 0.97866108E-01 0.17835893E+04</pdfrwt>
<totfact> 0.14531251E+01</totfact>
</mgrwt>
</event>
<event>
 6    1  0.2238133E-007  0.1941364E+04  0.7818608E-02  0.8634536E-01
          2   -1    0    0  501    0  0.00000000000E+00  0.00000000000E+00  0.60382724046E+03  0.60382724046E+03  0.00000000000E+00 0. -1.
         -2   -1    0    0    0  501 -0.00000000000E+00 -0.00000000000E+00 -0.15604192592E+04  0.15604192592E+04  0.00000000000E+00 0.  1.
         23    2    1    2    0    0  0.21425844144E+03 -0.21114318093E+03  0.54626109530E+03  0.63158358663E+03  0.10004259135E+03 0.  0.
         13    1    3    3    0    0  0.94841545883E+02 -0.14649431866E+03  0.24167211809E+03  0.29809548284E+03  0.00000000000E+00 0. -1.
        -13    1    3    3    0    0  0.11941689556E+03 -0.64648862275E+02  0.30458897721E+03  0.33348810380E+03  0.00000000000E+00 0.  1.
         22    1    1    2    0    0 -0.21425844144E+03  0.21114318093E+03 -0.15028531140E+04  0.15326629130E+04  0.00000000000E+00 0.  1.
<mgrwt>
<rscale>  0 0.19413641E+04</rscale>
<asrwt>0</asrwt>
<pdfrwt beam="1">  1        2 0.92896501E-01 0.19413641E+04</pdfrwt>
<pdfrwt beam="2">  1       -2 0.24006450E+00 0.19413641E+04</pdfrwt>
<totfact> 0.33987506E+00</totfact>
</mgrwt>
</event>
<event>
 6    1  0.2238133E-007  0.2919397E+04  0.7818608E-02  0.8267129E-01
         -2   -1    0    0    0  501 -0.00000000000E+00  0.00000000000E+00  0.16455693042E+04  0.16455693042E+04  0.00000000000E+00 0.  1.
          2   -1    0    0  501    0  0.00000000000E+00 -0.00000000000E+00 -0.12948225756E+04  0.12948225756E+04  0.00000000000E+00 0. -1.
         23    2    1    2    0    0 -0.32261869790E+03  0.10171647765E+04 -0.82545173677E+03  0.13522641025E+04  0.92415509302E+02 0.  0.
         13    1    3    3    0    0 -0.28782681989E+03  0.85760828922E+03 -0.66000332235E+03  0.11197949105E+04  0.00000000000E+00 0.  1.
        -13    1    3    3    0    0 -0.34791878013E+02  0.15955648732E+03 -0.16544841442E+03  0.23246919206E+03  0.00000000000E+00 0. -1.
         22    1    1    2    0    0  0.32261869790E+03 -0.10171647765E+04  0.11761984654E+04  0.15881277772E+04  0.00000000000E+00 0.  1.
<mgrwt>
<rscale>  0 0.29193974E+04</rscale>
<asrwt>0</asrwt>
<pdfrwt beam="1">  1        2 0.19920347E+00 0.29193974E+04</pdfrwt>
<pdfrwt beam="2">  1       -2 0.25316451E+00 0.29193974E+04</pdfrwt>
<totfact> 0.88141276E-01</totfact>
</mgrwt>
</event>
<event>
 6    1  0.2238133E-007  0.2776242E+04  0.7818608E-02  0.8310682E-01
          2   -1    0    0  501    0  0.00000000000E+00  0.00000000000E+00  0.15812407711E+04  0.15812407711E+04  0.00000000000E+00 0. -1.
         -2   -1    0    0    0  501 -0.00000000000E+00 -0.00000000000E+00 -0.12185875791E+04  0.12185875791E+04  0.00000000000E+00 0.  1.
         23    2    1    2    0    0  0.22674017348E+03 -0.89034661201E+03  0.12288766661E+04  0.15371045867E+04  0.91784825913E+02 0.  0.
         11    1    3    3    0    0 -0.82459128831E+00 -0.91476599799E+02  0.99649698542E+02  0.13527272704E+03  0.00000000000E+00 0.  1.
        -11    1    3    3    0    0  0.22756476477E+03 -0.79887001221E+03  0.11292269675E+04  0.14018318597E+04  0.00000000000E+00 0. -1.
         22    1    1    2    0    0 -0.22674017348E+03  0.89034661201E+03 -0.86622347414E+03  0.12627237635E+04  0.00000000000E+00 0.  1.
<mgrwt>
<rscale>  0 0.27762423E+04</rscale>
<asrwt>0</asrwt>
<pdfrwt beam="1">  1        2 0.24326781E+00 0.27762423E+04</pdfrwt>
<pdfrwt beam="2">  1       -2 0.18747501E+00 0.27762423E+04</pdfrwt>
<totfact> 0.16058823E+00</totfact>
</mgrwt>
</event>
<event>
 6    1  0.2238133E-007  0.1671857E+04  0.7818608E-02  0.8777580E-01
          2   -1    0    0  501    0  0.00000000000E+00  0.00000000000E+00  0.92993829273E+03  0.92993829273E+03  0.00000000000E+00 0. -1.
         -2   -1    0    0    0  501 -0.00000000000E+00 -0.00000000000E+00 -0.75142266461E+03  0.75142266461E+03  0.00000000000E+00 0.  1.
         23    2    1    2    0    0 -0.16692860950E+03  0.60154373805E+03  0.64497200973E+03  0.90206538735E+03  0.89515586739E+02 0.  0.
         13    1    3    3    0    0  0.12141550295E+00  0.13317391331E+03  0.14606127550E+03  0.19765930822E+03  0.00000000000E+00 0.  1.
        -13    1    3    3    0    0 -0.16705002501E+03  0.46836982474E+03  0.49891073423E+03  0.70440607913E+03  0.00000000000E+00 0. -1.
         22    1    1    2    0    0  0.16692860950E+03 -0.60154373805E+03 -0.46645638161E+03  0.77929556999E+03  0.00000000000E+00 0.  1.
<mgrwt>
<rscale>  0 0.16718573E+04</rscale>
<asrwt>0</asrwt>
<pdfrwt beam="1">  1        2 0.14306743E+00 0.16718573E+04</pdfrwt>
<pdfrwt beam="2">  1       -2 0.11560349E+00 0.16718573E+04</pdfrwt>
<totfact> 0.15542280E+01</totfact>
</mgrwt>
</event>
<event>
 6    1  0.2238133E-007  0.2783370E+04  0.7818608E-02  0.8308450E-01
         -2   -1    0    0    0  501 -0.00000000000E+00  0.00000000000E+00  0.73378524782E+03  0.73378524782E+03  0.00000000000E+00 0.  1.
          2   -1    0    0  501    0  0.00000000000E+00 -0.00000000000E+00 -0.26394462407E+04  0.26394462407E+04  0.00000000000E+00 0. -1.
         23    2    1    2    0    0  0.62787856076E+03  0.10967905446E+04 -0.25228721971E+03  0.12921678615E+04  0.94169821425E+02 0.  0.
         13    1    3    3    0    0  0.29492595334E+03  0.48469431125E+03 -0.68101777455E+02  0.57144356274E+03  0.00000000000E+00 0. -1.
        -13    1    3    3    0    0  0.33295260743E+03  0.61209623337E+03 -0.18418544226E+03  0.72072429877E+03  0.00000000000E+00 0.  1.
         22    1    1    2    0    0 -0.62787856076E+03 -0.10967905446E+04 -0.16533737731E+04  0.20810636270E+04  0.00000000000E+00 0. -1.
<mgrwt>
<rscale>  0 0.27833697E+04</rscale>
<asrwt>0</asrwt>
<pdfrwt beam="1">  1        2 0.40606865E+00 0.27833697E+04</pdfrwt>
<pdfrwt beam="2">  1       -2 0.11289004E+00 0.27833697E+04</pdfrwt>
<totfact> 0.15500898E+00</totfact>
</mgrwt>
</event>
<event>
 6    1  0.2238133E-007  0.3668000E+04  0.7818608E-02  0.8075091E-01
          2   -1    0    0  501    0  0.00000000000E+00  0.00000000000E+00  0.18606192135E+04  0.18606192135E+04  0.00000000000E+00 0. -1.
         -2   -1    0    0    0  501 -0.00000000000E+00 -0.00000000000E+00 -0.18077618840E+04  0.18077618840E+04  0.00000000000E+00 0.  1.
         23    2    1    2    0    0 -0.34365109847E+03  0.35448637552E+03  0.17918218112E+04  0.18606880548E+04  0.88192778130E+02 0.  0.
         13    1    3    3    0    0 -0.11153039550E+03  0.17608332268E+03  0.71159284304E+03  0.74149088998E+03  0.00000000000E+00 0. -1.
        -13    1    3    3    0    0 -0.23212070297E+03  0.17840305284E+03  0.10802289682E+04  0.11191971648E+04  0.00000000000E+00 0.  1.
         22    1    1    2    0    0  0.34365109847E+03 -0.35448637552E+03 -0.17389644817E+04  0.18076930427E+04  0.00000000000E+00 0.  1.
<mgrwt>
<rscale>  0 0.36680003E+04</rscale>
<asrwt>0</asrwt>
<pdfrwt beam="1">  1        2 0.28624911E+00 0.36680003E+04</pdfrwt>
<pdfrwt beam="2">  1       -2 0.27811721E+00 0.36680003E+04</pdfrwt>
<totfact> 0.27987934E-01</totfact>
</mgrwt>
</event>
<event>
 6    1  0.2238133E-007  0.9657121E+03  0.7818608E-02  0.9346972E-01
          2   -1    0    0  501    0  0.00000000000E+00  0.00000000000E+00  0.53043724593E+03  0.53043724593E+03  0.00000000000E+00 0. -1.
         -2   -1    0    0    0  501 -0.00000000000E+00 -0.00000000000E+00 -0.43954294731E+03  0.43954294731E+03  0.00000000000E+00 0.  1.
         23    2    1    2    0    0 -0.41171837576E+03 -0.78273462077E+02  0.27606403048E+03  0.51180273263E+03  0.10045861040E+03 0.  0.
         13    1    3    3    0    0 -0.21712375039E+03 -0.72622759248E+02  0.10193887241E+03  0.25061588508E+03  0.00000000000E+00 0. -1.
        -13    1    3    3    0    0 -0.19459462537E+03 -0.56507028292E+01  0.17412515806E+03  0.26118684756E+03  0.00000000000E+00 0.  1.
         22    1    1    2    0    0  0.41171837576E+03  0.78273462077E+02 -0.18516973185E+03  0.45817746060E+03  0.00000000000E+00 0.  1.
<mgrwt>
<rscale>  0 0.96571207E+03</rscale>
<asrwt>0</asrwt>
<pdfrwt beam="1">  1        2 0.81605730E-01 0.96571207E+03</pdfrwt>
<pdfrwt beam="2">  1       -2 0.67621992E-01 0.96571207E+03</pdfrwt>
<totfact> 0.11527486E+02</totfact>
</mgrwt>
</event>
<event>
 6    1  0.2238133E-007  0.2614120E+04  0.7818608E-02  0.8363421E-01
         -2   -1    0    0    0  501 -0.00000000000E+00  0.00000000000E+00  0.11787023471E+04  0.11787023471E+04  0.00000000000E+00 0.  1.
          2   -1    0    0  501    0  0.00000000000E+00 -0.00000000000E+00 -0.14493952903E+04  0.14493952903E+04  0.00000000000E+00 0. -1.
         23    2    1    2    0    0  0.68929339350E+01  0.82691266419E+03 -0.11511821557E+04  0.14201682851E+04  0.88462057732E+02 0.  0.
         13    1    3    3    0    0 -0.12898534943E+02  0.24036583531E+02 -0.25368101648E+02  0.37251444707E+02  0.00000000000E+00 0.  1.
        -13    1    3    3    0    0  0.19791468878E+02  0.80287608065E+03 -0.11258140540E+04  0.13829168404E+04  0.00000000000E+00 0. -1.
         22    1    1    2    0    0 -0.68929339350E+01 -0.82691266419E+03  0.88048921251E+03  0.12079293523E+04  0.00000000000E+00 0.  1.
<mgrwt>
<rscale>  0 0.26141198E+04</rscale>
<asrwt>0</asrwt>
<pdfrwt beam="1">  1        2 0.22298389E+00 0.26141198E+04</pdfrwt>
<pdfrwt beam="2">  1       -2 0.18133882E+00 0.26141198E+04</pdfrwt>
<totfact> 0.21271008E+00</totfact>
</mgrwt>
</event>
<event>
 6    1  0.2238133E-007  0.1968929E+04  0.7818608E-02  0.8621287E-01
          2   -1    0    0  501    0  0.00000000000E+00  0.00000000000E+00  0.58583829428E+03  0.58583829428E+03  0.00000000000E+00 0. -1.
         -2   -1    0    0    0  501 -0.00000000000E+00 -0.00000000000E+00 -0.16543301968E+04  0.16543301968E+04  0.00000000000E+00 0.  1.
         23    2    1    2    0    0  0.21421640691E+03  0.49628727646E+03  0.39802379917E+03  0.67720398955E+03  0.89401168809E+02 0.  0.
         13    1    3    3    0    0  0.18397379604E+03  0.33655678363E+03  0.25419203862E+03  0.46014173766E+03  0.00000000000E+00 0. -1.
        -13    1    3    3    0    0  0.30242610876E+02  0.15973049282E+03  0.14383176056E+03  0.21706225189E+03  0.00000000000E+00 0.  1.
         22    1    1    2    0    0 -0.21421640691E+03 -0.49628727646E+03 -0.14665157017E+04  0.15629645016E+04  0.00000000000E+00 0.  1.
<mgrwt>
<rscale>  0 0.19689286E+04</rscale>
<asrwt>0</asrwt>
<pdfrwt beam="1">  1        2 0.90128968E-01 0.19689286E+04</pdfrwt>
<pdfrwt beam="2">  1       -2 0.25451234E+00 0.19689286E+04</pdfrwt>
<totfact> 0.28661319E+00</totfact>
</mgrwt>
</event>
<event>
 6    1  0.2424220E-007  0.3524321E+04  0.7818608E-02  0.8108050E-01
         -1   -1    0    0    0  501 -0.00000000000E+00  0.00000000000E+00  0.13114667668E+04  0.13114667668E+04  0.00000000000E+00 0.  1.
          1   -1    0    0  501    0  0.00000000000E+00 -0.00000000000E+00 -0.23677378823E+04  0.23677378823E+04  0.00000000000E+00 0. -1.
         23    2    1    2    0    0 -0.83315263034E+03 -0.84940599091E+03  0.82673427173E+03  0.14517973825E+04  0.92694341485E+02 0.  0.
         13    1    3    3    0    0 -0.46787358203E+03 -0.41229972613E+03  0.44366191412E+03  0.76533172348E+03  0.00000000000E+00 0. -1.
        -13    1    3    3    0    0 -0.36527904831E+03 -0.43710626478E+03  0.38307235761E+03  0.68646565902E+03  0.00000000000E+00 0.  1.
         22    1    1    2    0    0  0.83315263034E+03  0.84940599091E+03 -0.18830053872E+04  0.22274072665E+04  0.00000000000E+00 0. -1.
<mgrwt>
<rscale>  0 0.35243210E+04</rscale>
<asrwt>0</asrwt>
<pdfrwt beam="1">  1        1 0.36426736E+00 0.35243210E+04</pdfrwt>
<pdfrwt beam="2">  1       -1 0.20176412E+00 0.35243210E+04</pdfrwt>
<totfact> 0.19922902E-01</totfact>
</mgrwt>
</event>
<event>
 6    1  0.2238133E-007  0.2306430E+04  0.7818608E-02  0.8475390E-01
         -2   -1    0    0    0  501 -0.00000000000E+00  0.00000000000E+00  0.73893746955E+03  0.73893746955E+03  0.00000000000E+00 0.  1.
          2   -1    0    0  501    0  0.00000000000E+00 -0.00000000000E+00 -0.17997526720E+04  0.17997526720E+04  0.00000000000E+00 0. -1.
         23    2    1    2    0    0 -0.11512211199E+04 -0.10497407445E+02 -0.55123637809E+03  0.12796862334E+04  0.91186890629E+02 0.  0.
         11    1    3    3    0    0 -0.83312965266E+03  0.31719164802E+02 -0.41016548866E+03  0.92916459879E+03  0.00000000000E+00 0. -1.
        -11    1    3    3    0    0 -0.31809146723E+03 -0.42216572246E+02 -0.14107088943E+03  0.35052163462E+03  0.00000000000E+00 0.  1.
         22    1    1    2    0    0  0.11512211199E+04  0.10497407445E+02 -0.50957882432E+03  0.12590039081E+04  0.00000000000E+00 0.  1.
<mgrwt>
<rscale>  0 0.23064299E+04</rscale>
<asrwt>0</asrwt>
<pdfrwt beam="1">  1        2 0.27688502E+00 0.23064299E+04</pdfrwt>
<pdfrwt beam="2">  1       -2 0.11368269E+00 0.23064299E+04</pdfrwt>
<totfact> 0.47436726E+00</totfact>
</mgrwt>
</event>
<event>
 6    1  0.2238133E-007  0.2924028E+04  0.7818608E-02  0.8265764E-01
         -2   -1    0    0    0  501 -0.00000000000E+00  0.00000000000E+00  0.95469896603E+03  0.95469896603E+03  0.00000000000E+00 0.  1.
          2   -1    0    0  501    0  0.00000000000E+00 -0.00000000000E+00 -0.22389100358E+04  0.22389100358E+04  0.00000000000E+00 0. -1.
         23    2    1    2    0    0 -0.88244634685E+03  0.89096536047E+02  0.62467857133E+03  0.10887314734E+04  0.91995412331E+02 0.  0.
         11    1    3    3    0    0 -0.17339018803E+03  0.52239157946E+02  0.11126508833E+03  0.21253942413E+03  0.00000000000E+00 0. -1.
        -11    1    3    3    0    0 -0.70905615882E+03  0.36857378101E+02  0.51341348300E+03  0.87619204927E+03  0.00000000000E+00 0.  1.
         22    1    1    2    0    0  0.88244634685E+03 -0.89096536047E+02 -0.19088896411E+04  0.21048775284E+04  0.00000000000E+00 0. -1.
<mgrwt>
<rscale>  0 0.29240281E+04</rscale>
<asrwt>0</asrwt>
<pdfrwt beam="1">  1        2 0.34444769E+00 0.29240281E+04</pdfrwt>
<pdfrwt beam="2">  1       -2 0.14687677E+00 0.29240281E+04</pdfrwt>
<totfact> 0.13394951E+00</totfact>
</mgrwt>
</event>
<event>
 6    1  0.2238133E-007  0.1859080E+04  0.7818608E-02  0.8675497E-01
          2   -1    0    0  501    0  0.00000000000E+00  0.00000000000E+00  0.47295452953E+03  0.47295452953E+03  0.00000000000E+00 0. -1.
         -2   -1    0    0    0  501 -0.00000000000E+00 -0.00000000000E+00 -0.18269080857E+04  0.18269080857E+04  0.00000000000E+00 0.  1.
         23    2    1    2    0    0  0.98274640439E+02  0.33975359303E+03  0.38127875550E+03  0.52895279697E+03  0.96577239001E+02 0.  0.
         13    1    3    3    0    0  0.11495899688E+03  0.31275661500E+03  0.33229890754E+03  0.47058987998E+03  0.00000000000E+00 0.  1.
        -13    1    3    3    0    0 -0.16684356443E+02  0.26996978032E+02  0.48979847959E+02  0.58362916984E+02  0.00000000000E+00 0. -1.
         22    1    1    2    0    0 -0.98274640439E+02 -0.33975359303E+03 -0.17352323116E+04  0.17709098182E+04  0.00000000000E+00 0.  1.
<mgrwt>
<rscale>  0 0.18590798E+04</rscale>
<asrwt>0</asrwt>
<pdfrwt beam="1">  1        2 0.72762236E-01 0.18590798E+04</pdfrwt>
<pdfrwt beam="2">  1       -2 0.28106278E+00 0.18590798E+04</pdfrwt>
<totfact> 0.25625214E+00</totfact>
</mgrwt>
</event>
<event>
 6    1  0.2238133E-007  0.3134423E+04  0.7818608E-02  0.8206354E-01
          2   -1    0    0  501    0  0.00000000000E+00  0.00000000000E+00  0.22165772232E+04  0.22165772232E+04  0.00000000000E+00 0. -1.
         -2   -1    0    0    0  501 -0.00000000000E+00 -0.00000000000E+00 -0.11080832953E+04  0.11080832953E+04  0.00000000000E+00 0.  1.
         23    2    1    2    0    0  0.78066039495E+03 -0.13236294404E+04  0.87386082475E+03  0.17701579482E+04  0.91656276029E+02 0.  0.
         11    1    3    3    0    0  0.49182747109E+03 -0.75380486623E+03  0.48852229070E+03  0.10240947545E+04  0.00000000000E+00 0. -1.
        -11    1    3    3    0    0  0.28883292385E+03 -0.56982457416E+03  0.38533853405E+03  0.74606319373E+03  0.00000000000E+00 0.  1.
         22    1    1    2    0    0 -0.78066039495E+03  0.13236294404E+04  0.23463310314E+03  0.15545025702E+04  0.00000000000E+00 0. -1.
<mgrwt>
<rscale>  0 0.31344232E+04</rscale>
<asrwt>0</asrwt>
<pdfrwt beam="1">  1        2 0.34101188E+00 0.31344232E+04</pdfrwt>
<pdfrwt beam="2">  1       -2 0.17047435E+00 0.31344232E+04</pdfrwt>
<totfact> 0.90487971E-01</totfact>
</mgrwt>
</event>
<event>
 6    1  0.2238133E-007  0.2687865E+04  0.7818608E-02  0.8338953E-01
         -2   -1    0    0    0  501 -0.00000000000E+00  0.00000000000E+00  0.91652185093E+03  0.91652185093E+03  0.00000000000E+00 0.  1.
          2   -1    0    0  501    0  0.00000000000E+00 -0.00000000000E+00 -0.19706612707E+04  0.19706612707E+04  0.00000000000E+00 0. -1.
         23    2    1    2    0    0 -0.10190322827E+04  0.86426825305E+03 -0.67012604367E+03  0.14969124000E+04  0.79318423869E+02 0.  0.
         13    1    3    3    0    0 -0.19410976770E+03  0.14115115130E+03 -0.14833348965E+03  0.28214371087E+03  0.00000000000E+00 0. -1.
        -13    1    3    3    0    0 -0.82492251503E+03  0.72311710175E+03 -0.52179255402E+03  0.12147686891E+04  0.00000000000E+00 0.  1.
         22    1    1    2    0    0  0.10190322827E+04 -0.86426825305E+03 -0.38401337612E+03  0.13902707217E+04  0.00000000000E+00 0. -1.
<mgrwt>
<rscale>  0 0.26878647E+04</rscale>
<asrwt>0</asrwt>
<pdfrwt beam="1">  1        2 0.30317865E+00 0.26878647E+04</pdfrwt>
<pdfrwt beam="2">  1       -2 0.14100336E+00 0.26878647E+04</pdfrwt>
<totfact> 0.21478238E+00</totfact>
</mgrwt>
</event>
<event>
 6    1  0.3275759E-007  0.3223339E+04  0.7818608E-02  0.8182680E-01
         -1   -1    0    0    0  501 -0.00000000000E+00  0.00000000000E+00  0.16825314724E+04  0.16825314724E+04  0.00000000000E+00 0.  1.
          1   -1    0    0  501    0  0.00000000000E+00 -0.00000000000E+00 -0.15437922650E+04  0.15437922650E+04  0.00000000000E+00 0. -1.
         23    2    1    2    0    0 -0.10546523976E+04  0.63767252632E+03  0.11069743755E+04  0.16590339521E+04  0.89908039495E+02 0.  0.
         11    1    3    3    0    0 -0.34592994120E+03  0.21598763965E+03  0.42352753420E+03  0.58795727475E+03  0.00000000000E+00 0. -1.
        -11    1    3    3    0    0 -0.70872245643E+03  0.42168488667E+03  0.68344684126E+03  0.10710766773E+04  0.00000000000E+00 0.  1.
         22    1    1    2    0    0  0.10546523976E+04 -0.63767252632E+03 -0.96823516803E+03  0.15672897854E+04  0.00000000000E+00 0. -1.
<mgrwt>
<rscale>  0 0.32233393E+04</rscale>
<asrwt>0</asrwt>
<pdfrwt beam="1">  1        1 0.23750650E+00 0.32233393E+04</pdfrwt>
<pdfrwt beam="2">  1       -1 0.25885100E+00 0.32233393E+04</pdfrwt>
<totfact> 0.31094291E-01</totfact>
</mgrwt>
</event>
<event>
 6    1  0.2238133E-007  0.1825013E+04  0.7818608E-02  0.8693110E-01
          2   -1    0    0  501    0  0.00000000000E+00  0.00000000000E+00  0.20296275669E+04  0.20296275669E+04  0.00000000000E+00 0. -1.
         -2   -1    0    0    0  501 -0.00000000000E+00 -0.00000000000E+00 -0.41025646099E+03  0.41025646099E+03  0.00000000000E+00 0.  1.
         23    2    1    2    0    0  0.61315907090E+03  0.67192174566E+03  0.85496566828E+03  0.12517095661E+04  0.91474944040E+02 0.  0.
         11    1    3    3    0    0  0.19883124496E+03  0.17423295976E+03  0.28881563741E+03  0.39154241233E+03  0.00000000000E+00 0. -1.
        -11    1    3    3    0    0  0.41432782594E+03  0.49768878590E+03  0.56615003088E+03  0.86016715377E+03  0.00000000000E+00 0.  1.
         22    1    1    2    0    0 -0.61315907090E+03 -0.67192174566E+03  0.76440543758E+03  0.11881744617E+04  0.00000000000E+00 0.  1.
<mgrwt>
<rscale>  0 0.18250127E+04</rscale>
<asrwt>0</asrwt>
<pdfrwt beam="1">  1        2 0.31225039E+00 0.18250127E+04</pdfrwt>
<pdfrwt beam="2">  1       -2 0.63116380E-01 0.18250127E+04</pdfrwt>
<totfact> 0.14092271E+01</totfact>
</mgrwt>
</event>
<event>
 6    1  0.2238133E-007  0.1960127E+04  0.7818608E-02  0.8625493E-01
         -2   -1    0    0    0  501 -0.00000000000E+00  0.00000000000E+00  0.53824792523E+03  0.53824792523E+03  0.00000000000E+00 0.  1.
          2   -1    0    0  501    0  0.00000000000E+00 -0.00000000000E+00 -0.17845399923E+04  0.17845399923E+04  0.00000000000E+00 0. -1.
         23    2    1    2    0    0 -0.85609837789E+03 -0.42768989155E+03 -0.38562233084E+03  0.10357077060E+04  0.90348183903E+02 0.  0.
         13    1    3    3    0    0 -0.27084856091E+03 -0.16149344337E+03 -0.89139241040E+02  0.32769632206E+03  0.00000000000E+00 0. -1.
        -13    1    3    3    0    0 -0.58524981698E+03 -0.26619644818E+03 -0.29648308980E+03  0.70801138397E+03  0.00000000000E+00 0.  1.
         22    1    1    2    0    0  0.85609837789E+03  0.42768989155E+03 -0.86066973621E+03  0.12870802115E+04  0.00000000000E+00 0. -1.
<mgrwt>
<rscale>  0 0.19601275E+04</rscale>
<asrwt>0</asrwt>
<pdfrwt beam="1">  1        2 0.27454461E+00 0.19601275E+04</pdfrwt>
<pdfrwt beam="2">  1       -2 0.82807373E-01 0.19601275E+04</pdfrwt>
<totfact> 0.10488212E+01</totfact>
</mgrwt>
</event>
<event>
 6    1  0.2238133E-007  0.2700860E+04  0.7818608E-02  0.8334726E-01
          2   -1    0    0  501    0  0.00000000000E+00  0.00000000000E+00  0.15045684185E+04  0.15045684185E+04  0.00000000000E+00 0. -1.
         -2   -1    0    0    0  501 -0.00000000000E+00 -0.00000000000E+00 -0.12120824887E+04  0.12120824887E+04  0.00000000000E+00 0.  1.
         23    2    1    2    0    0  0.80344774905E+03  0.71627499777E+03  0.96415929680E+03  0.14479022048E+04  0.90771620388E+02 0.  0.
         13    1    3    3    0    0  0.12739161717E+03  0.12246879352E+03  0.11616199191E+03  0.21147301927E+03  0.00000000000E+00 0. -1.
        -13    1    3    3    0    0  0.67605613188E+03  0.59380620425E+03  0.84799730489E+03  0.12364291855E+04  0.00000000000E+00 0.  1.
         22    1    1    2    0    0 -0.80344774905E+03 -0.71627499777E+03 -0.67167336700E+03  0.12687487024E+04  0.00000000000E+00 0.  1.
<mgrwt>
<rscale>  0 0.27008599E+04</rscale>
<asrwt>0</asrwt>
<pdfrwt beam="1">  1        2 0.23147206E+00 0.27008599E+04</pdfrwt>
<pdfrwt beam="2">  1       -2 0.18647423E+00 0.27008599E+04</pdfrwt>
<totfact> 0.18126507E+00</totfact>
</mgrwt>
</event>
<event>
 6    1  0.2238133E-007  0.5779582E+04  0.7818608E-02  0.7718348E-01
         -2   -1    0    0    0  501 -0.00000000000E+00  0.00000000000E+00  0.23063132193E+04  0.23063132193E+04  0.00000000000E+00 0.  1.
          2   -1    0    0  501    0  0.00000000000E+00 -0.00000000000E+00 -0.36208834301E+04  0.36208834301E+04  0.00000000000E+00 0. -1.
         23    2    1    2    0    0  0.67471695727E+03  0.44760733822E+03 -0.35015742611E+04  0.35951198887E+04  0.90936277209E+02 0.  0.
         11    1    3    3    0    0  0.65993284997E+03  0.42004966832E+03 -0.33237700511E+04  0.34145864234E+04  0.00000000000E+00 0. -1.
        -11    1    3    3    0    0  0.14784107302E+02  0.27557669899E+02 -0.17780421004E+03  0.18053346534E+03  0.00000000000E+00 0.  1.
         22    1    1    2    0    0 -0.67471695727E+03 -0.44760733822E+03  0.21870040503E+04  0.23320767606E+04  0.00000000000E+00 0.  1.
<mgrwt>
<rscale>  0 0.57795818E+04</rscale>
<asrwt>0</asrwt>
<pdfrwt beam="1">  1        2 0.55705899E+00 0.57795818E+04</pdfrwt>
<pdfrwt beam="2">  1       -2 0.35481742E+00 0.57795818E+04</pdfrwt>
<totfact> 0.66057562E-03</totfact>
</mgrwt>
</event>
<event>
 6    1  0.2238133E-007  0.2987736E+04  0.7818608E-02  0.8247242E-01
         -2   -1    0    0    0  501 -0.00000000000E+00  0.00000000000E+00  0.10224281232E+04  0.10224281232E+04  0.00000000000E+00 0.  1.
          2   -1    0    0  501    0  0.00000000000E+00 -0.00000000000E+00 -0.21826874943E+04  0.21826874943E+04  0.00000000000E+00 0. -1.
         23    2    1    2    0    0  0.49185049838E+03  0.13186489931E+04 -0.11135385128E+04  0.17969483979E+04  0.91123242297E+02 0.  0.
         13    1    3    3    0    0  0.18018848540E+03  0.44034968295E+03 -0.32548830861E+03  0.57647061728E+03  0.00000000000E+00 0.  1.
        -13    1    3    3    0    0  0.31166201298E+03  0.87829931019E+03 -0.78805020416E+03  0.12204777806E+04  0.00000000000E+00 0. -1.
         22    1    1    2    0    0 -0.49185049838E+03 -0.13186489931E+04 -0.46720858258E+02  0.14081672196E+04  0.00000000000E+00 0. -1.
<mgrwt>
<rscale>  0 0.29877356E+04</rscale>
<asrwt>0</asrwt>
<pdfrwt beam="1">  1        2 0.33579807E+00 0.29877356E+04</pdfrwt>
<pdfrwt beam="2">  1       -2 0.15729664E+00 0.29877356E+04</pdfrwt>
<totfact> 0.11938555E+00</totfact>
</mgrwt>
</event>
<event>
 6    1  0.2238133E-007  0.2461298E+04  0.7818608E-02  0.8416905E-01
         -2   -1    0    0    0  501 -0.00000000000E+00  0.00000000000E+00  0.90859983838E+03  0.90859983838E+03  0.00000000000E+00 0.  1.
          2   -1    0    0  501    0  0.00000000000E+00 -0.00000000000E+00 -0.16668467800E+04  0.16668467800E+04  0.00000000000E+00 0. -1.
         23    2    1    2    0    0 -0.80771044130E+03  0.46959873223E+03  0.45560952896E+03  0.10436611708E+04  0.93431634010E+02 0.  0.
         11    1    3    3    0    0 -0.69338193177E+03  0.38698465460E+03  0.35168472392E+03  0.86845712113E+03  0.00000000000E+00 0. -1.
        -11    1    3    3    0    0 -0.11432850953E+03  0.82614077633E+02  0.10392480504E+03  0.17520404966E+03  0.00000000000E+00 0.  1.
         22    1    1    2    0    0  0.80771044130E+03 -0.46959873223E+03 -0.12138564706E+04  0.15317854476E+04  0.00000000000E+00 0. -1.
<mgrwt>
<rscale>  0 0.24612978E+04</rscale>
<asrwt>0</asrwt>
<pdfrwt beam="1">  1        2 0.25643796E+00 0.24612978E+04</pdfrwt>
<pdfrwt beam="2">  1       -2 0.13978459E+00 0.24612978E+04</pdfrwt>
<totfact> 0.33020712E+00</totfact>
</mgrwt>
</event>
<event>
 6    1  0.2238133E-007  0.4462456E+04  0.7818608E-02  0.7917243E-01
         -2   -1    0    0    0  501 -0.00000000000E+00  0.00000000000E+00  0.20985911226E+04  0.20985911226E+04  0.00000000000E+00 0.  1.
          2   -1    0    0  501    0  0.00000000000E+00 -0.00000000000E+00 -0.23722475541E+04  0.23722475541E+04  0.00000000000E+00 0. -1.
         23    2    1    2    0    0  0.10718102244E+04 -0.85968977796E+03  0.16232116776E+04  0.21286276924E+04  0.91629858362E+02 0.  0.
         13    1    3    3    0    0  0.95186677542E+03 -0.78922477476E+03  0.14284008443E+04  0.18892472245E+04  0.00000000000E+00 0.  1.
        -13    1    3    3    0    0  0.11994344900E+03 -0.70465003203E+02  0.19481083329E+03  0.23938046788E+03  0.00000000000E+00 0. -1.
         22    1    1    2    0    0 -0.10718102244E+04  0.85968977796E+03 -0.18968681092E+04  0.23422109843E+04  0.00000000000E+00 0. -1.
<mgrwt>
<rscale>  0 0.44624557E+04</rscale>
<asrwt>0</asrwt>
<pdfrwt beam="1">  1        2 0.36496116E+00 0.44624557E+04</pdfrwt>
<pdfrwt beam="2">  1       -2 0.32286017E+00 0.44624557E+04</pdfrwt>
<totfact> 0.72045952E-02</totfact>
</mgrwt>
</event>
<event>
 6    1  0.2238133E-007  0.3505500E+04  0.7818608E-02  0.8112488E-01
          2   -1    0    0  501    0  0.00000000000E+00  0.00000000000E+00  0.28403099538E+04  0.28403099538E+04  0.00000000000E+00 0. -1.
         -2   -1    0    0    0  501 -0.00000000000E+00 -0.00000000000E+00 -0.10816185995E+04  0.10816185995E+04  0.00000000000E+00 0.  1.
         23    2    1    2    0    0 -0.57830345041E+03 -0.39112185514E+03 -0.91736866986E+03  0.11562987083E+04  0.89723129920E+02 0.  0.
         13    1    3    3    0    0 -0.39029599676E+03 -0.26247145135E+03 -0.54628775034E+03  0.72086929053E+03  0.00000000000E+00 0. -1.
        -13    1    3    3    0    0 -0.18800745365E+03 -0.12865040380E+03 -0.37108091952E+03  0.43542941777E+03  0.00000000000E+00 0.  1.
         22    1    1    2    0    0  0.57830345041E+03  0.39112185514E+03  0.26760600242E+04  0.27656298449E+04  0.00000000000E+00 0. -1.
<mgrwt>
<rscale>  0 0.35054997E+04</rscale>
<asrwt>0</asrwt>
<pdfrwt beam="1">  1        2 0.43697076E+00 0.35054997E+04</pdfrwt>
<pdfrwt beam="2">  1       -2 0.16640286E+00 0.35054997E+04</pdfrwt>
<totfact> 0.40581098E-01</totfact>
</mgrwt>
</event>
<event>
 6    1  0.2238133E-007  0.1653736E+04  0.7818608E-02  0.8788199E-01
         -2   -1    0    0    0  501 -0.00000000000E+00  0.00000000000E+00  0.10262013174E+04  0.10262013174E+04  0.00000000000E+00 0.  1.
          2   -1    0    0  501    0  0.00000000000E+00 -0.00000000000E+00 -0.66625389850E+03  0.66625389850E+03  0.00000000000E+00 0. -1.
         23    2    1    2    0    0  0.73052973232E+03  0.35785429168E+03  0.31732265548E+03  0.87786927544E+03  0.90705089178E+02 0.  0.
         11    1    3    3    0    0  0.16762368630E+03  0.11903294293E+03  0.57442559911E+02  0.21346238404E+03  0.00000000000E+00 0.  1.
        -11    1    3    3    0    0  0.56290604602E+03  0.23882134874E+03  0.25988009556E+03  0.66440689139E+03  0.00000000000E+00 0. -1.
         22    1    1    2    0    0 -0.73052973232E+03 -0.35785429168E+03  0.42624763391E+02  0.81458594042E+03  0.00000000000E+00 0. -1.
<mgrwt>
<rscale>  0 0.16537359E+04</rscale>
<asrwt>0</asrwt>
<pdfrwt beam="1">  1        2 0.10250060E+00 0.16537359E+04</pdfrwt>
<pdfrwt beam="2">  1       -2 0.15787713E+00 0.16537359E+04</pdfrwt>
<totfact> 0.10868914E+01</totfact>
</mgrwt>
</event>
<event>
 6    1  0.2238133E-007  0.2053212E+04  0.7818608E-02  0.8582139E-01
         -1   -1    0    0    0  501 -0.00000000000E+00  0.00000000000E+00  0.13683910960E+04  0.13683910960E+04  0.00000000000E+00 0.  1.
          1   -1    0    0  501    0  0.00000000000E+00 -0.00000000000E+00 -0.77018914099E+03  0.77018914099E+03  0.00000000000E+00 0. -1.
         23    2    1    2    0    0 -0.78567547920E+03  0.82345055127E+02  0.97912982185E+03  0.12615553192E+04  0.93594597325E+02 0.  0.
         13    1    3    3    0    0 -0.14609458881E+03 -0.16874672826E+02  0.20923105901E+03  0.25574600587E+03  0.00000000000E+00 0.  1.
        -13    1    3    3    0    0 -0.63958089038E+03  0.99219727953E+02  0.76989876283E+03  0.10058093133E+04  0.00000000000E+00 0. -1.
         22    1    1    2    0    0  0.78567547920E+03 -0.82345055127E+02 -0.38092786684E+03  0.87702491780E+03  0.00000000000E+00 0. -1.
<mgrwt>
<rscale>  0 0.20532121E+04</rscale>
<asrwt>0</asrwt>
<pdfrwt beam="1">  1        1 0.11849064E+00 0.20532121E+04</pdfrwt>
<pdfrwt beam="2">  1       -1 0.21052171E+00 0.20532121E+04</pdfrwt>
<totfact> 0.27656496E+00</totfact>
</mgrwt>
</event>
<event>
 6    1  0.2238133E-007  0.2095016E+04  0.7818608E-02  0.8563442E-01
         -2   -1    0    0    0  501 -0.00000000000E+00  0.00000000000E+00  0.12863403224E+04  0.12863403224E+04  0.00000000000E+00 0.  1.
          2   -1    0    0  501    0  0.00000000000E+00 -0.00000000000E+00 -0.85301924420E+03  0.85301924420E+03  0.00000000000E+00 0. -1.
         23    2    1    2    0    0  0.86342612296E+03  0.47695313665E+03 -0.13712305378E+03  0.99988799078E+03  0.89354898373E+02 0.  0.
         11    1    3    3    0    0  0.68353858128E+03  0.41511620567E+03 -0.12331740150E+03  0.80916848544E+03  0.00000000000E+00 0. -1.
        -11    1    3    3    0    0  0.17988754168E+03  0.61836930975E+02 -0.13805652277E+02  0.19071950535E+03  0.00000000000E+00 0.  1.
         22    1    1    2    0    0 -0.86342612296E+03 -0.47695313665E+03  0.57044413197E+03  0.11394715758E+04  0.00000000000E+00 0. -1.
<mgrwt>
<rscale>  0 0.20950160E+04</rscale>
<asrwt>0</asrwt>
<pdfrwt beam="1">  1        2 0.13123373E+00 0.20950160E+04</pdfrwt>
<pdfrwt beam="2">  1       -2 0.19789851E+00 0.20950160E+04</pdfrwt>
<totfact> 0.39965672E+00</totfact>
</mgrwt>
</event>
<event>
 6    1  0.2238133E-007  0.1889279E+04  0.7818608E-02  0.8660211E-01
          3   -1    0    0  501    0  0.00000000000E+00  0.00000000000E+00  0.26367662242E+04  0.26367662242E+04  0.00000000000E+00 0. -1.
         -3   -1    0    0    0  501 -0.00000000000E+00 -0.00000000000E+00 -0.33842354715E+03  0.33842354715E+03  0.00000000000E+00 0.  1.
         23    2    1    2    0    0 -0.31853886029E+03 -0.59340299686E+03  0.21907365500E+04  0.22931537014E+04  0.75054276183E+02 0.  0.
         13    1    3    3    0    0 -0.23969699257E+03 -0.46404271984E+03  0.17938065290E+04  0.18682965925E+04  0.00000000000E+00 0. -1.
        -13    1    3    3    0    0 -0.78841867715E+02 -0.12936027702E+03  0.39693002099E+03  0.42485710885E+03  0.00000000000E+00 0.  1.
         22    1    1    2    0    0  0.31853886029E+03  0.59340299686E+03  0.10760612705E+03  0.68203606999E+03  0.00000000000E+00 0. -1.
<mgrwt>
<rscale>  0 0.18892790E+04</rscale>
<asrwt>0</asrwt>
<pdfrwt beam="1">  1        3 0.40565633E+00 0.18892790E+04</pdfrwt>
<pdfrwt beam="2">  1       -3 0.52065163E-01 0.18892790E+04</pdfrwt>
<totfact> 0.93339492E-02</totfact>
</mgrwt>
</event>
<event>
 6    1  0.2238133E-007  0.1437579E+04  0.7818608E-02  0.8927058E-01
         -2   -1    0    0    0  501 -0.00000000000E+00  0.00000000000E+00  0.27626136270E+03  0.27626136270E+03  0.00000000000E+00 0.  1.
          2   -1    0    0  501    0  0.00000000000E+00 -0.00000000000E+00 -0.18701786255E+04  0.18701786255E+04  0.00000000000E+00 0. -1.
         23    2    1    2    0    0 -0.56509925027E+03  0.39786381060E+03 -0.52084921408E+03  0.87007491048E+03  0.90075921291E+02 0.  0.
         11    1    3    3    0    0 -0.33876583353E+03  0.21328115407E+03 -0.25140170351E+03  0.47270916764E+03  0.00000000000E+00 0.  1.
        -11    1    3    3    0    0 -0.22633341675E+03  0.18458265653E+03 -0.26944751058E+03  0.39736574284E+03  0.00000000000E+00 0. -1.
         22    1    1    2    0    0  0.56509925027E+03 -0.39786381060E+03 -0.10730680487E+04  0.12763650777E+04  0.00000000000E+00 0.  1.
<mgrwt>
<rscale>  0 0.14375787E+04</rscale>
<asrwt>0</asrwt>
<pdfrwt beam="1">  1        2 0.28771978E+00 0.14375787E+04</pdfrwt>
<pdfrwt beam="2">  1       -2 0.42501750E-01 0.14375787E+04</pdfrwt>
<totfact> 0.40187673E+01</totfact>
</mgrwt>
</event>
<event>
 6    1  0.2238133E-007  0.1170990E+04  0.7818608E-02  0.9138635E-01
          2   -1    0    0  501    0  0.00000000000E+00  0.00000000000E+00  0.44194233078E+04  0.44194233078E+04  0.00000000000E+00 0. -1.
         -2   -1    0    0    0  501 -0.00000000000E+00 -0.00000000000E+00 -0.77567653609E+02  0.77567653609E+02  0.00000000000E+00 0.  1.
         23    2    1    2    0    0 -0.34301308835E+03  0.11374412279E+03  0.39354883606E+04  0.39531802576E+04  0.94709073380E+02 0.  0.
         11    1    3    3    0    0 -0.25677305605E+03  0.12171908579E+03  0.27949060972E+04  0.28093145125E+04  0.00000000000E+00 0. -1.
        -11    1    3    3    0    0 -0.86240032305E+02 -0.79749629953E+01  0.11405822635E+04  0.11438657451E+04  0.00000000000E+00 0.  1.
         22    1    1    2    0    0  0.34301308835E+03 -0.11374412279E+03  0.40636729358E+03  0.54381070378E+03  0.00000000000E+00 0.  1.
<mgrwt>
<rscale>  0 0.11709898E+04</rscale>
<asrwt>0</asrwt>
<pdfrwt beam="1">  1        2 0.67991108E+00 0.11709898E+04</pdfrwt>
<pdfrwt beam="2">  1       -2 0.11933489E-01 0.11709898E+04</pdfrwt>
<totfact> 0.79301317E+00</totfact>
</mgrwt>
</event>
<event>
 6    1  0.2238133E-007  0.1424502E+04  0.7818608E-02  0.8936271E-01
          2   -1    0    0  501    0  0.00000000000E+00  0.00000000000E+00  0.16793039007E+04  0.16793039007E+04  0.00000000000E+00 0. -1.
         -2   -1    0    0    0  501 -0.00000000000E+00 -0.00000000000E+00 -0.30209020486E+03  0.30209020486E+03  0.00000000000E+00 0.  1.
         23    2    1    2    0    0  0.46273005873E+02  0.14552515507E+03  0.16549457474E+04  0.16644495453E+04  0.90708876122E+02 0.  0.
         11    1    3    3    0    0  0.11374538187E+02  0.34838934312E+02  0.12923364471E+03  0.13432969287E+03  0.00000000000E+00 0. -1.
        -11    1    3    3    0    0  0.34898467686E+02  0.11068622076E+03  0.15257121027E+04  0.15301198524E+04  0.00000000000E+00 0.  1.
         22    1    1    2    0    0 -0.46273005873E+02 -0.14552515507E+03 -0.27773205155E+03  0.31694456027E+03  0.00000000000E+00 0.  1.
<mgrwt>
<rscale>  0 0.14245017E+04</rscale>
<asrwt>0</asrwt>
<pdfrwt beam="1">  1        2 0.25835444E+00 0.14245017E+04</pdfrwt>
<pdfrwt beam="2">  1       -2 0.46475417E-01 0.14245017E+04</pdfrwt>
<totfact> 0.42940946E+01</totfact>
</mgrwt>
</event>
<event>
 6    1  0.2238133E-007  0.1212545E+04  0.7818608E-02  0.9101946E-01
         -2   -1    0    0    0  501 -0.00000000000E+00  0.00000000000E+00  0.50292108419E+03  0.50292108419E+03  0.00000000000E+00 0.  1.
          2   -1    0    0  501    0  0.00000000000E+00 -0.00000000000E+00 -0.73086318829E+03  0.73086318829E+03  0.00000000000E+00 0. -1.
         23    2    1    2    0    0 -0.55772447272E+03  0.22192816663E+03 -0.17055458320E+03  0.63079005513E+03  0.92187467591E+02 0.  0.
         13    1    3    3    0    0 -0.10806311225E+03  0.31622019629E+02 -0.69035532379E+02  0.13207381681E+03  0.00000000000E+00 0.  1.
        -13    1    3    3    0    0 -0.44966136047E+03  0.19030614700E+03 -0.10151905083E+03  0.49871623832E+03  0.00000000000E+00 0. -1.
         22    1    1    2    0    0  0.55772447272E+03 -0.22192816663E+03 -0.57387520898E+02  0.60299421736E+03  0.00000000000E+00 0.  1.
<mgrwt>
<rscale>  0 0.12125453E+04</rscale>
<asrwt>0</asrwt>
<pdfrwt beam="1">  1        2 0.11244049E+00 0.12125453E+04</pdfrwt>
<pdfrwt beam="2">  1       -2 0.77372475E-01 0.12125453E+04</pdfrwt>
<totfact> 0.56983669E+01</totfact>
</mgrwt>
</event>
<event>
 6    1  0.2238133E-007  0.2638127E+04  0.7818608E-02  0.8355364E-01
         -2   -1    0    0    0  501 -0.00000000000E+00  0.00000000000E+00  0.53910159317E+03  0.53910159317E+03  0.00000000000E+00 0.  1.
          2   -1    0    0  501    0  0.00000000000E+00 -0.00000000000E+00 -0.32274600487E+04  0.32274600487E+04  0.00000000000E+00 0. -1.
         23    2    1    2    0    0 -0.75472702259E+03  0.44699878145E+03 -0.27492977390E+04  0.28872810350E+04  0.91284875261E+02 0.  0.
         11    1    3    3    0    0 -0.33979704020E+03  0.25101545609E+03 -0.13692724735E+04  0.14329612327E+04  0.00000000000E+00 0. -1.
        -11    1    3    3    0    0 -0.41492998238E+03  0.19598332536E+03 -0.13800252655E+04  0.14543198023E+04  0.00000000000E+00 0.  1.
         22    1    1    2    0    0  0.75472702259E+03 -0.44699878145E+03  0.60939283475E+02  0.87928060681E+03  0.00000000000E+00 0.  1.
<mgrwt>
<rscale>  0 0.26381273E+04</rscale>
<asrwt>0</asrwt>
<pdfrwt beam="1">  1        2 0.49653232E+00 0.26381273E+04</pdfrwt>
<pdfrwt beam="2">  1       -2 0.82938706E-01 0.26381273E+04</pdfrwt>
<totfact> 0.13978073E+00</totfact>
</mgrwt>
</event>
<event>
 6    1  0.2238133E-007  0.2153575E+04  0.7818608E-02  0.8538003E-01
          2   -1    0    0  501    0  0.00000000000E+00  0.00000000000E+00  0.10266572198E+04  0.10266572198E+04  0.00000000000E+00 0. -1.
         -2   -1    0    0    0  501 -0.00000000000E+00 -0.00000000000E+00 -0.11293658242E+04  0.11293658242E+04  0.00000000000E+00 0.  1.
         23    2    1    2    0    0 -0.35293791028E+03  0.62384466249E+03 -0.85330160155E+03  0.11181708490E+04  0.91842761870E+02 0.  0.
         13    1    3    3    0    0 -0.10928536935E+03  0.20360525788E+03 -0.21146186167E+03  0.31323236092E+03  0.00000000000E+00 0.  1.
        -13    1    3    3    0    0 -0.24365254093E+03  0.42023940461E+03 -0.64183973988E+03  0.80493848807E+03  0.00000000000E+00 0. -1.
         22    1    1    2    0    0  0.35293791028E+03 -0.62384466249E+03  0.75059299706E+03  0.10378521950E+04  0.00000000000E+00 0. -1.
<mgrwt>
<rscale>  0 0.21535752E+04</rscale>
<asrwt>0</asrwt>
<pdfrwt beam="1">  1        2 0.15794727E+00 0.21535752E+04</pdfrwt>
<pdfrwt beam="2">  1       -2 0.17374859E+00 0.21535752E+04</pdfrwt>
<totfact> 0.44547227E+00</totfact>
</mgrwt>
</event>
<event>
 6    1  0.2238133E-007  0.2426027E+04  0.7818608E-02  0.8429823E-01
          2   -1    0    0  501    0  0.00000000000E+00  0.00000000000E+00  0.21711975289E+04  0.21711975289E+04  0.00000000000E+00 0. -1.
         -2   -1    0    0    0  501 -0.00000000000E+00 -0.00000000000E+00 -0.67769119467E+03  0.67769119467E+03  0.00000000000E+00 0.  1.
         23    2    1    2    0    0  0.89930538085E+03  0.10742033339E+02 -0.20470326220E+03  0.92722762111E+03  0.94773817476E+02 0.  0.
         13    1    3    3    0    0  0.16464171634E+03  0.28606554082E+02 -0.64313331107E+02  0.17905706983E+03  0.00000000000E+00 0. -1.
        -13    1    3    3    0    0  0.73466366451E+03 -0.17864520744E+02 -0.14038993110E+03  0.74817055128E+03  0.00000000000E+00 0.  1.
         22    1    1    2    0    0 -0.89930538085E+03 -0.10742033339E+02  0.16982095964E+04  0.19216611025E+04  0.00000000000E+00 0. -1.
<mgrwt>
<rscale>  0 0.24260267E+04</rscale>
<asrwt>0</asrwt>
<pdfrwt beam="1">  1        2 0.33403039E+00 0.24260267E+04</pdfrwt>
<pdfrwt beam="2">  1       -2 0.10426018E+00 0.24260267E+04</pdfrwt>
<totfact> 0.35956116E+00</totfact>
</mgrwt>
</event>
<event>
 6    1  0.2238133E-007  0.2612412E+04  0.7818608E-02  0.8363997E-01
          2   -1    0    0  501    0  0.00000000000E+00  0.00000000000E+00  0.35009186449E+04  0.35009186449E+04  0.00000000000E+00 0. -1.
         -2   -1    0    0    0  501 -0.00000000000E+00 -0.00000000000E+00 -0.48735036527E+03  0.48735036527E+03  0.00000000000E+00 0.  1.
         23    2    1    2    0    0 -0.95973729728E+03  0.87999217033E+03  0.16326135170E+04  0.20902389904E+04  0.90499952204E+02 0.  0.
         11    1    3    3    0    0 -0.71485349526E+03  0.63877574910E+03  0.11392470269E+04  0.14889371261E+04  0.00000000000E+00 0. -1.
        -11    1    3    3    0    0 -0.24488380202E+03  0.24121642124E+03  0.49336649012E+03  0.60130186424E+03  0.00000000000E+00 0.  1.
         22    1    1    2    0    0  0.95973729728E+03 -0.87999217033E+03  0.13809547627E+04  0.18980300198E+04  0.00000000000E+00 0. -1.
<mgrwt>
<rscale>  0 0.26124119E+04</rscale>
<asrwt>0</asrwt>
<pdfrwt beam="1">  1        2 0.53860285E+00 0.26124119E+04</pdfrwt>
<pdfrwt beam="2">  1       -2 0.74976981E-01 0.26124119E+04</pdfrwt>
<totfact> 0.11469614E+00</totfact>
</mgrwt>
</event>
<event>
 6    1  0.2238133E-007  0.1259282E+04  0.7818608E-02  0.9062493E-01
         -1   -1    0    0    0  501 -0.00000000000E+00  0.00000000000E+00  0.22139111709E+03  0.22139111709E+03  0.00000000000E+00 0.  1.
          1   -1    0    0  501    0  0.00000000000E+00 -0.00000000000E+00 -0.17907132851E+04  0.17907132851E+04  0.00000000000E+00 0. -1.
         23    2    1    2    0    0  0.98783100289E+02  0.63731614169E+02 -0.17717290561E+04  0.17780352502E+04  0.92550976330E+02 0.  0.
         11    1    3    3    0    0 -0.13459319375E+02 -0.52417091019E+01 -0.32484685162E+03  0.32516781176E+03  0.00000000000E+00 0. -1.
        -11    1    3    3    0    0  0.11224241966E+03  0.68973323271E+02 -0.14468822045E+04  0.14528674385E+04  0.00000000000E+00 0.  1.
         22    1    1    2    0    0 -0.98783100289E+02 -0.63731614169E+02  0.20240688811E+03  0.23406915197E+03  0.00000000000E+00 0.  1.
<mgrwt>
<rscale>  0 0.12592824E+04</rscale>
<asrwt>0</asrwt>
<pdfrwt beam="1">  1        1 0.27549435E+00 0.12592824E+04</pdfrwt>
<pdfrwt beam="2">  1       -1 0.34060172E-01 0.12592824E+04</pdfrwt>
<totfact> 0.33208769E+01</totfact>
</mgrwt>
</event>
<event>
 6    1  0.2238133E-007  0.7592599E+03  0.7818608E-02  0.9620934E-01
          2   -1    0    0  501    0  0.00000000000E+00  0.00000000000E+00  0.71953849989E+03  0.71953849989E+03  0.00000000000E+00 0. -1.
         -2   -1    0    0    0  501 -0.00000000000E+00 -0.00000000000E+00 -0.20029352635E+03  0.20029352635E+03  0.00000000000E+00 0.  1.
         23    2    1    2    0    0  0.16179345988E+03  0.22819514634E+03  0.56419771539E+03  0.63651083487E+03  0.92611189311E+02 0.  0.
         13    1    3    3    0    0  0.68430002177E+02  0.13345025148E+03  0.38624174128E+03  0.41433599593E+03  0.00000000000E+00 0. -1.
        -13    1    3    3    0    0  0.93363457708E+02  0.94744894861E+02  0.17795597411E+03  0.22217483894E+03  0.00000000000E+00 0.  1.
         22    1    1    2    0    0 -0.16179345988E+03 -0.22819514634E+03 -0.44952741852E+02  0.28332119136E+03  0.00000000000E+00 0.  1.
<mgrwt>
<rscale>  0 0.75925991E+03</rscale>
<asrwt>0</asrwt>
<pdfrwt beam="1">  1        2 0.11069823E+00 0.75925991E+03</pdfrwt>
<pdfrwt beam="2">  1       -2 0.30814389E-01 0.75925991E+03</pdfrwt>
<totfact> 0.38789574E+02</totfact>
</mgrwt>
</event>
<event>
 6    1  0.2238133E-007  0.3199516E+04  0.7818608E-02  0.8188945E-01
          2   -1    0    0  501    0  0.00000000000E+00  0.00000000000E+00  0.12775007146E+04  0.12775007146E+04  0.00000000000E+00 0. -1.
         -2   -1    0    0    0  501 -0.00000000000E+00 -0.00000000000E+00 -0.20033064455E+04  0.20033064455E+04  0.00000000000E+00 0.  1.
         23    2    1    2    0    0 -0.15598070121E+04  0.17107974827E+03 -0.67542458749E+03  0.17108375888E+04  0.92199168655E+02 0.  0.
         13    1    3    3    0    0 -0.57312145030E+03  0.18698108098E+02 -0.25348746270E+03  0.62695590737E+03  0.00000000000E+00 0. -1.
        -13    1    3    3    0    0 -0.98668556177E+03  0.15238164018E+03 -0.42193712480E+03  0.10838816814E+04  0.00000000000E+00 0.  1.
         22    1    1    2    0    0  0.15598070121E+04 -0.17107974827E+03 -0.50381143382E+02  0.15699695713E+04  0.00000000000E+00 0. -1.
<mgrwt>
<rscale>  0 0.31995158E+04</rscale>
<asrwt>0</asrwt>
<pdfrwt beam="1">  1        2 0.19653857E+00 0.31995158E+04</pdfrwt>
<pdfrwt beam="2">  1       -2 0.30820099E+00 0.31995158E+04</pdfrwt>
<totfact> 0.40613640E-01</totfact>
</mgrwt>
</event>
<event>
 6    1  0.2238133E-007  0.4548415E+04  0.7818608E-02  0.7902215E-01
         -2   -1    0    0    0  501 -0.00000000000E+00  0.00000000000E+00  0.17679134281E+04  0.17679134281E+04  0.00000000000E+00 0.  1.
          2   -1    0    0  501    0  0.00000000000E+00 -0.00000000000E+00 -0.29254935230E+04  0.29254935230E+04  0.00000000000E+00 0. -1.
         23    2    1    2    0    0 -0.18716653421E+04  0.74818800133E+03 -0.16637086120E+04  0.26151667066E+04  0.90852186105E+02 0.  0.
         13    1    3    3    0    0 -0.12348224150E+04  0.48555502332E+03 -0.11496288428E+04  0.17556185672E+04  0.00000000000E+00 0.  1.
        -13    1    3    3    0    0 -0.63684292709E+03  0.26263297801E+03 -0.51407976922E+03  0.85954813945E+03  0.00000000000E+00 0. -1.
         22    1    1    2    0    0  0.18716653421E+04 -0.74818800133E+03  0.50612851710E+03  0.20782402445E+04  0.00000000000E+00 0.  1.
<mgrwt>
<rscale>  0 0.45484148E+04</rscale>
<asrwt>0</asrwt>
<pdfrwt beam="1">  1        2 0.45007592E+00 0.45484148E+04</pdfrwt>
<pdfrwt beam="2">  1       -2 0.27198668E+00 0.45484148E+04</pdfrwt>
<totfact> 0.68896822E-02</totfact>
</mgrwt>
</event>
<event>
 6    1  0.2238133E-007  0.4433243E+04  0.7818608E-02  0.7922429E-01
          2   -1    0    0  501    0  0.00000000000E+00  0.00000000000E+00  0.40207525614E+04  0.40207525614E+04  0.00000000000E+00 0. -1.
         -2   -1    0    0    0  501 -0.00000000000E+00 -0.00000000000E+00 -0.12220125851E+04  0.12220125851E+04  0.00000000000E+00 0.  1.
         23    2    1    2    0    0  0.18678894204E+04 -0.50504034661E+03  0.12340634219E+03  0.19410251972E+04  0.90956322243E+02 0.  0.
         11    1    3    3    0    0  0.11964539350E+04 -0.36677711561E+03  0.67624657888E+02  0.12532360374E+04  0.00000000000E+00 0.  1.
        -11    1    3    3    0    0  0.67143548538E+03 -0.13826323100E+03  0.55781684299E+02  0.68778915983E+03  0.00000000000E+00 0. -1.
         22    1    1    2    0    0 -0.18678894204E+04  0.50504034661E+03  0.26753336342E+04  0.33017399493E+04  0.00000000000E+00 0. -1.
<mgrwt>
<rscale>  0 0.44332427E+04</rscale>
<asrwt>0</asrwt>
<pdfrwt beam="1">  1        2 0.61857731E+00 0.44332427E+04</pdfrwt>
<pdfrwt beam="2">  1       -2 0.18800194E+00 0.44332427E+04</pdfrwt>
<totfact> 0.39909695E-02</totfact>
</mgrwt>
</event>
<event>
 6    1  0.2238133E-007  0.2466473E+04  0.7818608E-02  0.8415028E-01
         -1   -1    0    0    0  501 -0.00000000000E+00  0.00000000000E+00  0.56596858573E+03  0.56596858573E+03  0.00000000000E+00 0.  1.
          1   -1    0    0  501    0  0.00000000000E+00 -0.00000000000E+00 -0.26872031288E+04  0.26872031288E+04  0.00000000000E+00 0. -1.
         23    2    1    2    0    0  0.11991304165E+04 -0.25259216106E+03 -0.90332236866E+03  0.15254487563E+04  0.96364157023E+02 0.  0.
         11    1    3    3    0    0  0.95998902081E+03 -0.23841360585E+03 -0.74448401207E+03  0.12380130903E+04  0.00000000000E+00 0. -1.
        -11    1    3    3    0    0  0.23914139573E+03 -0.14178555212E+02 -0.15883835659E+03  0.28743566603E+03  0.00000000000E+00 0.  1.
         22    1    1    2    0    0 -0.11991304165E+04  0.25259216106E+03 -0.12179121744E+04  0.17277229582E+04  0.00000000000E+00 0. -1.
<mgrwt>
<rscale>  0 0.24664732E+04</rscale>
<asrwt>0</asrwt>
<pdfrwt beam="1">  1        1 0.41341587E+00 0.24664732E+04</pdfrwt>
<pdfrwt beam="2">  1       -1 0.87072090E-01 0.24664732E+04</pdfrwt>
<totfact> 0.11595212E+00</totfact>
</mgrwt>
</event>
<event>
 6    1  0.2238133E-007  0.3464223E+04  0.7818608E-02  0.8122321E-01
          2   -1    0    0  501    0  0.00000000000E+00  0.00000000000E+00  0.17692881221E+04  0.17692881221E+04  0.00000000000E+00 0. -1.
         -2   -1    0    0    0  501 -0.00000000000E+00 -0.00000000000E+00 -0.16957158529E+04  0.16957158529E+04  0.00000000000E+00 0.  1.
         23    2    1    2    0    0 -0.91657055488E+03  0.13544541904E+03  0.14991966156E+04  0.17647534580E+04  0.91198857058E+02 0.  0.
         11    1    3    3    0    0 -0.66738232298E+03  0.11063341790E+03  0.11646111594E+04  0.13468326068E+04  0.00000000000E+00 0. -1.
        -11    1    3    3    0    0 -0.24918823190E+03  0.24812001141E+02  0.33458545622E+03  0.41792085115E+03  0.00000000000E+00 0.  1.
         22    1    1    2    0    0  0.91657055488E+03 -0.13544541904E+03 -0.14256243464E+04  0.17002505170E+04  0.00000000000E+00 0.  1.
<mgrwt>
<rscale>  0 0.34642228E+04</rscale>
<asrwt>0</asrwt>
<pdfrwt beam="1">  1        2 0.27219817E+00 0.34642228E+04</pdfrwt>
<pdfrwt beam="2">  1       -2 0.26087936E+00 0.34642228E+04</pdfrwt>
<totfact> 0.40757196E-01</totfact>
</mgrwt>
</event>
<event>
 6    1  0.2238133E-007  0.2852162E+04  0.7818608E-02  0.8287255E-01
         -2   -1    0    0    0  501 -0.00000000000E+00  0.00000000000E+00  0.11465650122E+04  0.11465650122E+04  0.00000000000E+00 0.  1.
          2   -1    0    0  501    0  0.00000000000E+00 -0.00000000000E+00 -0.17737385379E+04  0.17737385379E+04  0.00000000000E+00 0. -1.
         23    2    1    2    0    0 -0.74963719690E+03  0.88980013418E+02 -0.15511119966E+04  0.17271834104E+04  0.85678104093E+02 0.  0.
         11    1    3    3    0    0 -0.21118132361E+03 -0.12591058814E+02 -0.41289860469E+03  0.46394109966E+03  0.00000000000E+00 0. -1.
        -11    1    3    3    0    0 -0.53845587328E+03  0.10157107223E+03 -0.11382133919E+04  0.12632423107E+04  0.00000000000E+00 0.  1.
         22    1    1    2    0    0  0.74963719690E+03 -0.88980013418E+02  0.92393847088E+03  0.11931201397E+04  0.00000000000E+00 0.  1.
<mgrwt>
<rscale>  0 0.28521617E+04</rscale>
<asrwt>0</asrwt>
<pdfrwt beam="1">  1        2 0.27288285E+00 0.28521617E+04</pdfrwt>
<pdfrwt beam="2">  1       -2 0.17639462E+00 0.28521617E+04</pdfrwt>
<totfact> 0.14855188E+00</totfact>
</mgrwt>
</event>
<event>
 6    1  0.2238133E-007  0.1034366E+04  0.7818608E-02  0.9271636E-01
          2   -1    0    0  501    0  0.00000000000E+00  0.00000000000E+00  0.13566244060E+04  0.13566244060E+04  0.00000000000E+00 0. -1.
         -2   -1    0    0    0  501 -0.00000000000E+00 -0.00000000000E+00 -0.19716458053E+03  0.19716458053E+03  0.00000000000E+00 0.  1.
         23    2    1    2    0    0  0.41469025375E+03 -0.15264209024E+03  0.97398740050E+03  0.10745524743E+04  0.10365302395E+03 0.  0.
         11    1    3    3    0    0  0.27677329282E+03 -0.66423158650E+02  0.70392563383E+03  0.75929361224E+03  0.00000000000E+00 0. -1.
        -11    1    3    3    0    0  0.13791696094E+03 -0.86218931586E+02  0.27006176667E+03  0.31525886204E+03  0.00000000000E+00 0.  1.
         22    1    1    2    0    0 -0.41469025375E+03  0.15264209024E+03  0.18547242501E+03  0.47923651229E+03  0.00000000000E+00 0.  1.
<mgrwt>
<rscale>  0 0.10343661E+04</rscale>
<asrwt>0</asrwt>
<pdfrwt beam="1">  1        2 0.20871144E+00 0.10343661E+04</pdfrwt>
<pdfrwt beam="2">  1       -2 0.30333013E-01 0.10343661E+04</pdfrwt>
<totfact> 0.15323939E+02</totfact>
</mgrwt>
</event>
<event>
 6    1  0.2238133E-007  0.1580122E+04  0.7818608E-02  0.8832854E-01
          2   -1    0    0  501    0  0.00000000000E+00  0.00000000000E+00  0.15025275284E+04  0.15025275284E+04  0.00000000000E+00 0. -1.
         -2   -1    0    0    0  501 -0.00000000000E+00 -0.00000000000E+00 -0.41543075224E+03  0.41543075224E+03  0.00000000000E+00 0.  1.
         23    2    1    2    0    0  0.87778434562E+02 -0.62266594247E+03  0.11205563243E+04  0.12882460679E+04  0.92268770172E+02 0.  0.
         11    1    3    3    0    0  0.11790614683E+02 -0.18718745965E+03  0.25751766529E+03  0.31858046327E+03  0.00000000000E+00 0. -1.
        -11    1    3    3    0    0  0.75987819880E+02 -0.43547848281E+03  0.86303865905E+03  0.96966560462E+03  0.00000000000E+00 0.  1.
         22    1    1    2    0    0 -0.87778434562E+02  0.62266594247E+03 -0.33459548201E+02  0.62971221272E+03  0.00000000000E+00 0.  1.
<mgrwt>
<rscale>  0 0.15801217E+04</rscale>
<asrwt>0</asrwt>
<pdfrwt beam="1">  1        2 0.23115808E+00 0.15801217E+04</pdfrwt>
<pdfrwt beam="2">  1       -2 0.63912424E-01 0.15801217E+04</pdfrwt>
<totfact> 0.27503823E+01</totfact>
</mgrwt>
</event>
<event>
 6    1  0.2238133E-007  0.3289173E+04  0.7818608E-02  0.8165656E-01
          2   -1    0    0  501    0  0.00000000000E+00  0.00000000000E+00  0.17748116887E+04  0.17748116887E+04  0.00000000000E+00 0. -1.
         -2   -1    0    0    0  501 -0.00000000000E+00 -0.00000000000E+00 -0.15239165919E+04  0.15239165919E+04  0.00000000000E+00 0.  1.
         23    2    1    2    0    0 -0.13125258098E+04 -0.28515061484E+03 -0.82404331576E+03  0.15784005603E+04  0.90917917549E+02 0.  0.
         13    1    3    3    0    0 -0.64902926574E+03 -0.18378159128E+03 -0.39210494680E+03  0.78023134415E+03  0.00000000000E+00 0. -1.
        -13    1    3    3    0    0 -0.66349654409E+03 -0.10136902356E+03 -0.43193836896E+03  0.79816921611E+03  0.00000000000E+00 0.  1.
         22    1    1    2    0    0  0.13125258098E+04  0.28515061484E+03  0.10749384126E+04  0.17203277204E+04  0.00000000000E+00 0. -1.
<mgrwt>
<rscale>  0 0.32891731E+04</rscale>
<asrwt>0</asrwt>
<pdfrwt beam="1">  1        2 0.27304795E+00 0.32891731E+04</pdfrwt>
<pdfrwt beam="2">  1       -2 0.23444871E+00 0.32891731E+04</pdfrwt>
<totfact> 0.59746328E-01</totfact>
</mgrwt>
</event>
<event>
 6    1  0.2238133E-007  0.3036611E+04  0.7818608E-02  0.8233353E-01
         -2   -1    0    0    0  501 -0.00000000000E+00  0.00000000000E+00  0.99886423333E+03  0.99886423333E+03  0.00000000000E+00 0.  1.
          2   -1    0    0  501    0  0.00000000000E+00 -0.00000000000E+00 -0.23078726628E+04  0.23078726628E+04  0.00000000000E+00 0. -1.
         23    2    1    2    0    0 -0.13240877906E+04  0.49922425569E+03 -0.60037806210E+02  0.14193151223E+04  0.91747171276E+02 0.  0.
         13    1    3    3    0    0 -0.84300817511E+03  0.27037353419E+03 -0.36492618882E+02  0.88605662490E+03  0.00000000000E+00 0.  1.
        -13    1    3    3    0    0 -0.48107961549E+03  0.22885072150E+03 -0.23545187327E+02  0.53325849737E+03  0.00000000000E+00 0. -1.
         22    1    1    2    0    0  0.13240877906E+04 -0.49922425569E+03 -0.12489706233E+04  0.18874217739E+04  0.00000000000E+00 0. -1.
<mgrwt>
<rscale>  0 0.30366109E+04</rscale>
<asrwt>0</asrwt>
<pdfrwt beam="1">  1        2 0.35505733E+00 0.30366109E+04</pdfrwt>
<pdfrwt beam="2">  1       -2 0.15367142E+00 0.30366109E+04</pdfrwt>
<totfact> 0.10757438E+00</totfact>
</mgrwt>
</event>
<event>
 6    1  0.2238133E-007  0.1227231E+04  0.7818608E-02  0.9089350E-01
          2   -1    0    0  501    0  0.00000000000E+00  0.00000000000E+00  0.93499267777E+03  0.93499267777E+03  0.00000000000E+00 0. -1.
         -2   -1    0    0    0  501 -0.00000000000E+00 -0.00000000000E+00 -0.40270230439E+03  0.40270230439E+03  0.00000000000E+00 0.  1.
         23    2    1    2    0    0 -0.21089007981E+03 -0.13340883452E+03  0.87461913465E+03  0.91406598919E+03  0.91024496789E+02 0.  0.
         11    1    3    3    0    0 -0.12464688971E+03 -0.43941663820E+02  0.33070528833E+03  0.35613719922E+03  0.00000000000E+00 0. -1.
        -11    1    3    3    0    0 -0.86243190098E+02 -0.89467170697E+02  0.54391384631E+03  0.55792878998E+03  0.00000000000E+00 0.  1.
         22    1    1    2    0    0  0.21089007981E+03  0.13340883452E+03 -0.34232876127E+03  0.42362899296E+03  0.00000000000E+00 0.  1.
<mgrwt>
<rscale>  0 0.12272306E+04</rscale>
<asrwt>0</asrwt>
<pdfrwt beam="1">  1        2 0.14384503E+00 0.12272306E+04</pdfrwt>
<pdfrwt beam="2">  1       -2 0.61954201E-01 0.12272306E+04</pdfrwt>
<totfact> 0.66214454E+01</totfact>
</mgrwt>
</event>
<event>
 6    1  0.2238133E-007  0.2209056E+04  0.7818608E-02  0.8514668E-01
          2   -1    0    0  501    0  0.00000000000E+00  0.00000000000E+00  0.31837296476E+04  0.31837296476E+04  0.00000000000E+00 0. -1.
         -2   -1    0    0    0  501 -0.00000000000E+00 -0.00000000000E+00 -0.38319280109E+03  0.38319280109E+03  0.00000000000E+00 0.  1.
         23    2    1    2    0    0 -0.10386482710E+04  0.32755006246E+03  0.11223651887E+04  0.15663376874E+04  0.87354792056E+02 0.  0.
         13    1    3    3    0    0 -0.71381529483E+03  0.26699937801E+03  0.77793923494E+03  0.10890410443E+04  0.00000000000E+00 0. -1.
        -13    1    3    3    0    0 -0.32483297618E+03  0.60550684451E+02  0.34442595379E+03  0.47729664303E+03  0.00000000000E+00 0.  1.
         22    1    1    2    0    0  0.10386482710E+04 -0.32755006246E+03  0.16781716578E+04  0.20005847613E+04  0.00000000000E+00 0. -1.
<mgrwt>
<rscale>  0 0.22090562E+04</rscale>
<asrwt>0</asrwt>
<pdfrwt beam="1">  1        2 0.48980454E+00 0.22090562E+04</pdfrwt>
<pdfrwt beam="2">  1       -2 0.58952741E-01 0.22090562E+04</pdfrwt>
<totfact> 0.32687023E+00</totfact>
</mgrwt>
</event>
<event>
 6    1  0.2238133E-007  0.2898634E+04  0.7818608E-02  0.8273284E-01
         -2   -1    0    0    0  501 -0.00000000000E+00  0.00000000000E+00  0.12115437896E+04  0.12115437896E+04  0.00000000000E+00 0.  1.
          2   -1    0    0  501    0  0.00000000000E+00 -0.00000000000E+00 -0.17337543237E+04  0.17337543237E+04  0.00000000000E+00 0. -1.
         23    2    1    2    0    0 -0.22097391801E+03  0.10847195067E+04 -0.12096198374E+04  0.16422334829E+04  0.91130570235E+02 0.  0.
         11    1    3    3    0    0 -0.13578483887E+03  0.82725027957E+03 -0.88010136138E+03  0.12154665581E+04  0.00000000000E+00 0. -1.
        -11    1    3    3    0    0 -0.85189079141E+02  0.25746922716E+03 -0.32951847598E+03  0.42676692486E+03  0.00000000000E+00 0.  1.
         22    1    1    2    0    0  0.22097391801E+03 -0.10847195067E+04  0.68740930326E+03  0.13030646304E+04  0.00000000000E+00 0.  1.
<mgrwt>
<rscale>  0 0.28986337E+04</rscale>
<asrwt>0</asrwt>
<pdfrwt beam="1">  1        2 0.26673143E+00 0.28986337E+04</pdfrwt>
<pdfrwt beam="2">  1       -2 0.18639135E+00 0.28986337E+04</pdfrwt>
<totfact> 0.13292114E+00</totfact>
</mgrwt>
</event>
<event>
 6    1  0.2238133E-007  0.1132757E+04  0.7818608E-02  0.9173840E-01
         -2   -1    0    0    0  501 -0.00000000000E+00  0.00000000000E+00  0.48178500659E+03  0.48178500659E+03  0.00000000000E+00 0.  1.
          2   -1    0    0  501    0  0.00000000000E+00 -0.00000000000E+00 -0.66582495923E+03  0.66582495923E+03  0.00000000000E+00 0. -1.
         23    2    1    2    0    0  0.50121698681E+02 -0.26767391957E+03 -0.59171588664E+03  0.65734352902E+03  0.88381631244E+02 0.  0.
         13    1    3    3    0    0  0.37955458678E+02 -0.16273721048E+03 -0.25872777618E+03  0.30800012773E+03  0.00000000000E+00 0.  1.
        -13    1    3    3    0    0  0.12166240003E+02 -0.10493670909E+03 -0.33298811046E+03  0.34934340128E+03  0.00000000000E+00 0. -1.
         22    1    1    2    0    0 -0.50121698681E+02  0.26767391957E+03  0.40767593400E+03  0.49026643680E+03  0.00000000000E+00 0.  1.
<mgrwt>
<rscale>  0 0.11327568E+04</rscale>
<asrwt>0</asrwt>
<pdfrwt beam="1">  1        2 0.10243461E+00 0.11327568E+04</pdfrwt>
<pdfrwt beam="2">  1       -2 0.74120770E-01 0.11327568E+04</pdfrwt>
<totfact> 0.70917862E+01</totfact>
</mgrwt>
</event>
<event>
 6    1  0.2238133E-007  0.1981565E+04  0.7818608E-02  0.8615289E-01
          2   -1    0    0  501    0  0.00000000000E+00  0.00000000000E+00  0.14342221424E+04  0.14342221424E+04  0.00000000000E+00 0. -1.
         -2   -1    0    0    0  501 -0.00000000000E+00 -0.00000000000E+00 -0.68444744488E+03  0.68444744488E+03  0.00000000000E+00 0.  1.
         23    2    1    2    0    0 -0.60007484081E+03  0.42388779621E+03 -0.33182171991E+03  0.81114463969E+03  0.89884895030E+02 0.  0.
         11    1    3    3    0    0 -0.41037049931E+03  0.23735569628E+03 -0.21709681204E+03  0.52141413392E+03  0.00000000000E+00 0.  1.
        -11    1    3    3    0    0 -0.18970434150E+03  0.18653209993E+03 -0.11472490787E+03  0.28973050577E+03  0.00000000000E+00 0. -1.
         22    1    1    2    0    0  0.60007484081E+03 -0.42388779621E+03  0.10815964174E+04  0.13075249475E+04  0.00000000000E+00 0. -1.
<mgrwt>
<rscale>  0 0.19815647E+04</rscale>
<asrwt>0</asrwt>
<pdfrwt beam="1">  1        2 0.22064956E+00 0.19815647E+04</pdfrwt>
<pdfrwt beam="2">  1       -2 0.10529961E+00 0.19815647E+04</pdfrwt>
<totfact> 0.93981914E+00</totfact>
</mgrwt>
</event>
<event>
 6    1  0.2238133E-007  0.7826121E+03  0.7818608E-02  0.9585532E-01
          2   -1    0    0  501    0  0.00000000000E+00  0.00000000000E+00  0.38632650339E+04  0.38632650339E+04  0.00000000000E+00 0. -1.
         -2   -1    0    0    0  501 -0.00000000000E+00 -0.00000000000E+00 -0.39634982164E+02  0.39634982164E+02  0.00000000000E+00 0.  1.
         23    2    1    2    0    0  0.13393844199E+03 -0.28935008951E+03  0.30219246852E+04  0.30401170333E+04  0.92842839498E+02 0.  0.
         11    1    3    3    0    0  0.47026776707E+02 -0.19855417217E+03  0.20404895812E+04  0.20506664789E+04  0.00000000000E+00 0.  1.
        -11    1    3    3    0    0  0.86911665284E+02 -0.90795917345E+02  0.98143510401E+03  0.98945055438E+03  0.00000000000E+00 0. -1.
         22    1    1    2    0    0 -0.13393844199E+03  0.28935008951E+03  0.80170536655E+03  0.86278298273E+03  0.00000000000E+00 0.  1.
<mgrwt>
<rscale>  0 0.78261214E+03</rscale>
<asrwt>0</asrwt>
<pdfrwt beam="1">  1        2 0.59434817E+00 0.78261214E+03</pdfrwt>
<pdfrwt beam="2">  1       -2 0.60976926E-02 0.78261214E+03</pdfrwt>
<totfact> 0.72375602E+01</totfact>
</mgrwt>
</event>
<event>
 6    1  0.2238133E-007  0.2261057E+04  0.7818608E-02  0.8493436E-01
          2   -1    0    0  501    0  0.00000000000E+00  0.00000000000E+00  0.17400943029E+04  0.17400943029E+04  0.00000000000E+00 0. -1.
         -2   -1    0    0    0  501 -0.00000000000E+00 -0.00000000000E+00 -0.73449706186E+03  0.73449706186E+03  0.00000000000E+00 0.  1.
         23    2    1    2    0    0  0.57739580819E+03 -0.69174450324E+03 -0.24033960773E+03  0.93697795163E+03  0.90929520529E+02 0.  0.
         11    1    3    3    0    0  0.25175058516E+03 -0.30952352592E+03 -0.60113441605E+02  0.40348084972E+03  0.00000000000E+00 0.  1.
        -11    1    3    3    0    0  0.32564522303E+03 -0.38222097733E+03 -0.18022616612E+03  0.53349710191E+03  0.00000000000E+00 0. -1.
         22    1    1    2    0    0 -0.57739580819E+03  0.69174450324E+03  0.12459368487E+04  0.15376134131E+04  0.00000000000E+00 0. -1.
<mgrwt>
<rscale>  0 0.22610565E+04</rscale>
<asrwt>0</asrwt>
<pdfrwt beam="1">  1        2 0.26770681E+00 0.22610565E+04</pdfrwt>
<pdfrwt beam="2">  1       -2 0.11299955E+00 0.22610565E+04</pdfrwt>
<totfact> 0.52149416E+00</totfact>
</mgrwt>
</event>
<event>
 6    1  0.2238133E-007  0.2921835E+04  0.7818608E-02  0.8266410E-01
          2   -1    0    0  501    0  0.00000000000E+00  0.00000000000E+00  0.14405538818E+04  0.14405538818E+04  0.00000000000E+00 0. -1.
         -2   -1    0    0    0  501 -0.00000000000E+00 -0.00000000000E+00 -0.14815693765E+04  0.14815693765E+04  0.00000000000E+00 0.  1.
         23    2    1    2    0    0  0.10805319885E+04  0.76996652288E+03  0.58734293639E+03  0.14540523667E+04  0.94333109905E+02 0.  0.
         13    1    3    3    0    0  0.54719719264E+03  0.41563097818E+03  0.25782499675E+03  0.73392615882E+03  0.00000000000E+00 0. -1.
        -13    1    3    3    0    0  0.53333479588E+03  0.35433554470E+03  0.32951793965E+03  0.72012620788E+03  0.00000000000E+00 0.  1.
         22    1    1    2    0    0 -0.10805319885E+04 -0.76996652288E+03 -0.62835843111E+03  0.14680708915E+04  0.00000000000E+00 0.  1.
<mgrwt>
<rscale>  0 0.29218354E+04</rscale>
<asrwt>0</asrwt>
<pdfrwt beam="1">  1        2 0.22162367E+00 0.29218354E+04</pdfrwt>
<pdfrwt beam="2">  1       -2 0.22793375E+00 0.29218354E+04</pdfrwt>
<totfact> 0.10411620E+00</totfact>
</mgrwt>
</event>
<event>
 6    1  0.2238133E-007  0.3055968E+04  0.7818608E-02  0.8227927E-01
         -2   -1    0    0    0  501 -0.00000000000E+00  0.00000000000E+00  0.70462986760E+03  0.70462986760E+03  0.00000000000E+00 0.  1.
          2   -1    0    0  501    0  0.00000000000E+00 -0.00000000000E+00 -0.33134205413E+04  0.33134205413E+04  0.00000000000E+00 0. -1.
         23    2    1    2    0    0  0.11237357982E+04 -0.14885391877E+03  0.38635717190E+02  0.11381535134E+04  0.94662918460E+02 0.  0.
         13    1    3    3    0    0  0.43343117744E+03 -0.91775539733E+02 -0.16103220308E+02  0.44333356401E+03  0.00000000000E+00 0. -1.
        -13    1    3    3    0    0  0.69030462078E+03 -0.57078379036E+02  0.54738937498E+02  0.69481994941E+03  0.00000000000E+00 0.  1.
         22    1    1    2    0    0 -0.11237357982E+04  0.14885391877E+03 -0.26474263909E+04  0.28798968954E+04  0.00000000000E+00 0. -1.
<mgrwt>
<rscale>  0 0.30559680E+04</rscale>
<asrwt>0</asrwt>
<pdfrwt beam="1">  1        2 0.50975701E+00 0.30559680E+04</pdfrwt>
<pdfrwt beam="2">  1       -2 0.10840459E+00 0.30559680E+04</pdfrwt>
<totfact> 0.63226575E-01</totfact>
</mgrwt>
</event>
<event>
 6    1  0.2238133E-007  0.2351934E+04  0.7818608E-02  0.8457721E-01
         -2   -1    0    0    0  501 -0.00000000000E+00  0.00000000000E+00  0.27591622728E+03  0.27591622728E+03  0.00000000000E+00 0.  1.
          2   -1    0    0  501    0  0.00000000000E+00 -0.00000000000E+00 -0.50120231599E+04  0.50120231599E+04  0.00000000000E+00 0. -1.
         23    2    1    2    0    0  0.54761869937E+03 -0.95328270006E+03 -0.33009878418E+04  0.34801227618E+04  0.78099676065E+02 0.  0.
         13    1    3    3    0    0  0.19150880910E+03 -0.26195028933E+03 -0.97129629290E+03  0.10240654601E+04  0.00000000000E+00 0.  1.
        -13    1    3    3    0    0  0.35610989027E+03 -0.69133241073E+03 -0.23296915489E+04  0.24560573017E+04  0.00000000000E+00 0. -1.
         22    1    1    2    0    0 -0.54761869937E+03  0.95328270006E+03 -0.14351190908E+04  0.18078166254E+04  0.00000000000E+00 0.  1.
<mgrwt>
<rscale>  0 0.23519341E+04</rscale>
<asrwt>0</asrwt>
<pdfrwt beam="1">  1        2 0.77108050E+00 0.23519341E+04</pdfrwt>
<pdfrwt beam="2">  1       -2 0.42448650E-01 0.23519341E+04</pdfrwt>
<totfact> 0.15960054E-01</totfact>
</mgrwt>
</event>
<event>
 6    1  0.2238133E-007  0.2380652E+04  0.7818608E-02  0.8446783E-01
          2   -1    0    0  501    0  0.00000000000E+00  0.00000000000E+00  0.14338914086E+04  0.14338914086E+04  0.00000000000E+00 0. -1.
         -2   -1    0    0    0  501 -0.00000000000E+00 -0.00000000000E+00 -0.98813345352E+03  0.98813345352E+03  0.00000000000E+00 0.  1.
         23    2    1    2    0    0  0.11659867514E+04  0.22362173247E+03  0.28301965207E+03  0.12236862042E+04  0.88181739601E+02 0.  0.
         11    1    3    3    0    0  0.69222731891E+03  0.91947421082E+02  0.14890056513E+03  0.71400585963E+03  0.00000000000E+00 0.  1.
        -11    1    3    3    0    0  0.47375943254E+03  0.13167431139E+03  0.13411908694E+03  0.50968034461E+03  0.00000000000E+00 0. -1.
         22    1    1    2    0    0 -0.11659867514E+04 -0.22362173247E+03  0.16273830303E+03  0.11983386579E+04  0.00000000000E+00 0.  1.
<mgrwt>
<rscale>  0 0.23806521E+04</rscale>
<asrwt>0</asrwt>
<pdfrwt beam="1">  1        2 0.22059868E+00 0.23806521E+04</pdfrwt>
<pdfrwt beam="2">  1       -2 0.15202053E+00 0.23806521E+04</pdfrwt>
<totfact> 0.36046276E+00</totfact>
</mgrwt>
</event>
<event>
 6    1  0.2238133E-007  0.1739871E+04  0.7818608E-02  0.8738945E-01
         -2   -1    0    0    0  501 -0.00000000000E+00  0.00000000000E+00  0.43665341964E+03  0.43665341964E+03  0.00000000000E+00 0.  1.
          2   -1    0    0  501    0  0.00000000000E+00 -0.00000000000E+00 -0.17331546301E+04  0.17331546301E+04  0.00000000000E+00 0. -1.
         23    2    1    2    0    0  0.19540862621E+03  0.61461760706E+03  0.74330880711E+02  0.65484271804E+03  0.85758798031E+02 0.  0.
         11    1    3    3    0    0  0.44345651910E+02  0.25314744568E+03  0.53575715721E+02  0.26252718604E+03  0.00000000000E+00 0. -1.
        -11    1    3    3    0    0  0.15106297430E+03  0.36147016138E+03  0.20755164990E+02  0.39231553199E+03  0.00000000000E+00 0.  1.
         22    1    1    2    0    0 -0.19540862621E+03 -0.61461760706E+03 -0.13708320912E+04  0.15149653317E+04  0.00000000000E+00 0. -1.
<mgrwt>
<rscale>  0 0.17398711E+04</rscale>
<asrwt>0</asrwt>
<pdfrwt beam="1">  1        2 0.26663917E+00 0.17398711E+04</pdfrwt>
<pdfrwt beam="2">  1       -2 0.67177450E-01 0.17398711E+04</pdfrwt>
<totfact> 0.18125342E+01</totfact>
</mgrwt>
</event>
<event>
 6    1  0.2238133E-007  0.1099488E+04  0.7818608E-02  0.9205691E-01
         -2   -1    0    0    0  501 -0.00000000000E+00  0.00000000000E+00  0.16191164109E+03  0.16191164109E+03  0.00000000000E+00 0.  1.
          2   -1    0    0  501    0  0.00000000000E+00 -0.00000000000E+00 -0.18665645291E+04  0.18665645291E+04  0.00000000000E+00 0. -1.
         23    2    1    2    0    0 -0.29638691223E+03 -0.45812961982E+03 -0.82805788307E+03  0.99593234401E+03  0.92051213059E+02 0.  0.
         11    1    3    3    0    0 -0.11076410926E+03 -0.14567840724E+03 -0.20650832873E+03  0.27592857059E+03  0.00000000000E+00 0. -1.
        -11    1    3    3    0    0 -0.18562280298E+03 -0.31245121257E+03 -0.62154955435E+03  0.72000377341E+03  0.00000000000E+00 0.  1.
         22    1    1    2    0    0  0.29638691223E+03  0.45812961982E+03 -0.87659500498E+03  0.10325438262E+04  0.00000000000E+00 0.  1.
<mgrwt>
<rscale>  0 0.10994881E+04</rscale>
<asrwt>0</asrwt>
<pdfrwt beam="1">  1        2 0.28716376E+00 0.10994881E+04</pdfrwt>
<pdfrwt beam="2">  1       -2 0.24909485E-01 0.10994881E+04</pdfrwt>
<totfact> 0.11374915E+02</totfact>
</mgrwt>
</event>
<event>
 6    1  0.2238133E-007  0.3294757E+04  0.7818608E-02  0.8164231E-01
          2   -1    0    0  501    0  0.00000000000E+00  0.00000000000E+00  0.10398990839E+04  0.10398990839E+04  0.00000000000E+00 0. -1.
         -2   -1    0    0    0  501 -0.00000000000E+00 -0.00000000000E+00 -0.26097308329E+04  0.26097308329E+04  0.00000000000E+00 0.  1.
         23    2    1    2    0    0 -0.14391681889E+04 -0.35993148274E+03  0.47066942863E+01  0.14863160104E+04  0.91418716008E+02 0.  0.
         13    1    3    3    0    0 -0.90799776326E+03 -0.26059941875E+03 -0.26629903675E+02  0.94502970689E+03  0.00000000000E+00 0. -1.
        -13    1    3    3    0    0 -0.53117042560E+03 -0.99332063991E+02  0.31336597961E+02  0.54128630348E+03  0.00000000000E+00 0.  1.
         22    1    1    2    0    0  0.14391681889E+04  0.35993148274E+03 -0.15745384434E+04  0.21633139064E+04  0.00000000000E+00 0.  1.
<mgrwt>
<rscale>  0 0.32947575E+04</rscale>
<asrwt>0</asrwt>
<pdfrwt beam="1">  1        2 0.15998448E+00 0.32947575E+04</pdfrwt>
<pdfrwt beam="2">  1       -2 0.40149705E+00 0.32947575E+04</pdfrwt>
<totfact> 0.14390289E-01</totfact>
</mgrwt>
</event>
<event>
 6    1  0.2238133E-007  0.2506749E+04  0.7818608E-02  0.8400585E-01
         -2   -1    0    0    0  501 -0.00000000000E+00  0.00000000000E+00  0.91628403417E+03  0.91628403417E+03  0.00000000000E+00 0.  1.
          2   -1    0    0  501    0  0.00000000000E+00 -0.00000000000E+00 -0.17144771391E+04  0.17144771391E+04  0.00000000000E+00 0. -1.
         23    2    1    2    0    0  0.26609308604E+03  0.52918284206E+03 -0.15568781483E+04  0.16682420796E+04  0.91225307840E+02 0.  0.
         13    1    3    3    0    0  0.75640557183E+02  0.21767757678E+03 -0.69530585809E+03  0.73249932261E+03  0.00000000000E+00 0.  1.
        -13    1    3    3    0    0  0.19045252885E+03  0.31150526528E+03 -0.86157229018E+03  0.93574275698E+03  0.00000000000E+00 0. -1.
         22    1    1    2    0    0 -0.26609308604E+03 -0.52918284206E+03  0.75868504332E+03  0.96251909370E+03  0.00000000000E+00 0.  1.
<mgrwt>
<rscale>  0 0.25067493E+04</rscale>
<asrwt>0</asrwt>
<pdfrwt beam="1">  1        2 0.26376571E+00 0.25067493E+04</pdfrwt>
<pdfrwt beam="2">  1       -2 0.14096677E+00 0.25067493E+04</pdfrwt>
<totfact> 0.30276885E+00</totfact>
</mgrwt>
</event>
<event>
 6    1  0.2238133E-007  0.2100039E+04  0.7818608E-02  0.8561226E-01
          2   -1    0    0  501    0  0.00000000000E+00  0.00000000000E+00  0.20591295927E+04  0.20591295927E+04  0.00000000000E+00 0. -1.
         -2   -1    0    0    0  501 -0.00000000000E+00 -0.00000000000E+00 -0.53544034663E+03  0.53544034663E+03  0.00000000000E+00 0.  1.
         23    2    1    2    0    0  0.30064105650E+03  0.96612543617E+03  0.42629725896E+03  0.11019036750E+04  0.93160897050E+02 0.  0.
         11    1    3    3    0    0  0.44885294659E+02  0.96033865956E+02  0.18807458955E+02  0.10766110532E+03  0.00000000000E+00 0. -1.
        -11    1    3    3    0    0  0.25575576184E+03  0.87009157021E+03  0.40748980001E+03  0.99424256969E+03  0.00000000000E+00 0.  1.
         22    1    1    2    0    0 -0.30064105650E+03 -0.96612543617E+03  0.10973919871E+04  0.14926662643E+04  0.00000000000E+00 0. -1.
<mgrwt>
<rscale>  0 0.21000391E+04</rscale>
<asrwt>0</asrwt>
<pdfrwt beam="1">  1        2 0.31678916E+00 0.21000391E+04</pdfrwt>
<pdfrwt beam="2">  1       -2 0.82375439E-01 0.21000391E+04</pdfrwt>
<totfact> 0.73838239E+00</totfact>
</mgrwt>
</event>
<event>
 6    1  0.2238133E-007  0.1116337E+04  0.7818608E-02  0.9189413E-01
          2   -1    0    0  501    0  0.00000000000E+00  0.00000000000E+00  0.11157681715E+04  0.11157681715E+04  0.00000000000E+00 0. -1.
         -2   -1    0    0    0  501 -0.00000000000E+00 -0.00000000000E+00 -0.27922668235E+03  0.27922668235E+03  0.00000000000E+00 0.  1.
         23    2    1    2    0    0 -0.28478713821E+03  0.44941150267E+03  0.61184956746E+03  0.81744756358E+03  0.10385669538E+03 0.  0.
         11    1    3    3    0    0 -0.20657832344E+03  0.23292998043E+03  0.37030351895E+03  0.48379300909E+03  0.00000000000E+00 0.  1.
        -11    1    3    3    0    0 -0.78208814775E+02  0.21648152224E+03  0.24154604851E+03  0.33365455449E+03  0.00000000000E+00 0. -1.
         22    1    1    2    0    0  0.28478713821E+03 -0.44941150267E+03  0.22469192168E+03  0.57754729027E+03  0.00000000000E+00 0.  1.
<mgrwt>
<rscale>  0 0.11163373E+04</rscale>
<asrwt>0</asrwt>
<pdfrwt beam="1">  1        2 0.17165664E+00 0.11163373E+04</pdfrwt>
<pdfrwt beam="2">  1       -2 0.42957952E-01 0.11163373E+04</pdfrwt>
<totfact> 0.10850087E+02</totfact>
</mgrwt>
</event>
<event>
 6    1  0.2238133E-007  0.1183481E+04  0.7818608E-02  0.9127440E-01
          2   -1    0    0  501    0  0.00000000000E+00  0.00000000000E+00  0.49551675018E+03  0.49551675018E+03  0.00000000000E+00 0. -1.
         -2   -1    0    0    0  501 -0.00000000000E+00 -0.00000000000E+00 -0.70664962815E+03  0.70664962815E+03  0.00000000000E+00 0.  1.
         23    2    1    2    0    0  0.61191850822E+02  0.24220589166E+03 -0.64709365793E+03  0.69970251076E+03  0.91898122200E+02 0.  0.
         13    1    3    3    0    0  0.50822114396E+02  0.20430786113E+03 -0.42645553785E+03  0.47559322450E+03  0.00000000000E+00 0.  1.
        -13    1    3    3    0    0  0.10369736426E+02  0.37898030526E+02 -0.22063812008E+03  0.22410928625E+03  0.00000000000E+00 0. -1.
         22    1    1    2    0    0 -0.61191850822E+02 -0.24220589166E+03  0.43596077995E+03  0.50246386758E+03  0.00000000000E+00 0. -1.
<mgrwt>
<rscale>  0 0.11834808E+04</rscale>
<asrwt>0</asrwt>
<pdfrwt beam="1">  1        2 0.76233346E-01 0.11834808E+04</pdfrwt>
<pdfrwt beam="2">  1       -2 0.10871533E+00 0.11834808E+04</pdfrwt>
<totfact> 0.41552053E+01</totfact>
</mgrwt>
</event>
<event>
 6    1  0.2238133E-007  0.3030843E+04  0.7818608E-02  0.8234978E-01
         -2   -1    0    0    0  501 -0.00000000000E+00  0.00000000000E+00  0.89864222174E+03  0.89864222174E+03  0.00000000000E+00 0.  1.
          2   -1    0    0  501    0  0.00000000000E+00 -0.00000000000E+00 -0.25555246577E+04  0.25555246577E+04  0.00000000000E+00 0. -1.
         23    2    1    2    0    0 -0.70205170329E+03 -0.73975359347E+03  0.44617257372E+03  0.11168709318E+04  0.90657264349E+02 0.  0.
         13    1    3    3    0    0 -0.30494651868E+03 -0.30163817661E+03  0.14130588559E+03  0.45160305816E+03  0.00000000000E+00 0.  1.
        -13    1    3    3    0    0 -0.39710518461E+03 -0.43811541687E+03  0.30486668813E+03  0.66526787362E+03  0.00000000000E+00 0. -1.
         22    1    1    2    0    0  0.70205170329E+03  0.73975359347E+03 -0.21030550097E+04  0.23372959476E+04  0.00000000000E+00 0. -1.
<mgrwt>
<rscale>  0 0.30308430E+04</rscale>
<asrwt>0</asrwt>
<pdfrwt beam="1">  1        2 0.39315764E+00 0.30308430E+04</pdfrwt>
<pdfrwt beam="2">  1       -2 0.13825265E+00 0.30308430E+04</pdfrwt>
<totfact> 0.10235748E+00</totfact>
</mgrwt>
</event>
<event>
 6    1  0.2238133E-007  0.1346172E+04  0.7818608E-02  0.8993731E-01
          2   -1    0    0  501    0  0.00000000000E+00  0.00000000000E+00  0.17132507741E+04  0.17132507741E+04  0.00000000000E+00 0. -1.
         -2   -1    0    0    0  501 -0.00000000000E+00 -0.00000000000E+00 -0.26443584649E+03  0.26443584649E+03  0.00000000000E+00 0.  1.
         23    2    1    2    0    0 -0.12188376512E+03 -0.65886698889E+03  0.72351990190E+03  0.99025852926E+03  0.90385535790E+02 0.  0.
         13    1    3    3    0    0 -0.56726610734E+02 -0.49144850854E+03  0.49837936825E+03  0.70222613139E+03  0.00000000000E+00 0.  1.
        -13    1    3    3    0    0 -0.65157154388E+02 -0.16741848035E+03  0.22514053366E+03  0.28803239788E+03  0.00000000000E+00 0. -1.
         22    1    1    2    0    0  0.12188376512E+03  0.65886698889E+03  0.72529502573E+03  0.98742809135E+03  0.00000000000E+00 0. -1.
<mgrwt>
<rscale>  0 0.13461722E+04</rscale>
<asrwt>0</asrwt>
<pdfrwt beam="1">  1        2 0.26357704E+00 0.13461722E+04</pdfrwt>
<pdfrwt beam="2">  1       -2 0.40682439E-01 0.13461722E+04</pdfrwt>
<totfact> 0.53888028E+01</totfact>
</mgrwt>
</event>
<event>
 6    1  0.2238133E-007  0.2167164E+04  0.7818608E-02  0.8532221E-01
          2   -1    0    0  501    0  0.00000000000E+00  0.00000000000E+00  0.23578401678E+04  0.23578401678E+04  0.00000000000E+00 0. -1.
         -2   -1    0    0    0  501 -0.00000000000E+00 -0.00000000000E+00 -0.49797675194E+03  0.49797675194E+03  0.00000000000E+00 0.  1.
         23    2    1    2    0    0 -0.13461201561E+03 -0.10099433266E+04  0.45281302115E+03  0.11186074531E+04  0.90205788983E+02 0.  0.
         11    1    3    3    0    0 -0.29786525354E+02 -0.34114152131E+03  0.19600831645E+03  0.39456816240E+03  0.00000000000E+00 0. -1.
        -11    1    3    3    0    0 -0.10482549026E+03 -0.66880180529E+03  0.25680470470E+03  0.72403929073E+03  0.00000000000E+00 0.  1.
         22    1    1    2    0    0  0.13461201561E+03  0.10099433266E+04  0.14070503948E+04  0.17372094667E+04  0.00000000000E+00 0. -1.
<mgrwt>
<rscale>  0 0.21671637E+04</rscale>
<asrwt>0</asrwt>
<pdfrwt beam="1">  1        2 0.36274464E+00 0.21671637E+04</pdfrwt>
<pdfrwt beam="2">  1       -2 0.76611809E-01 0.21671637E+04</pdfrwt>
<totfact> 0.58662001E+00</totfact>
</mgrwt>
</event>
<event>
 6    1  0.4200359E-007  0.2898368E+04  0.7818608E-02  0.8273363E-01
         -2   -1    0    0    0  501 -0.00000000000E+00  0.00000000000E+00  0.90291703611E+03  0.90291703611E+03  0.00000000000E+00 0.  1.
          2   -1    0    0  501    0  0.00000000000E+00 -0.00000000000E+00 -0.23259430913E+04  0.23259430913E+04  0.00000000000E+00 0. -1.
         23    2    1    2    0    0 -0.48205632601E+03 -0.58145087189E+03 -0.20881247133E+04  0.22224707183E+04  0.92993856311E+02 0.  0.
         11    1    3    3    0    0 -0.21174874642E+03 -0.18581976231E+03 -0.79207081025E+03  0.84067989397E+03  0.00000000000E+00 0. -1.
        -11    1    3    3    0    0 -0.27030757959E+03 -0.39563110958E+03 -0.12960539031E+04  0.13817908243E+04  0.00000000000E+00 0.  1.
         22    1    1    2    0    0  0.48205632601E+03  0.58145087189E+03  0.66509865811E+03  0.10063894092E+04  0.00000000000E+00 0.  1.
<mgrwt>
<rscale>  0 0.28983676E+04</rscale>
<asrwt>0</asrwt>
<pdfrwt beam="1">  1        2 0.35783740E+00 0.28983676E+04</pdfrwt>
<pdfrwt beam="2">  1       -2 0.13891031E+00 0.28983676E+04</pdfrwt>
<totfact> 0.13862960E+00</totfact>
</mgrwt>
</event>
<event>
 6    1  0.2238133E-007  0.3949696E+04  0.7818608E-02  0.8014772E-01
         -2   -1    0    0    0  501 -0.00000000000E+00  0.00000000000E+00  0.22451688536E+04  0.22451688536E+04  0.00000000000E+00 0.  1.
          2   -1    0    0  501    0  0.00000000000E+00 -0.00000000000E+00 -0.17370738372E+04  0.17370738372E+04  0.00000000000E+00 0. -1.
         23    2    1    2    0    0 -0.23558162201E+03  0.18053199430E+04 -0.51456954141E+03  0.18940564934E+04  0.89383387807E+02 0.  0.
         11    1    3    3    0    0 -0.23436069619E+03  0.15622009806E+04 -0.44847679803E+03  0.16421109214E+04  0.00000000000E+00 0. -1.
        -11    1    3    3    0    0 -0.12209258204E+01  0.24311896237E+03 -0.66092743384E+02  0.25194557201E+03  0.00000000000E+00 0.  1.
         22    1    1    2    0    0  0.23558162201E+03 -0.18053199430E+04  0.10226645578E+04  0.20881861974E+04  0.00000000000E+00 0.  1.
<mgrwt>
<rscale>  0 0.39496957E+04</rscale>
<asrwt>0</asrwt>
<pdfrwt beam="1">  1        2 0.26724213E+00 0.39496957E+04</pdfrwt>
<pdfrwt beam="2">  1       -2 0.34541059E+00 0.39496957E+04</pdfrwt>
<totfact> 0.12314957E-01</totfact>
</mgrwt>
</event>
<event>
 6    1  0.2238133E-007  0.3403817E+04  0.7818608E-02  0.8136970E-01
          2   -1    0    0  501    0  0.00000000000E+00  0.00000000000E+00  0.25307316400E+04  0.25307316400E+04  0.00000000000E+00 0. -1.
         -2   -1    0    0    0  501 -0.00000000000E+00 -0.00000000000E+00 -0.11445276889E+04  0.11445276889E+04  0.00000000000E+00 0.  1.
         23    2    1    2    0    0 -0.52853501543E+03  0.22067707818E+03  0.24225952832E+04  0.24911332255E+04  0.93430216968E+02 0.  0.
         11    1    3    3    0    0 -0.45240174364E+03  0.21588532768E+03  0.21768852346E+04  0.22338538755E+04  0.00000000000E+00 0.  1.
        -11    1    3    3    0    0 -0.76133271787E+02  0.47917505029E+01  0.24571004860E+03  0.25727934998E+03  0.00000000000E+00 0. -1.
         22    1    1    2    0    0  0.52853501543E+03 -0.22067707818E+03 -0.10363913321E+04  0.11841261034E+04  0.00000000000E+00 0.  1.
<mgrwt>
<rscale>  0 0.34038169E+04</rscale>
<asrwt>0</asrwt>
<pdfrwt beam="1">  1        2 0.38934333E+00 0.34038169E+04</pdfrwt>
<pdfrwt beam="2">  1       -2 0.17608118E+00 0.34038169E+04</pdfrwt>
<totfact> 0.53412290E-01</totfact>
</mgrwt>
</event>
<event>
 6    1  0.2238133E-007  0.3600332E+04  0.7818608E-02  0.8090416E-01
          2   -1    0    0  501    0  0.00000000000E+00  0.00000000000E+00  0.22866489512E+04  0.22866489512E+04  0.00000000000E+00 0. -1.
         -2   -1    0    0    0  501 -0.00000000000E+00 -0.00000000000E+00 -0.14171817253E+04  0.14171817253E+04  0.00000000000E+00 0.  1.
         23    2    1    2    0    0 -0.38239273910E+03  0.15871828942E+04  0.12124757388E+04  0.20355895109E+04  0.90296696868E+02 0.  0.
         13    1    3    3    0    0 -0.11125993724E+03  0.36893514092E+03  0.24739137170E+03  0.45792401404E+03  0.00000000000E+00 0. -1.
        -13    1    3    3    0    0 -0.27113280187E+03  0.12182477532E+04  0.96508436708E+03  0.15776654969E+04  0.00000000000E+00 0.  1.
         22    1    1    2    0    0  0.38239273910E+03 -0.15871828942E+04 -0.34300851286E+03  0.16682411655E+04  0.00000000000E+00 0. -1.
<mgrwt>
<rscale>  0 0.36003317E+04</rscale>
<asrwt>0</asrwt>
<pdfrwt beam="1">  1        2 0.35179215E+00 0.36003317E+04</pdfrwt>
<pdfrwt beam="2">  1       -2 0.21802796E+00 0.36003317E+04</pdfrwt>
<totfact> 0.38249421E-01</totfact>
</mgrwt>
</event>
<event>
 6    1  0.2238133E-007  0.9752038E+03  0.7818608E-02  0.9336167E-01
          2   -1    0    0  501    0  0.00000000000E+00  0.00000000000E+00  0.10003884257E+04  0.10003884257E+04  0.00000000000E+00 0. -1.
         -2   -1    0    0    0  501 -0.00000000000E+00 -0.00000000000E+00 -0.23766327522E+03  0.23766327522E+03  0.00000000000E+00 0.  1.
         23    2    1    2    0    0 -0.31559176534E+03 -0.13053797351E+03 -0.49891366956E+02  0.35658478192E+03  0.89583666592E+02 0.  0.
         11    1    3    3    0    0 -0.24276159743E+03 -0.10114326994E+03 -0.76118253768E+02  0.27378302138E+03  0.00000000000E+00 0.  1.
        -11    1    3    3    0    0 -0.72830167907E+02 -0.29394703574E+02  0.26226886812E+02  0.82801760533E+02  0.00000000000E+00 0. -1.
         22    1    1    2    0    0  0.31559176534E+03  0.13053797351E+03  0.81261651741E+03  0.88146691897E+03  0.00000000000E+00 0. -1.
<mgrwt>
<rscale>  0 0.97520375E+03</rscale>
<asrwt>0</asrwt>
<pdfrwt beam="1">  1        2 0.15390591E+00 0.97520375E+03</pdfrwt>
<pdfrwt beam="2">  1       -2 0.36563581E-01 0.97520375E+03</pdfrwt>
<totfact> 0.17703241E+02</totfact>
</mgrwt>
</event>
<event>
 6    1  0.2238133E-007  0.1739026E+04  0.7818608E-02  0.8739414E-01
          1   -1    0    0  501    0  0.00000000000E+00  0.00000000000E+00  0.99357928170E+03  0.99357928170E+03  0.00000000000E+00 0. -1.
         -1   -1    0    0    0  501 -0.00000000000E+00 -0.00000000000E+00 -0.76093889417E+03  0.76093889417E+03  0.00000000000E+00 0.  1.
         23    2    1    2    0    0  0.60004317152E+03 -0.58555452443E+03 -0.10673229968E+03  0.85002951946E+03  0.90733077783E+02 0.  0.
         11    1    3    3    0    0  0.27631119812E+03 -0.20829162205E+03 -0.35771225973E+02  0.34786902511E+03  0.00000000000E+00 0. -1.
        -11    1    3    3    0    0  0.32373197340E+03 -0.37726290238E+03 -0.70961073704E+02  0.50216049435E+03  0.00000000000E+00 0.  1.
         22    1    1    2    0    0 -0.60004317152E+03  0.58555452443E+03  0.33937268720E+03  0.90448865641E+03  0.00000000000E+00 0. -1.
<mgrwt>
<rscale>  0 0.17390263E+04</rscale>
<asrwt>0</asrwt>
<pdfrwt beam="1">  1        1 0.15285835E+00 0.17390263E+04</pdfrwt>
<pdfrwt beam="2">  1       -1 0.11706752E+00 0.17390263E+04</pdfrwt>
<totfact> 0.95487808E+00</totfact>
</mgrwt>
</event>
<event>
 6    1  0.2238133E-007  0.8163123E+03  0.7818608E-02  0.9536701E-01
         -2   -1    0    0    0  501 -0.00000000000E+00  0.00000000000E+00  0.10238297294E+03  0.10238297294E+03  0.00000000000E+00 0.  1.
          2   -1    0    0  501    0  0.00000000000E+00 -0.00000000000E+00 -0.16271401441E+04  0.16271401441E+04  0.00000000000E+00 0. -1.
         23    2    1    2    0    0  0.14095429044E+03 -0.31302950061E+03 -0.12187913247E+04  0.12696637043E+04  0.93477530619E+02 0.  0.
         11    1    3    3    0    0  0.11524134583E+03 -0.14692628629E+03 -0.68847849992E+03  0.71335162875E+03  0.00000000000E+00 0.  1.
        -11    1    3    3    0    0  0.25712944613E+02 -0.16610321432E+03 -0.53031282475E+03  0.55631207557E+03  0.00000000000E+00 0. -1.
         22    1    1    2    0    0 -0.14095429044E+03  0.31302950061E+03 -0.30596584649E+03  0.45985941272E+03  0.00000000000E+00 0.  1.
<mgrwt>
<rscale>  0 0.81631231E+03</rscale>
<asrwt>0</asrwt>
<pdfrwt beam="1">  1        2 0.25032926E+00 0.81631231E+03</pdfrwt>
<pdfrwt beam="2">  1       -2 0.15751226E-01 0.81631231E+03</pdfrwt>
<totfact> 0.35102567E+02</totfact>
</mgrwt>
</event>
<event>
 6    1  0.2238133E-007  0.2978515E+04  0.7818608E-02  0.8249893E-01
          2   -1    0    0  501    0  0.00000000000E+00  0.00000000000E+00  0.32782861795E+04  0.32782861795E+04  0.00000000000E+00 0. -1.
         -2   -1    0    0    0  501 -0.00000000000E+00 -0.00000000000E+00 -0.67653875749E+03  0.67653875749E+03  0.00000000000E+00 0.  1.
         23    2    1    2    0    0  0.21944450671E+02  0.24944639134E+03  0.32494373041E+04  0.32604134995E+04  0.93532527374E+02 0.  0.
         11    1    3    3    0    0 -0.34252995152E+02  0.77577598897E+02  0.87439414697E+03  0.87849682742E+03  0.00000000000E+00 0.  1.
        -11    1    3    3    0    0  0.56197445823E+02  0.17186879245E+03  0.23750431571E+04  0.23819166721E+04  0.00000000000E+00 0. -1.
         22    1    1    2    0    0 -0.21944450671E+02 -0.24944639134E+03 -0.64768988210E+03  0.69441143744E+03  0.00000000000E+00 0.  1.
<mgrwt>
<rscale>  0 0.29785148E+04</rscale>
<asrwt>0</asrwt>
<pdfrwt beam="1">  1        2 0.50435171E+00 0.29785148E+04</pdfrwt>
<pdfrwt beam="2">  1       -2 0.10408289E+00 0.29785148E+04</pdfrwt>
<totfact> 0.74081716E-01</totfact>
</mgrwt>
</event>
<event>
 6    1  0.2238133E-007  0.5159974E+04  0.7818608E-02  0.7804293E-01
          2   -1    0    0  501    0  0.00000000000E+00  0.00000000000E+00  0.26028834659E+04  0.26028834659E+04  0.00000000000E+00 0. -1.
         -2   -1    0    0    0  501 -0.00000000000E+00 -0.00000000000E+00 -0.25572919501E+04  0.25572919501E+04  0.00000000000E+00 0.  1.
         23    2    1    2    0    0  0.41070513481E+03 -0.61630940749E+03  0.24934398346E+04  0.26027397110E+04  0.92172668014E+02 0.  0.
         13    1    3    3    0    0  0.34097580473E+03 -0.52775211796E+03  0.22138073550E+04  0.23012452722E+04  0.00000000000E+00 0.  1.
        -13    1    3    3    0    0  0.69729330082E+02 -0.88557289527E+02  0.27963247958E+03  0.30149443881E+03  0.00000000000E+00 0. -1.
         22    1    1    2    0    0 -0.41070513481E+03  0.61630940749E+03 -0.24478483188E+04  0.25574357050E+04  0.00000000000E+00 0.  1.
<mgrwt>
<rscale>  0 0.51599740E+04</rscale>
<asrwt>0</asrwt>
<pdfrwt beam="1">  1        2 0.40044361E+00 0.51599740E+04</pdfrwt>
<pdfrwt beam="2">  1       -2 0.39342953E+00 0.51599740E+04</pdfrwt>
<totfact> 0.17865359E-02</totfact>
</mgrwt>
</event>
<event>
 6    1  0.2238133E-007  0.2180169E+04  0.7818608E-02  0.8526728E-01
          2   -1    0    0  501    0  0.00000000000E+00  0.00000000000E+00  0.92704876483E+03  0.92704876483E+03  0.00000000000E+00 0. -1.
         -2   -1    0    0    0  501 -0.00000000000E+00 -0.00000000000E+00 -0.12817926666E+04  0.12817926666E+04  0.00000000000E+00 0.  1.
         23    2    1    2    0    0 -0.14991228882E+03  0.99690465146E+03 -0.59248353158E+03  0.11730747058E+04  0.93674712505E+02 0.  0.
         11    1    3    3    0    0 -0.30275458389E+02  0.14002446785E+03 -0.12238066563E+03  0.18841571669E+03  0.00000000000E+00 0.  1.
        -11    1    3    3    0    0 -0.11963683043E+03  0.85688018362E+03 -0.47010286595E+03  0.98465898912E+03  0.00000000000E+00 0. -1.
         22    1    1    2    0    0  0.14991228882E+03 -0.99690465146E+03  0.23773962977E+03  0.10357667257E+04  0.00000000000E+00 0. -1.
<mgrwt>
<rscale>  0 0.21801691E+04</rscale>
<asrwt>0</asrwt>
<pdfrwt beam="1">  1        2 0.14262289E+00 0.21801691E+04</pdfrwt>
<pdfrwt beam="2">  1       -2 0.19719887E+00 0.21801691E+04</pdfrwt>
<totfact> 0.35714906E+00</totfact>
</mgrwt>
</event>
<event>
 6    1  0.2238133E-007  0.2046471E+04  0.7818608E-02  0.8585197E-01
          1   -1    0    0  501    0  0.00000000000E+00  0.00000000000E+00  0.11853867854E+04  0.11853867854E+04  0.00000000000E+00 0. -1.
         -1   -1    0    0    0  501 -0.00000000000E+00 -0.00000000000E+00 -0.88326553129E+03  0.88326553129E+03  0.00000000000E+00 0.  1.
         23    2    1    2    0    0  0.44560858540E+03  0.16998530454E+03 -0.76160585662E+03  0.90290046436E+03  0.87884882479E+02 0.  0.
         13    1    3    3    0    0  0.33379707159E+03  0.85012514944E+02 -0.54799720690E+03  0.64726235134E+03  0.00000000000E+00 0.  1.
        -13    1    3    3    0    0  0.11181151381E+03  0.84972789595E+02 -0.21360864972E+03  0.25563811301E+03  0.00000000000E+00 0. -1.
         22    1    1    2    0    0 -0.44560858540E+03 -0.16998530454E+03  0.10637271108E+04  0.11657518524E+04  0.00000000000E+00 0. -1.
<mgrwt>
<rscale>  0 0.20464714E+04</rscale>
<asrwt>0</asrwt>
<pdfrwt beam="1">  1        1 0.18236720E+00 0.20464714E+04</pdfrwt>
<pdfrwt beam="2">  1       -1 0.13588701E+00 0.20464714E+04</pdfrwt>
<totfact> 0.45841652E+00</totfact>
</mgrwt>
</event>
<event>
 6    1  0.2238133E-007  0.1695322E+04  0.7818608E-02  0.8764037E-01
          2   -1    0    0  501    0  0.00000000000E+00  0.00000000000E+00  0.97849317211E+03  0.97849317211E+03  0.00000000000E+00 0. -1.
         -2   -1    0    0    0  501 -0.00000000000E+00 -0.00000000000E+00 -0.73432210538E+03  0.73432210538E+03  0.00000000000E+00 0.  1.
         23    2    1    2    0    0 -0.88904930595E+02 -0.61018388541E+03 -0.46167170155E+03  0.77556265720E+03  0.90156611116E+02 0.  0.
         11    1    3    3    0    0 -0.75120209836E+01 -0.34113531410E+03 -0.23264134779E+03  0.41297909110E+03  0.00000000000E+00 0. -1.
        -11    1    3    3    0    0 -0.81392909612E+02 -0.26904857131E+03 -0.22903035377E+03  0.36258356610E+03  0.00000000000E+00 0.  1.
         22    1    1    2    0    0  0.88904930595E+02  0.61018388541E+03  0.70584276829E+03  0.93725262029E+03  0.00000000000E+00 0. -1.
<mgrwt>
<rscale>  0 0.16953220E+04</rscale>
<asrwt>0</asrwt>
<pdfrwt beam="1">  1        2 0.15053741E+00 0.16953220E+04</pdfrwt>
<pdfrwt beam="2">  1       -2 0.11297263E+00 0.16953220E+04</pdfrwt>
<totfact> 0.15247169E+01</totfact>
</mgrwt>
</event>
<event>
 6    1  0.2238133E-007  0.5168638E+03  0.7818608E-02  0.1009469E+00
         -4   -1    0    0    0  501 -0.00000000000E+00  0.00000000000E+00  0.10486461857E+03  0.10486461857E+03  0.00000000000E+00 0.  1.
          4   -1    0    0  501    0  0.00000000000E+00 -0.00000000000E+00 -0.63688830874E+03  0.63688830874E+03  0.00000000000E+00 0. -1.
         23    2    1    2    0    0 -0.85871619370E+02  0.20233706304E+03 -0.44678598775E+03  0.50599947982E+03  0.90019623609E+02 0.  0.
         11    1    3    3    0    0 -0.56163946042E+02  0.19525602279E+03 -0.41415473321E+03  0.46130623918E+03  0.00000000000E+00 0. -1.
        -11    1    3    3    0    0 -0.29707673328E+02  0.70810402520E+01 -0.32631254540E+02  0.44693240635E+02  0.00000000000E+00 0.  1.
         22    1    1    2    0    0  0.85871619370E+02 -0.20233706304E+03 -0.85237702416E+02  0.23575344749E+03  0.00000000000E+00 0.  1.
<mgrwt>
<rscale>  0 0.51686381E+03</rscale>
<asrwt>0</asrwt>
<pdfrwt beam="1">  1        4 0.97982816E-01 0.51686381E+03</pdfrwt>
<pdfrwt beam="2">  1       -4 0.16133018E-01 0.51686381E+03</pdfrwt>
<totfact> 0.57928468E+01</totfact>
</mgrwt>
</event>
<event>
 6    1  0.2238133E-007  0.1825008E+04  0.7818608E-02  0.8693113E-01
         -2   -1    0    0    0  501 -0.00000000000E+00  0.00000000000E+00  0.65246640568E+03  0.65246640568E+03  0.00000000000E+00 0.  1.
          2   -1    0    0  501    0  0.00000000000E+00 -0.00000000000E+00 -0.12761781277E+04  0.12761781277E+04  0.00000000000E+00 0. -1.
         23    2    1    2    0    0 -0.12022898629E+02 -0.43701286643E+03 -0.11564203244E+04  0.12395122887E+04  0.89207351749E+02 0.  0.
         11    1    3    3    0    0 -0.21784560454E+02 -0.23523734210E+03 -0.50578936909E+03  0.55824193687E+03  0.00000000000E+00 0. -1.
        -11    1    3    3    0    0  0.97616618251E+01 -0.20177552432E+03 -0.65063095536E+03  0.68127035186E+03  0.00000000000E+00 0.  1.
         22    1    1    2    0    0  0.12022898629E+02  0.43701286643E+03  0.53270860243E+03  0.68913224465E+03  0.00000000000E+00 0.  1.
<mgrwt>
<rscale>  0 0.18250078E+04</rscale>
<asrwt>0</asrwt>
<pdfrwt beam="1">  1        2 0.19633510E+00 0.18250078E+04</pdfrwt>
<pdfrwt beam="2">  1       -2 0.10037945E+00 0.18250078E+04</pdfrwt>
<totfact> 0.13168661E+01</totfact>
</mgrwt>
</event>
<event>
 6    1  0.2238133E-007  0.1848719E+04  0.7818608E-02  0.8680812E-01
         -2   -1    0    0    0  501 -0.00000000000E+00  0.00000000000E+00  0.10528669060E+04  0.10528669060E+04  0.00000000000E+00 0.  1.
          2   -1    0    0  501    0  0.00000000000E+00 -0.00000000000E+00 -0.81153742155E+03  0.81153742155E+03  0.00000000000E+00 0. -1.
         23    2    1    2    0    0  0.41085087445E+03  0.81870458033E+03  0.17530841946E+02  0.92145074264E+03  0.98430228086E+02 0.  0.
         11    1    3    3    0    0  0.11594428225E+03  0.15444300416E+03 -0.16853250119E+02  0.19385497198E+03  0.00000000000E+00 0.  1.
        -11    1    3    3    0    0  0.29490659220E+03  0.66426157617E+03  0.34384092065E+02  0.72759577066E+03  0.00000000000E+00 0. -1.
         22    1    1    2    0    0 -0.41085087445E+03 -0.81870458033E+03  0.22379864248E+03  0.94295358489E+03  0.00000000000E+00 0.  1.
<mgrwt>
<rscale>  0 0.18487194E+04</rscale>
<asrwt>0</asrwt>
<pdfrwt beam="1">  1        2 0.12485191E+00 0.18487194E+04</pdfrwt>
<pdfrwt beam="2">  1       -2 0.16197952E+00 0.18487194E+04</pdfrwt>
<totfact> 0.77370094E+00</totfact>
</mgrwt>
</event>
<event>
 6    1  0.2238133E-007  0.2818406E+03  0.7818608E-02  0.1094688E+00
         -2   -1    0    0    0  501 -0.00000000000E+00  0.00000000000E+00  0.13520441776E+03  0.13520441776E+03  0.00000000000E+00 0.  1.
          2   -1    0    0  501    0  0.00000000000E+00 -0.00000000000E+00 -0.14687779780E+03  0.14687779780E+03  0.00000000000E+00 0. -1.
         23    2    1    2    0    0  0.23710040810E+02 -0.11239550126E+03 -0.63648151488E+02  0.15600171903E+03  0.84205311079E+02 0.  0.
         13    1    3    3    0    0 -0.30485611035E+02 -0.29963718978E+02 -0.10812400219E+02  0.44092005326E+02  0.00000000000E+00 0.  1.
        -13    1    3    3    0    0  0.54195651846E+02 -0.82431782279E+02 -0.52835751269E+02  0.11190971370E+03  0.00000000000E+00 0. -1.
         22    1    1    2    0    0 -0.23710040810E+02  0.11239550126E+03  0.51974771450E+02  0.12608049653E+03  0.00000000000E+00 0.  1.
<mgrwt>
<rscale>  0 0.28184057E+03</rscale>
<asrwt>0</asrwt>
<pdfrwt beam="1">  1        2 0.22596584E-01 0.28184057E+03</pdfrwt>
<pdfrwt beam="2">  1       -2 0.20800680E-01 0.28184057E+03</pdfrwt>
<totfact> 0.47136114E+03</totfact>
</mgrwt>
</event>
<event>
 6    1  0.2238133E-007  0.1986861E+04  0.7818608E-02  0.8612788E-01
         -2   -1    0    0    0  501 -0.00000000000E+00  0.00000000000E+00  0.48000228378E+03  0.48000228378E+03  0.00000000000E+00 0.  1.
          2   -1    0    0  501    0  0.00000000000E+00 -0.00000000000E+00 -0.20560405804E+04  0.20560405804E+04  0.00000000000E+00 0. -1.
         23    2    1    2    0    0  0.78932377546E+03  0.56143256973E+03 -0.52020569522E+03  0.11032061550E+04  0.90616236587E+02 0.  0.
         11    1    3    3    0    0  0.13781749344E+03  0.14246290434E+03 -0.11038035870E+03  0.22687698032E+03  0.00000000000E+00 0. -1.
        -11    1    3    3    0    0  0.65150628202E+03  0.41896966539E+03 -0.40982533652E+03  0.87632917473E+03  0.00000000000E+00 0.  1.
         22    1    1    2    0    0 -0.78932377546E+03 -0.56143256973E+03 -0.10558326014E+04  0.14328367091E+04  0.00000000000E+00 0. -1.
<mgrwt>
<rscale>  0 0.19868610E+04</rscale>
<asrwt>0</asrwt>
<pdfrwt beam="1">  1        2 0.31631393E+00 0.19868610E+04</pdfrwt>
<pdfrwt beam="2">  1       -2 0.73846506E-01 0.19868610E+04</pdfrwt>
<totfact> 0.95558985E+00</totfact>
</mgrwt>
</event>
<event>
 6    1  0.2238133E-007  0.7922445E+03  0.7818608E-02  0.9571311E-01
         -2   -1    0    0    0  501 -0.00000000000E+00  0.00000000000E+00  0.22783934825E+03  0.22783934825E+03  0.00000000000E+00 0.  1.
          2   -1    0    0  501    0  0.00000000000E+00 -0.00000000000E+00 -0.68869942465E+03  0.68869942465E+03  0.00000000000E+00 0. -1.
         23    2    1    2    0    0  0.26712904388E+03 -0.13484864043E+03 -0.52575872405E+03  0.61034615969E+03  0.80982200692E+02 0.  0.
         11    1    3    3    0    0  0.93419833713E+02 -0.59576996573E+02 -0.12446803493E+03  0.16664025796E+03  0.00000000000E+00 0.  1.
        -11    1    3    3    0    0  0.17370921017E+03 -0.75271643859E+02 -0.40129068911E+03  0.44370590174E+03  0.00000000000E+00 0. -1.
         22    1    1    2    0    0 -0.26712904388E+03  0.13484864043E+03  0.64898647648E+02  0.30619261320E+03  0.00000000000E+00 0.  1.
<mgrwt>
<rscale>  0 0.79224448E+03</rscale>
<asrwt>0</asrwt>
<pdfrwt beam="1">  1        2 0.10595376E+00 0.79224448E+03</pdfrwt>
<pdfrwt beam="2">  1       -2 0.35052208E-01 0.79224448E+03</pdfrwt>
<totfact> 0.32121324E+02</totfact>
</mgrwt>
</event>
<event>
 6    1  0.2238133E-007  0.1707018E+04  0.7818608E-02  0.8757372E-01
          2   -1    0    0  501    0  0.00000000000E+00  0.00000000000E+00  0.29490261579E+04  0.29490261579E+04  0.00000000000E+00 0. -1.
         -2   -1    0    0    0  501 -0.00000000000E+00 -0.00000000000E+00 -0.24702310940E+03  0.24702310940E+03  0.00000000000E+00 0.  1.
         23    2    1    2    0    0  0.46219784516E+03 -0.53514142030E+03  0.46814432570E+03  0.85294705417E+03  0.91413236061E+02 0.  0.
         11    1    3    3    0    0  0.14750252486E+03 -0.13383019647E+03  0.17237464932E+03  0.26340185279E+03  0.00000000000E+00 0.  1.
        -11    1    3    3    0    0  0.31469532030E+03 -0.40131122383E+03  0.29576967638E+03  0.58954520137E+03  0.00000000000E+00 0. -1.
         22    1    1    2    0    0 -0.46219784516E+03  0.53514142030E+03  0.22338587228E+04  0.23431022132E+04  0.00000000000E+00 0. -1.
<mgrwt>
<rscale>  0 0.17070180E+04</rscale>
<asrwt>0</asrwt>
<pdfrwt beam="1">  1        2 0.45369631E+00 0.17070180E+04</pdfrwt>
<pdfrwt beam="2">  1       -2 0.38003557E-01 0.17070180E+04</pdfrwt>
<totfact> 0.11696319E+01</totfact>
</mgrwt>
</event>
<event>
 6    1  0.2238133E-007  0.9551864E+03  0.7818608E-02  0.9359109E-01
          2   -1    0    0  501    0  0.00000000000E+00  0.00000000000E+00  0.24173174724E+04  0.24173174724E+04  0.00000000000E+00 0. -1.
         -2   -1    0    0    0  501 -0.00000000000E+00 -0.00000000000E+00 -0.94358838333E+02  0.94358838333E+02  0.00000000000E+00 0.  1.
         23    2    1    2    0    0  0.40710623522E+03  0.12404108454E+03  0.60510838608E+03  0.74189351278E+03  0.55929848850E+02 0.  0.
         13    1    3    3    0    0  0.34006815742E+03  0.81369845678E+02  0.48645801722E+03  0.59908998155E+03  0.00000000000E+00 0.  1.
        -13    1    3    3    0    0  0.67038077804E+02  0.42671238863E+02  0.11865036886E+03  0.14280353123E+03  0.00000000000E+00 0. -1.
         22    1    1    2    0    0 -0.40710623522E+03 -0.12404108454E+03  0.17178502480E+04  0.17697827979E+04  0.00000000000E+00 0. -1.
<mgrwt>
<rscale>  0 0.95518641E+03</rscale>
<asrwt>0</asrwt>
<pdfrwt beam="1">  1        2 0.37189495E+00 0.95518641E+03</pdfrwt>
<pdfrwt beam="2">  1       -2 0.14516746E-01 0.95518641E+03</pdfrwt>
<totfact> 0.14612536E+02</totfact>
</mgrwt>
</event>
<event>
 6    1  0.2238133E-007  0.5889431E+03  0.7818608E-02  0.9928615E-01
         -2   -1    0    0    0  501 -0.00000000000E+00  0.00000000000E+00  0.17406278326E+03  0.17406278326E+03  0.00000000000E+00 0.  1.
          2   -1    0    0  501    0  0.00000000000E+00 -0.00000000000E+00 -0.49817368885E+03  0.49817368885E+03  0.00000000000E+00 0. -1.
         23    2    1    2    0    0 -0.17344352399E+03 -0.22607157420E+03 -0.20809942980E+03  0.36458459874E+03  0.91790763564E+02 0.  0.
         11    1    3    3    0    0 -0.42648756019E+02 -0.11493634211E+03 -0.12045230261E+03  0.17186633275E+03  0.00000000000E+00 0.  1.
        -11    1    3    3    0    0 -0.13079476797E+03 -0.11113523209E+03 -0.87647127190E+02  0.19271826599E+03  0.00000000000E+00 0. -1.
         22    1    1    2    0    0  0.17344352399E+03  0.22607157420E+03 -0.11601147579E+03  0.30765187338E+03  0.00000000000E+00 0. -1.
<mgrwt>
<rscale>  0 0.58894312E+03</rscale>
<asrwt>0</asrwt>
<pdfrwt beam="1">  1        2 0.76642104E-01 0.58894312E+03</pdfrwt>
<pdfrwt beam="2">  1       -2 0.26778890E-01 0.58894312E+03</pdfrwt>
<totfact> 0.78583326E+02</totfact>
</mgrwt>
</event>
<event>
 6    1  0.2238133E-007  0.3952430E+04  0.7818608E-02  0.8014212E-01
          2   -1    0    0  501    0  0.00000000000E+00  0.00000000000E+00  0.35982669726E+04  0.35982669726E+04  0.00000000000E+00 0. -1.
         -2   -1    0    0    0  501 -0.00000000000E+00 -0.00000000000E+00 -0.10853629557E+04  0.10853629557E+04  0.00000000000E+00 0.  1.
         23    2    1    2    0    0  0.31624977918E+03 -0.75106701227E+03 -0.87496596447E+03  0.11991244268E+04  0.90655238218E+02 0.  0.
         13    1    3    3    0    0  0.17502337920E+03 -0.46586195982E+03 -0.47466074272E+03  0.68772332340E+03  0.00000000000E+00 0. -1.
        -13    1    3    3    0    0  0.14122639998E+03 -0.28520505245E+03 -0.40030522175E+03  0.51140110339E+03  0.00000000000E+00 0.  1.
         22    1    1    2    0    0 -0.31624977918E+03  0.75106701227E+03  0.33878699813E+04  0.34845055015E+04  0.00000000000E+00 0. -1.
<mgrwt>
<rscale>  0 0.39524300E+04</rscale>
<asrwt>0</asrwt>
<pdfrwt beam="1">  1        2 0.55357953E+00 0.39524300E+04</pdfrwt>
<pdfrwt beam="2">  1       -2 0.16697892E+00 0.39524300E+04</pdfrwt>
<totfact> 0.12256940E-01</totfact>
</mgrwt>
</event>
<event>
 6    1  0.2238133E-007  0.4300648E+04  0.7818608E-02  0.7946498E-01
         -4   -1    0    0    0  501 -0.00000000000E+00  0.00000000000E+00  0.29256553121E+04  0.29256553121E+04  0.00000000000E+00 0.  1.
          4   -1    0    0  501    0  0.00000000000E+00 -0.00000000000E+00 -0.15804642443E+04  0.15804642443E+04  0.00000000000E+00 0. -1.
         23    2    1    2    0    0  0.14727346484E+04 -0.12970824572E+04  0.15913282435E+04  0.25282535967E+04  0.91490026876E+02 0.  0.
         13    1    3    3    0    0  0.35109251381E+03 -0.36135360798E+03  0.39782040784E+03  0.64195284885E+03  0.00000000000E+00 0. -1.
        -13    1    3    3    0    0  0.11216421346E+04 -0.93572884923E+03  0.11935078357E+04  0.18863007478E+04  0.00000000000E+00 0.  1.
         22    1    1    2    0    0 -0.14727346484E+04  0.12970824572E+04 -0.24613717571E+03  0.19778659597E+04  0.00000000000E+00 0. -1.
<mgrwt>
<rscale>  0 0.43006481E+04</rscale>
<asrwt>0</asrwt>
<pdfrwt beam="1">  1        4 0.24314834E+00 0.43006481E+04</pdfrwt>
<pdfrwt beam="2">  1       -4 0.45010082E+00 0.43006481E+04</pdfrwt>
<totfact> 0.30853653E-04</totfact>
</mgrwt>
</event>
<event>
 6    1  0.2238133E-007  0.1688970E+04  0.7818608E-02  0.8767680E-01
          2   -1    0    0  501    0  0.00000000000E+00  0.00000000000E+00  0.12147121301E+04  0.12147121301E+04  0.00000000000E+00 0. -1.
         -2   -1    0    0    0  501 -0.00000000000E+00 -0.00000000000E+00 -0.58709765327E+03  0.58709765327E+03  0.00000000000E+00 0.  1.
         23    2    1    2    0    0  0.56536045779E+03 -0.14152543369E+02 -0.35087931397E+03  0.67164039768E+03  0.90287258794E+02 0.  0.
         11    1    3    3    0    0  0.29639856256E+03  0.23408707836E+02 -0.14466335648E+03  0.33064718688E+03  0.00000000000E+00 0.  1.
        -11    1    3    3    0    0  0.26896189524E+03 -0.37561251205E+02 -0.20621595750E+03  0.34099321080E+03  0.00000000000E+00 0. -1.
         22    1    1    2    0    0 -0.56536045779E+03  0.14152543369E+02  0.97849379082E+03  0.11301693857E+04  0.00000000000E+00 0. -1.
<mgrwt>
<rscale>  0 0.16889697E+04</rscale>
<asrwt>0</asrwt>
<pdfrwt beam="1">  1        2 0.18687879E+00 0.16889697E+04</pdfrwt>
<pdfrwt beam="2">  1       -2 0.90322716E-01 0.16889697E+04</pdfrwt>
<totfact> 0.18530574E+01</totfact>
</mgrwt>
</event>
<event>
 6    1  0.2238133E-007  0.2068348E+04  0.7818608E-02  0.8575316E-01
          2   -1    0    0  501    0  0.00000000000E+00  0.00000000000E+00  0.11749295888E+04  0.11749295888E+04  0.00000000000E+00 0. -1.
         -2   -1    0    0    0  501 -0.00000000000E+00 -0.00000000000E+00 -0.91028062300E+03  0.91028062300E+03  0.00000000000E+00 0.  1.
         23    2    1    2    0    0 -0.14508213285E+03  0.96461338070E+03  0.47328068857E+03  0.10876857784E+04  0.86821327471E+02 0.  0.
         11    1    3    3    0    0 -0.58712302773E+02  0.46917445469E+03  0.18299938325E+03  0.50701141772E+03  0.00000000000E+00 0. -1.
        -11    1    3    3    0    0 -0.86369830076E+02  0.49543892601E+03  0.29028130532E+03  0.58067436070E+03  0.00000000000E+00 0.  1.
         22    1    1    2    0    0  0.14508213285E+03 -0.96461338070E+03 -0.20863172275E+03  0.99752443340E+03  0.00000000000E+00 0.  1.
<mgrwt>
<rscale>  0 0.20683478E+04</rscale>
<asrwt>0</asrwt>
<pdfrwt beam="1">  1        2 0.18075840E+00 0.20683478E+04</pdfrwt>
<pdfrwt beam="2">  1       -2 0.14004317E+00 0.20683478E+04</pdfrwt>
<totfact> 0.65024752E+00</totfact>
</mgrwt>
</event>
<event>
 6    1  0.2238133E-007  0.2095994E+04  0.7818608E-02  0.8563010E-01
         -1   -1    0    0    0  501 -0.00000000000E+00  0.00000000000E+00  0.11133993383E+04  0.11133993383E+04  0.00000000000E+00 0.  1.
          1   -1    0    0  501    0  0.00000000000E+00 -0.00000000000E+00 -0.98643606986E+03  0.98643606986E+03  0.00000000000E+00 0. -1.
         23    2    1    2    0    0 -0.56002206644E+03 -0.25974426998E+03 -0.78185406548E+03  0.10011813465E+04  0.99882472289E+02 0.  0.
         13    1    3    3    0    0 -0.35188132682E+03 -0.21340743882E+03 -0.49431992945E+03  0.64320711731E+03  0.00000000000E+00 0.  1.
        -13    1    3    3    0    0 -0.20814073961E+03 -0.46336831160E+02 -0.28753413604E+03  0.35797422923E+03  0.00000000000E+00 0. -1.
         22    1    1    2    0    0  0.56002206644E+03  0.25974426998E+03  0.90881733397E+03  0.10986540617E+04  0.00000000000E+00 0.  1.
<mgrwt>
<rscale>  0 0.20959936E+04</rscale>
<asrwt>0</asrwt>
<pdfrwt beam="1">  1        1 0.15175940E+00 0.20959936E+04</pdfrwt>
<pdfrwt beam="2">  1       -1 0.17129221E+00 0.20959936E+04</pdfrwt>
<totfact> 0.34345425E+00</totfact>
</mgrwt>
</event>
<event>
 6    1  0.2238133E-007  0.1964286E+04  0.7818608E-02  0.8623503E-01
         -2   -1    0    0    0  501 -0.00000000000E+00  0.00000000000E+00  0.14647740603E+04  0.14647740603E+04  0.00000000000E+00 0.  1.
          2   -1    0    0  501    0  0.00000000000E+00 -0.00000000000E+00 -0.65853466160E+03  0.65853466160E+03  0.00000000000E+00 0. -1.
         23    2    1    2    0    0 -0.72060807030E+02  0.30454927294E+03 -0.60046726061E+03  0.68220961189E+03  0.83102370168E+02 0.  0.
         13    1    3    3    0    0 -0.37586164190E+02  0.60421844546E+02 -0.85295480743E+02  0.11108032261E+03  0.00000000000E+00 0. -1.
        -13    1    3    3    0    0 -0.34474642840E+02  0.24412742839E+03 -0.51517177987E+03  0.57112928927E+03  0.00000000000E+00 0.  1.
         22    1    1    2    0    0  0.72060807030E+02 -0.30454927294E+03  0.14067066593E+04  0.14410991100E+04  0.00000000000E+00 0.  1.
<mgrwt>
<rscale>  0 0.19642856E+04</rscale>
<asrwt>0</asrwt>
<pdfrwt beam="1">  1        2 0.10131302E+00 0.19642856E+04</pdfrwt>
<pdfrwt beam="2">  1       -2 0.22534986E+00 0.19642856E+04</pdfrwt>
<totfact> 0.37671648E+00</totfact>
</mgrwt>
</event>
<event>
 6    1  0.2238133E-007  0.2598832E+04  0.7818608E-02  0.8368598E-01
         -4   -1    0    0    0  501 -0.00000000000E+00  0.00000000000E+00  0.13882355903E+04  0.13882355903E+04  0.00000000000E+00 0.  1.
          4   -1    0    0  501    0  0.00000000000E+00 -0.00000000000E+00 -0.12162790488E+04  0.12162790488E+04  0.00000000000E+00 0. -1.
         23    2    1    2    0    0  0.11260370728E+04 -0.58169816757E+03  0.36591143055E+03  0.13223482121E+04  0.91549831776E+02 0.  0.
         11    1    3    3    0    0  0.48876748960E+03 -0.20287488101E+03  0.16246846077E+03  0.55357734507E+03  0.00000000000E+00 0.  1.
        -11    1    3    3    0    0  0.63726958315E+03 -0.37882328656E+03  0.20344296978E+03  0.76877086704E+03  0.00000000000E+00 0. -1.
         22    1    1    2    0    0 -0.11260370728E+04  0.58169816757E+03 -0.19395488906E+03  0.12821664269E+04  0.00000000000E+00 0.  1.
<mgrwt>
<rscale>  0 0.25988319E+04</rscale>
<asrwt>0</asrwt>
<pdfrwt beam="1">  1        4 0.18711985E+00 0.25988319E+04</pdfrwt>
<pdfrwt beam="2">  1       -4 0.21357471E+00 0.25988319E+04</pdfrwt>
<totfact> 0.30369108E-02</totfact>
</mgrwt>
</event>
<event>
 6    1  0.2238133E-007  0.1506285E+04  0.7818608E-02  0.8880284E-01
          2   -1    0    0  501    0  0.00000000000E+00  0.00000000000E+00  0.17642200247E+04  0.17642200247E+04  0.00000000000E+00 0. -1.
         -2   -1    0    0    0  501 -0.00000000000E+00 -0.00000000000E+00 -0.32151528355E+03  0.32151528355E+03  0.00000000000E+00 0.  1.
         23    2    1    2    0    0  0.44348556927E+03  0.60234153655E+03  0.64272501087E+03  0.99053562523E+03  0.92577580734E+02 0.  0.
         13    1    3    3    0    0  0.15071293786E+03  0.27727723763E+03  0.24933040487E+03  0.40219734825E+03  0.00000000000E+00 0. -1.
        -13    1    3    3    0    0  0.29277263141E+03  0.32506429893E+03  0.39339460600E+03  0.58833827699E+03  0.00000000000E+00 0.  1.
         22    1    1    2    0    0 -0.44348556927E+03 -0.60234153655E+03  0.79997973027E+03  0.10951996830E+04  0.00000000000E+00 0.  1.
<mgrwt>
<rscale>  0 0.15062851E+04</rscale>
<asrwt>0</asrwt>
<pdfrwt beam="1">  1        2 0.27141846E+00 0.15062851E+04</pdfrwt>
<pdfrwt beam="2">  1       -2 0.49463891E-01 0.15062851E+04</pdfrwt>
<totfact> 0.33743141E+01</totfact>
</mgrwt>
</event>
<event>
 6    1  0.2238133E-007  0.4076130E+04  0.7818608E-02  0.7989362E-01
         -2   -1    0    0    0  501 -0.00000000000E+00  0.00000000000E+00  0.22883054972E+04  0.22883054972E+04  0.00000000000E+00 0.  1.
          2   -1    0    0  501    0  0.00000000000E+00 -0.00000000000E+00 -0.18151900108E+04  0.18151900108E+04  0.00000000000E+00 0. -1.
         23    2    1    2    0    0  0.24779164499E+03  0.18508217529E+04 -0.58262705312E+03  0.19583768236E+04  0.94040630383E+02 0.  0.
         11    1    3    3    0    0  0.93702614624E+02  0.85214020556E+03 -0.31175364192E+03  0.91220252311E+03  0.00000000000E+00 0. -1.
        -11    1    3    3    0    0  0.15408903037E+03  0.99868154730E+03 -0.27087341121E+03  0.10461743005E+04  0.00000000000E+00 0.  1.
         22    1    1    2    0    0 -0.24779164499E+03 -0.18508217529E+04  0.10557425395E+04  0.21451186843E+04  0.00000000000E+00 0. -1.
<mgrwt>
<rscale>  0 0.40761302E+04</rscale>
<asrwt>0</asrwt>
<pdfrwt beam="1">  1        2 0.27926000E+00 0.40761302E+04</pdfrwt>
<pdfrwt beam="2">  1       -2 0.35204700E+00 0.40761302E+04</pdfrwt>
<totfact> 0.10018512E-01</totfact>
</mgrwt>
</event>
<event>
 6    1  0.2238133E-007  0.2019315E+04  0.7818608E-02  0.8597643E-01
         -2   -1    0    0    0  501 -0.00000000000E+00  0.00000000000E+00  0.30753289450E+03  0.30753289450E+03  0.00000000000E+00 0.  1.
          2   -1    0    0  501    0  0.00000000000E+00 -0.00000000000E+00 -0.33147930738E+04  0.33147930738E+04  0.00000000000E+00 0. -1.
         23    2    1    2    0    0 -0.21693725427E+03  0.98303141142E+03 -0.14283450829E+04  0.17497914800E+04  0.90487676364E+02 0.  0.
         13    1    3    3    0    0 -0.11370812690E+03  0.68966868319E+03 -0.10195927984E+04  0.12361803692E+04  0.00000000000E+00 0.  1.
        -13    1    3    3    0    0 -0.10322912737E+03  0.29336272823E+03 -0.40875228451E+03  0.51361111081E+03  0.00000000000E+00 0. -1.
         22    1    1    2    0    0  0.21693725427E+03 -0.98303141142E+03 -0.15789150964E+04  0.18725344883E+04  0.00000000000E+00 0.  1.
<mgrwt>
<rscale>  0 0.20193146E+04</rscale>
<asrwt>0</asrwt>
<pdfrwt beam="1">  1        2 0.50996817E+00 0.20193146E+04</pdfrwt>
<pdfrwt beam="2">  1       -2 0.47312752E-01 0.20193146E+04</pdfrwt>
<totfact> 0.42935219E+00</totfact>
</mgrwt>
</event>
<event>
 6    1  0.2238133E-007  0.1499248E+04  0.7818608E-02  0.8884953E-01
          2   -1    0    0  501    0  0.00000000000E+00  0.00000000000E+00  0.24147703847E+03  0.24147703847E+03  0.00000000000E+00 0. -1.
         -2   -1    0    0    0  501 -0.00000000000E+00 -0.00000000000E+00 -0.23270790984E+04  0.23270790984E+04  0.00000000000E+00 0.  1.
         23    2    1    2    0    0 -0.75231887803E+02 -0.72686317981E+03 -0.78222790684E+03  0.10743091352E+04  0.90937894018E+02 0.  0.
         13    1    3    3    0    0  0.11380437043E+02 -0.29000660356E+03 -0.28444347870E+03  0.40637597989E+03  0.00000000000E+00 0.  1.
        -13    1    3    3    0    0 -0.86612324846E+02 -0.43685657625E+03 -0.49778442814E+03  0.66793315528E+03  0.00000000000E+00 0. -1.
         22    1    1    2    0    0  0.75231887803E+02  0.72686317981E+03 -0.13033741531E+04  0.14942470017E+04  0.00000000000E+00 0.  1.
<mgrwt>
<rscale>  0 0.14992480E+04</rscale>
<asrwt>0</asrwt>
<pdfrwt beam="1">  1        2 0.37150314E-01 0.14992480E+04</pdfrwt>
<pdfrwt beam="2">  1       -2 0.35801217E+00 0.14992480E+04</pdfrwt>
<totfact> 0.18862387E+00</totfact>
</mgrwt>
</event>
<event>
 6    1  0.2238133E-007  0.1362226E+04  0.7818608E-02  0.8981624E-01
         -1   -1    0    0    0  501 -0.00000000000E+00  0.00000000000E+00  0.28775588854E+03  0.28775588854E+03  0.00000000000E+00 0.  1.
          1   -1    0    0  501    0  0.00000000000E+00 -0.00000000000E+00 -0.16121830416E+04  0.16121830416E+04  0.00000000000E+00 0. -1.
         23    2    1    2    0    0  0.65921295642E+03 -0.10397420616E+03 -0.83290101283E+03  0.10711022128E+04  0.90352065273E+02 0.  0.
         11    1    3    3    0    0  0.42940477282E+03 -0.46384964588E+02 -0.47616850900E+03  0.64286582801E+03  0.00000000000E+00 0.  1.
        -11    1    3    3    0    0  0.22980818359E+03 -0.57589241569E+02 -0.35673250383E+03  0.42823638482E+03  0.00000000000E+00 0. -1.
         22    1    1    2    0    0 -0.65921295642E+03  0.10397420616E+03 -0.49152614027E+03  0.82883671735E+03  0.00000000000E+00 0. -1.
<mgrwt>
<rscale>  0 0.13622264E+04</rscale>
<asrwt>0</asrwt>
<pdfrwt beam="1">  1        1 0.24802816E+00 0.13622264E+04</pdfrwt>
<pdfrwt beam="2">  1       -1 0.44270136E-01 0.13622264E+04</pdfrwt>
<totfact> 0.27027845E+01</totfact>
</mgrwt>
</event>
<event>
 6    1  0.2238133E-007  0.1806680E+04  0.7818608E-02  0.8702755E-01
          2   -1    0    0  501    0  0.00000000000E+00  0.00000000000E+00  0.14973868511E+04  0.14973868511E+04  0.00000000000E+00 0. -1.
         -2   -1    0    0    0  501 -0.00000000000E+00 -0.00000000000E+00 -0.54496471129E+03  0.54496471129E+03  0.00000000000E+00 0.  1.
         23    2    1    2    0    0 -0.46363317899E+03  0.39967361627E+03 -0.27007595354E+03  0.67516601812E+03  0.90627849628E+02 0.  0.
         11    1    3    3    0    0 -0.13884243511E+03  0.17328721105E+03 -0.11405619819E+03  0.24962871558E+03  0.00000000000E+00 0.  1.
        -11    1    3    3    0    0 -0.32479074389E+03  0.22638640523E+03 -0.15601975535E+03  0.42553730253E+03  0.00000000000E+00 0. -1.
         22    1    1    2    0    0  0.46363317899E+03 -0.39967361627E+03  0.12224980933E+04  0.13671855442E+04  0.00000000000E+00 0. -1.
<mgrwt>
<rscale>  0 0.18066798E+04</rscale>
<asrwt>0</asrwt>
<pdfrwt beam="1">  1        2 0.23036721E+00 0.18066798E+04</pdfrwt>
<pdfrwt beam="2">  1       -2 0.83840725E-01 0.18066798E+04</pdfrwt>
<totfact> 0.14940861E+01</totfact>
</mgrwt>
</event>
<event>
 6    1  0.2238133E-007  0.1710449E+04  0.7818608E-02  0.8755427E-01
         -2   -1    0    0    0  501 -0.00000000000E+00  0.00000000000E+00  0.56619750009E+03  0.56619750009E+03  0.00000000000E+00 0.  1.
          2   -1    0    0  501    0  0.00000000000E+00 -0.00000000000E+00 -0.12917917419E+04  0.12917917419E+04  0.00000000000E+00 0. -1.
         23    2    1    2    0    0  0.44724475561E+03 -0.79283457854E+02 -0.11478634065E+04  0.12378078286E+04  0.90906998927E+02 0.  0.
         13    1    3    3    0    0  0.29100955366E+03 -0.68290611025E+02 -0.64043812016E+03  0.70676103007E+03  0.00000000000E+00 0.  1.
        -13    1    3    3    0    0  0.15623520195E+03 -0.10992846829E+02 -0.50742528634E+03  0.53104679853E+03  0.00000000000E+00 0. -1.
         22    1    1    2    0    0 -0.44724475561E+03  0.79283457854E+02  0.42226916467E+03  0.62018141341E+03  0.00000000000E+00 0.  1.
<mgrwt>
<rscale>  0 0.17104494E+04</rscale>
<asrwt>0</asrwt>
<pdfrwt beam="1">  1        2 0.19873719E+00 0.17104494E+04</pdfrwt>
<pdfrwt beam="2">  1       -2 0.87107308E-01 0.17104494E+04</pdfrwt>
<totfact> 0.18108218E+01</totfact>
</mgrwt>
</event>
<event>
 6    1  0.2238133E-007  0.2533283E+04  0.7818608E-02  0.8391223E-01
          2   -1    0    0  501    0  0.00000000000E+00  0.00000000000E+00  0.27388302307E+04  0.27388302307E+04  0.00000000000E+00 0. -1.
         -2   -1    0    0    0  501 -0.00000000000E+00 -0.00000000000E+00 -0.58579039261E+03  0.58579039261E+03  0.00000000000E+00 0.  1.
         23    2    1    2    0    0 -0.37479992356E+03  0.11229409049E+04  0.49309016489E+03  0.12857718854E+04  0.92737111934E+02 0.  0.
         11    1    3    3    0    0 -0.26168008184E+03  0.63996915615E+03  0.29078178397E+03  0.75006068550E+03  0.00000000000E+00 0. -1.
        -11    1    3    3    0    0 -0.11311984172E+03  0.48297174875E+03  0.20230838093E+03  0.53571119988E+03  0.00000000000E+00 0.  1.
         22    1    1    2    0    0  0.37479992356E+03 -0.11229409049E+04  0.16599496732E+04  0.20388487379E+04  0.00000000000E+00 0. -1.
<mgrwt>
<rscale>  0 0.25332828E+04</rscale>
<asrwt>0</asrwt>
<pdfrwt beam="1">  1        2 0.42135849E+00 0.25332828E+04</pdfrwt>
<pdfrwt beam="2">  1       -2 0.90121601E-01 0.25332828E+04</pdfrwt>
<totfact> 0.23584618E+00</totfact>
</mgrwt>
</event>
<event>
 6    1  0.2238133E-007  0.1828578E+04  0.7818608E-02  0.8691248E-01
          2   -1    0    0  501    0  0.00000000000E+00  0.00000000000E+00  0.10436424102E+04  0.10436424102E+04  0.00000000000E+00 0. -1.
         -2   -1    0    0    0  501 -0.00000000000E+00 -0.00000000000E+00 -0.80096844052E+03  0.80096844052E+03  0.00000000000E+00 0.  1.
         23    2    1    2    0    0 -0.45129322750E+02  0.60091133409E+03 -0.56985901051E+03  0.83300770170E+03  0.77662423517E+02 0.  0.
         13    1    3    3    0    0 -0.13403751677E+02  0.30138277886E+03 -0.23343070422E+03  0.38144610842E+03  0.00000000000E+00 0.  1.
        -13    1    3    3    0    0 -0.31725571073E+02  0.29952855523E+03 -0.33642830629E+03  0.45156159329E+03  0.00000000000E+00 0. -1.
         22    1    1    2    0    0  0.45129322750E+02 -0.60091133409E+03  0.81253298019E+03  0.10116031490E+04  0.00000000000E+00 0. -1.
<mgrwt>
<rscale>  0 0.18285783E+04</rscale>
<asrwt>0</asrwt>
<pdfrwt beam="1">  1        2 0.16056037E+00 0.18285783E+04</pdfrwt>
<pdfrwt beam="2">  1       -2 0.12322591E+00 0.18285783E+04</pdfrwt>
<totfact> 0.11060333E+01</totfact>
</mgrwt>
</event>
<event>
 6    1  0.2238133E-007  0.1467254E+04  0.7818608E-02  0.8906525E-01
          2   -1    0    0  501    0  0.00000000000E+00  0.00000000000E+00  0.94177687761E+03  0.94177687761E+03  0.00000000000E+00 0. -1.
         -2   -1    0    0    0  501 -0.00000000000E+00 -0.00000000000E+00 -0.57148205226E+03  0.57148205226E+03  0.00000000000E+00 0.  1.
         23    2    1    2    0    0 -0.62678509095E+03 -0.37541804255E+03  0.15717747374E+03  0.75219568514E+03  0.85412724937E+02 0.  0.
         11    1    3    3    0    0 -0.49110735765E+03 -0.28707717372E+03  0.85939613938E+02  0.57531326915E+03  0.00000000000E+00 0.  1.
        -11    1    3    3    0    0 -0.13567773330E+03 -0.88340868835E+02  0.71237859802E+02  0.17688241599E+03  0.00000000000E+00 0. -1.
         22    1    1    2    0    0  0.62678509095E+03  0.37541804255E+03  0.21311735161E+03  0.76106324472E+03  0.00000000000E+00 0. -1.
<mgrwt>
<rscale>  0 0.14672540E+04</rscale>
<asrwt>0</asrwt>
<pdfrwt beam="1">  1        2 0.14488875E+00 0.14672540E+04</pdfrwt>
<pdfrwt beam="2">  1       -2 0.87920316E-01 0.14672540E+04</pdfrwt>
<totfact> 0.29704731E+01</totfact>
</mgrwt>
</event>
<event>
 6    1  0.2238133E-007  0.4435588E+04  0.7818608E-02  0.7922012E-01
         -2   -1    0    0    0  501 -0.00000000000E+00  0.00000000000E+00  0.18166471853E+04  0.18166471853E+04  0.00000000000E+00 0.  1.
          2   -1    0    0  501    0  0.00000000000E+00 -0.00000000000E+00 -0.27075203939E+04  0.27075203939E+04  0.00000000000E+00 0. -1.
         23    2    1    2    0    0  0.12044336071E+04  0.16761306484E+04 -0.12704516147E+04  0.24255599382E+04  0.96017936679E+02 0.  0.
         13    1    3    3    0    0  0.10005508619E+04  0.14066626147E+04 -0.10210204168E+04  0.20055633698E+04  0.00000000000E+00 0. -1.
        -13    1    3    3    0    0  0.20388274525E+03  0.26946803370E+03 -0.24943119792E+03  0.41999656843E+03  0.00000000000E+00 0.  1.
         22    1    1    2    0    0 -0.12044336071E+04 -0.16761306484E+04  0.37957840609E+03  0.20986076410E+04  0.00000000000E+00 0.  1.
<mgrwt>
<rscale>  0 0.44355876E+04</rscale>
<asrwt>0</asrwt>
<pdfrwt beam="1">  1        2 0.41654160E+00 0.44355876E+04</pdfrwt>
<pdfrwt beam="2">  1       -2 0.27948418E+00 0.44355876E+04</pdfrwt>
<totfact> 0.84903377E-02</totfact>
</mgrwt>
</event>
<event>
 6    1  0.2238133E-007  0.1553284E+04  0.7818608E-02  0.8849773E-01
          2   -1    0    0  501    0  0.00000000000E+00  0.00000000000E+00  0.69126249086E+03  0.69126249086E+03  0.00000000000E+00 0. -1.
         -2   -1    0    0    0  501 -0.00000000000E+00 -0.00000000000E+00 -0.87256704162E+03  0.87256704162E+03  0.00000000000E+00 0.  1.
         23    2    1    2    0    0 -0.63360864820E+03  0.21375063998E+03 -0.48326022327E+03  0.83012217710E+03  0.91723117854E+02 0.  0.
         13    1    3    3    0    0 -0.10113757360E+03  0.39168527945E+01 -0.92567337643E+02  0.13715998880E+03  0.00000000000E+00 0. -1.
        -13    1    3    3    0    0 -0.53247107460E+03  0.20983378718E+03 -0.39069288563E+03  0.69296218830E+03  0.00000000000E+00 0.  1.
         22    1    1    2    0    0  0.63360864820E+03 -0.21375063998E+03  0.30195567251E+03  0.73370735537E+03  0.00000000000E+00 0. -1.
<mgrwt>
<rscale>  0 0.15532841E+04</rscale>
<asrwt>0</asrwt>
<pdfrwt beam="1">  1        2 0.10634808E+00 0.15532841E+04</pdfrwt>
<pdfrwt beam="2">  1       -2 0.13424108E+00 0.15532841E+04</pdfrwt>
<totfact> 0.16028391E+01</totfact>
</mgrwt>
</event>
<event>
 6    1  0.2238133E-007  0.1264185E+04  0.7818608E-02  0.9058459E-01
         -2   -1    0    0    0  501 -0.00000000000E+00  0.00000000000E+00  0.16631578007E+03  0.16631578007E+03  0.00000000000E+00 0.  1.
          2   -1    0    0  501    0  0.00000000000E+00 -0.00000000000E+00 -0.24023014250E+04  0.24023014250E+04  0.00000000000E+00 0. -1.
         23    2    1    2    0    0  0.33887490335E+03  0.49807006360E+03 -0.75787873155E+03  0.97246243946E+03  0.91613514550E+02 0.  0.
         13    1    3    3    0    0  0.12642033199E+03  0.11505894486E+03 -0.22914271918E+03  0.28587942718E+03  0.00000000000E+00 0.  1.
        -13    1    3    3    0    0  0.21245457136E+03  0.38301111875E+03 -0.52873601237E+03  0.68658301228E+03  0.00000000000E+00 0. -1.
         22    1    1    2    0    0 -0.33887490335E+03 -0.49807006360E+03 -0.14781069134E+04  0.15961547656E+04  0.00000000000E+00 0. -1.
<mgrwt>
<rscale>  0 0.12641845E+04</rscale>
<asrwt>0</asrwt>
<pdfrwt beam="1">  1        2 0.36958483E+00 0.12641845E+04</pdfrwt>
<pdfrwt beam="2">  1       -2 0.25587043E-01 0.12641845E+04</pdfrwt>
<totfact> 0.53784442E+01</totfact>
</mgrwt>
</event>
<event>
 6    1  0.2238133E-007  0.4254793E+04  0.7818608E-02  0.7955031E-01
         -2   -1    0    0    0  501 -0.00000000000E+00  0.00000000000E+00  0.22138226369E+04  0.22138226369E+04  0.00000000000E+00 0.  1.
          2   -1    0    0  501    0  0.00000000000E+00 -0.00000000000E+00 -0.20443445027E+04  0.20443445027E+04  0.00000000000E+00 0. -1.
         23    2    1    2    0    0 -0.60545328356E+03  0.61375041016E+03  0.20301345820E+04  0.22074829463E+04  0.90946647324E+02 0.  0.
         11    1    3    3    0    0 -0.11936168739E+03  0.97902858562E+02  0.28993376345E+03  0.32847186990E+03  0.00000000000E+00 0.  1.
        -11    1    3    3    0    0 -0.48609159617E+03  0.51584755160E+03  0.17402008185E+04  0.18790110764E+04  0.00000000000E+00 0. -1.
         22    1    1    2    0    0  0.60545328356E+03 -0.61375041016E+03 -0.18606564477E+04  0.20506841934E+04  0.00000000000E+00 0. -1.
<mgrwt>
<rscale>  0 0.42547931E+04</rscale>
<asrwt>0</asrwt>
<pdfrwt beam="1">  1        2 0.31451454E+00 0.42547931E+04</pdfrwt>
<pdfrwt beam="2">  1       -2 0.34058810E+00 0.42547931E+04</pdfrwt>
<totfact> 0.86962425E-02</totfact>
</mgrwt>
</event>
<event>
 6    1  0.2238133E-007  0.1185601E+04  0.7818608E-02  0.9125554E-01
          2   -1    0    0  501    0  0.00000000000E+00  0.00000000000E+00  0.48132517591E+03  0.48132517591E+03  0.00000000000E+00 0. -1.
         -2   -1    0    0    0  501 -0.00000000000E+00 -0.00000000000E+00 -0.73009368458E+03  0.73009368458E+03  0.00000000000E+00 0.  1.
         23    2    1    2    0    0 -0.57343693820E+03  0.31995754844E+02 -0.26063632701E+03  0.63696738687E+03  0.89120741457E+02 0.  0.
         13    1    3    3    0    0 -0.17930344264E+03  0.46865902354E+02 -0.62495032961E+02  0.19558058822E+03  0.00000000000E+00 0. -1.
        -13    1    3    3    0    0 -0.39413349557E+03 -0.14870147511E+02 -0.19814129405E+03  0.44138679865E+03  0.00000000000E+00 0.  1.
         22    1    1    2    0    0  0.57343693820E+03 -0.31995754844E+02  0.11867818345E+02  0.57445147361E+03  0.00000000000E+00 0.  1.
<mgrwt>
<rscale>  0 0.11856011E+04</rscale>
<asrwt>0</asrwt>
<pdfrwt beam="1">  1        2 0.74050027E-01 0.11856011E+04</pdfrwt>
<pdfrwt beam="2">  1       -2 0.11232210E+00 0.11856011E+04</pdfrwt>
<totfact> 0.39695637E+01</totfact>
</mgrwt>
</event>
<event>
 6    1  0.2238133E-007  0.2627984E+04  0.7818608E-02  0.8358757E-01
         -2   -1    0    0    0  501 -0.00000000000E+00  0.00000000000E+00  0.14333090406E+04  0.14333090406E+04  0.00000000000E+00 0.  1.
          2   -1    0    0  501    0  0.00000000000E+00 -0.00000000000E+00 -0.12046078214E+04  0.12046078214E+04  0.00000000000E+00 0. -1.
         23    2    1    2    0    0  0.67647275211E+03  0.69923962630E+03  0.99877864479E+03  0.13971224870E+04  0.88549552153E+02 0.  0.
         11    1    3    3    0    0  0.23857496932E+03  0.30794063755E+03  0.40945963521E+03  0.56515718620E+03  0.00000000000E+00 0.  1.
        -11    1    3    3    0    0  0.43789778279E+03  0.39129898875E+03  0.58931900958E+03  0.83196530085E+03  0.00000000000E+00 0. -1.
         22    1    1    2    0    0 -0.67647275211E+03 -0.69923962630E+03 -0.77007742566E+03  0.12407943749E+04  0.00000000000E+00 0. -1.
<mgrwt>
<rscale>  0 0.26279842E+04</rscale>
<asrwt>0</asrwt>
<pdfrwt beam="1">  1        2 0.18532428E+00 0.26279842E+04</pdfrwt>
<pdfrwt beam="2">  1       -2 0.22050909E+00 0.26279842E+04</pdfrwt>
<totfact> 0.16294489E+00</totfact>
</mgrwt>
</event>
<event>
 6    1  0.2238133E-007  0.2630108E+04  0.7818608E-02  0.8358045E-01
         -2   -1    0    0    0  501 -0.00000000000E+00  0.00000000000E+00  0.37177796235E+03  0.37177796235E+03  0.00000000000E+00 0.  1.
          2   -1    0    0  501    0  0.00000000000E+00 -0.00000000000E+00 -0.46516141065E+04  0.46516141065E+04  0.00000000000E+00 0. -1.
         23    2    1    2    0    0 -0.10521936708E+04  0.43605403774E+03 -0.89303863611E+03  0.14502069344E+04  0.91255149261E+02 0.  0.
         13    1    3    3    0    0 -0.68772000937E+03  0.32499412577E+03 -0.56675534635E+03  0.94857346352E+03  0.00000000000E+00 0. -1.
        -13    1    3    3    0    0 -0.36447366143E+03  0.11105991197E+03 -0.32628328976E+03  0.50163347087E+03  0.00000000000E+00 0.  1.
         22    1    1    2    0    0  0.10521936708E+04 -0.43605403774E+03 -0.33867975081E+04  0.35731851345E+04  0.00000000000E+00 0.  1.
<mgrwt>
<rscale>  0 0.26301084E+04</rscale>
<asrwt>0</asrwt>
<pdfrwt beam="1">  1        2 0.71563294E+00 0.26301084E+04</pdfrwt>
<pdfrwt beam="2">  1       -2 0.57196609E-01 0.26301084E+04</pdfrwt>
<totfact> 0.21933768E-01</totfact>
</mgrwt>
</event>
<event>
 6    1  0.2238133E-007  0.2211734E+04  0.7818608E-02  0.8513560E-01
         -2   -1    0    0    0  501 -0.00000000000E+00  0.00000000000E+00  0.14245177914E+04  0.14245177914E+04  0.00000000000E+00 0.  1.
          2   -1    0    0  501    0  0.00000000000E+00 -0.00000000000E+00 -0.85849495238E+03  0.85849495238E+03  0.00000000000E+00 0. -1.
         23    2    1    2    0    0 -0.12776324990E+03  0.25951269066E+03 -0.81630860022E+03  0.87074134900E+03  0.90335382980E+02 0.  0.
         13    1    3    3    0    0 -0.71826183492E+02  0.22746284372E+03 -0.64791093256E+03  0.69042517512E+03  0.00000000000E+00 0.  1.
        -13    1    3    3    0    0 -0.55937066413E+02  0.32049846934E+02 -0.16839766766E+03  0.18031617388E+03  0.00000000000E+00 0. -1.
         22    1    1    2    0    0  0.12776324990E+03 -0.25951269066E+03  0.13823314392E+04  0.14122713948E+04  0.00000000000E+00 0.  1.
<mgrwt>
<rscale>  0 0.22117336E+04</rscale>
<asrwt>0</asrwt>
<pdfrwt beam="1">  1        2 0.13207615E+00 0.22117336E+04</pdfrwt>
<pdfrwt beam="2">  1       -2 0.21915658E+00 0.22117336E+04</pdfrwt>
<totfact> 0.28597379E+00</totfact>
</mgrwt>
</event>
<event>
 6    1  0.2238133E-007  0.1638227E+04  0.7818608E-02  0.8797402E-01
         -2   -1    0    0    0  501 -0.00000000000E+00  0.00000000000E+00  0.12798739701E+04  0.12798739701E+04  0.00000000000E+00 0.  1.
          2   -1    0    0  501    0  0.00000000000E+00 -0.00000000000E+00 -0.52422920907E+03  0.52422920907E+03  0.00000000000E+00 0. -1.
         23    2    1    2    0    0  0.30069284492E+03 -0.29993847403E+03 -0.38904974144E+03  0.58315896291E+03  0.91298409184E+02 0.  0.
         11    1    3    3    0    0  0.78917932868E+02 -0.58224479302E+02 -0.14164596390E+03  0.17228380425E+03  0.00000000000E+00 0.  1.
        -11    1    3    3    0    0  0.22177491206E+03 -0.24171399472E+03 -0.24740377754E+03  0.41087515866E+03  0.00000000000E+00 0. -1.
         22    1    1    2    0    0 -0.30069284492E+03  0.29993847403E+03  0.11446945024E+04  0.12209442162E+04  0.00000000000E+00 0.  1.
<mgrwt>
<rscale>  0 0.16382275E+04</rscale>
<asrwt>0</asrwt>
<pdfrwt beam="1">  1        2 0.80650648E-01 0.16382275E+04</pdfrwt>
<pdfrwt beam="2">  1       -2 0.19690369E+00 0.16382275E+04</pdfrwt>
<totfact> 0.77580638E+00</totfact>
</mgrwt>
</event>
<event>
 6    1  0.2238133E-007  0.1000086E+04  0.7818608E-02  0.9308451E-01
          1   -1    0    0  501    0  0.00000000000E+00  0.00000000000E+00  0.22064836290E+04  0.22064836290E+04  0.00000000000E+00 0. -1.
         -1   -1    0    0    0  501 -0.00000000000E+00 -0.00000000000E+00 -0.11332185895E+03  0.11332185895E+03  0.00000000000E+00 0.  1.
         23    2    1    2    0    0  0.22606678812E+03  0.83516809312E+02  0.20604130654E+04  0.20765900941E+04  0.94038125124E+02 0.  0.
         13    1    3    3    0    0  0.15685506512E+03  0.81232862176E+02  0.11431803137E+04  0.11567469554E+04  0.00000000000E+00 0.  1.
        -13    1    3    3    0    0  0.69211723000E+02  0.22839471362E+01  0.91723275168E+03  0.91984313867E+03  0.00000000000E+00 0. -1.
         22    1    1    2    0    0 -0.22606678812E+03 -0.83516809312E+02  0.32748704679E+02  0.24321539381E+03  0.00000000000E+00 0.  1.
<mgrwt>
<rscale>  0 0.10000856E+04</rscale>
<asrwt>0</asrwt>
<pdfrwt beam="1">  1        1 0.33945899E+00 0.10000856E+04</pdfrwt>
<pdfrwt beam="2">  1       -1 0.17434134E-01 0.10000856E+04</pdfrwt>
<totfact> 0.56010674E+01</totfact>
</mgrwt>
</event>
<event>
 6    1  0.2238133E-007  0.3760727E+04  0.7818608E-02  0.8054636E-01
          2   -1    0    0  501    0  0.00000000000E+00  0.00000000000E+00  0.29988670458E+04  0.29988670458E+04  0.00000000000E+00 0. -1.
         -2   -1    0    0    0  501 -0.00000000000E+00 -0.00000000000E+00 -0.11790345044E+04  0.11790345044E+04  0.00000000000E+00 0.  1.
         23    2    1    2    0    0 -0.25893719732E+03 -0.10450261869E+04  0.26216086329E+04  0.28355256325E+04  0.90805203591E+02 0.  0.
         11    1    3    3    0    0 -0.33924250432E+02 -0.30236164637E+03  0.76240234374E+03  0.82087194720E+03  0.00000000000E+00 0. -1.
        -11    1    3    3    0    0 -0.22501294689E+03 -0.74266454050E+03  0.18592062892E+04  0.20146536853E+04  0.00000000000E+00 0.  1.
         22    1    1    2    0    0  0.25893719732E+03  0.10450261869E+04 -0.80177609154E+03  0.13423759177E+04  0.00000000000E+00 0.  1.
<mgrwt>
<rscale>  0 0.37607274E+04</rscale>
<asrwt>0</asrwt>
<pdfrwt beam="1">  1        2 0.46136416E+00 0.37607274E+04</pdfrwt>
<pdfrwt beam="2">  1       -2 0.18138992E+00 0.37607274E+04</pdfrwt>
<totfact> 0.24865943E-01</totfact>
</mgrwt>
</event>
<event>
 6    1  0.2238133E-007  0.3292545E+04  0.7818608E-02  0.8164795E-01
         -2   -1    0    0    0  501 -0.00000000000E+00  0.00000000000E+00  0.10478429759E+04  0.10478429759E+04  0.00000000000E+00 0.  1.
          2   -1    0    0  501    0  0.00000000000E+00 -0.00000000000E+00 -0.25864680706E+04  0.25864680706E+04  0.00000000000E+00 0. -1.
         23    2    1    2    0    0 -0.15264537968E+04 -0.61835851770E+02 -0.96524918719E+02  0.15334688858E+04  0.91240875563E+02 0.  0.
         13    1    3    3    0    0 -0.33766618028E+03 -0.28673760714E+02  0.13423212301E+02  0.33914719000E+03  0.00000000000E+00 0.  1.
        -13    1    3    3    0    0 -0.11887876166E+04 -0.33162091056E+02 -0.10994813102E+03  0.11943216958E+04  0.00000000000E+00 0. -1.
         22    1    1    2    0    0  0.15264537968E+04  0.61835851770E+02 -0.14421001760E+04  0.21008421606E+04  0.00000000000E+00 0. -1.
<mgrwt>
<rscale>  0 0.32925445E+04</rscale>
<asrwt>0</asrwt>
<pdfrwt beam="1">  1        2 0.39791817E+00 0.32925445E+04</pdfrwt>
<pdfrwt beam="2">  1       -2 0.16120661E+00 0.32925445E+04</pdfrwt>
<totfact> 0.63905607E-01</totfact>
</mgrwt>
</event>
<event>
 6    1  0.2238133E-007  0.1969818E+04  0.7818608E-02  0.8620863E-01
          2   -1    0    0  501    0  0.00000000000E+00  0.00000000000E+00  0.10404534606E+04  0.10404534606E+04  0.00000000000E+00 0. -1.
         -2   -1    0    0    0  501 -0.00000000000E+00 -0.00000000000E+00 -0.93232952301E+03  0.93232952301E+03  0.00000000000E+00 0.  1.
         23    2    1    2    0    0 -0.18970144161E+03  0.96375826220E+03  0.86813273693E+02  0.99030104014E+03  0.91339918522E+02 0.  0.
         11    1    3    3    0    0 -0.13253589126E+03  0.49110848359E+03  0.74017278551E+02  0.51403488466E+03  0.00000000000E+00 0. -1.
        -11    1    3    3    0    0 -0.57165550357E+02  0.47264977861E+03  0.12795995141E+02  0.47626615548E+03  0.00000000000E+00 0.  1.
         22    1    1    2    0    0  0.18970144161E+03 -0.96375826220E+03  0.21310663924E+02  0.98248194350E+03  0.00000000000E+00 0.  1.
<mgrwt>
<rscale>  0 0.19698177E+04</rscale>
<asrwt>0</asrwt>
<pdfrwt beam="1">  1        2 0.16006976E+00 0.19698177E+04</pdfrwt>
<pdfrwt beam="2">  1       -2 0.14343531E+00 0.19698177E+04</pdfrwt>
<totfact> 0.74523520E+00</totfact>
</mgrwt>
</event>
<event>
 6    1  0.2238133E-007  0.3138821E+04  0.7818608E-02  0.8205164E-01
         -2   -1    0    0    0  501 -0.00000000000E+00  0.00000000000E+00  0.18866999501E+04  0.18866999501E+04  0.00000000000E+00 0.  1.
          2   -1    0    0  501    0  0.00000000000E+00 -0.00000000000E+00 -0.13054799572E+04  0.13054799572E+04  0.00000000000E+00 0. -1.
         23    2    1    2    0    0 -0.67503541254E+03  0.63911464066E+03  0.15752975846E+04  0.18311763840E+04  0.86626423910E+02 0.  0.
         13    1    3    3    0    0 -0.39929970516E+03  0.43507427107E+03  0.98598693229E+03  0.11493041836E+04  0.00000000000E+00 0.  1.
        -13    1    3    3    0    0 -0.27573570738E+03  0.20404036959E+03  0.58931065232E+03  0.68187220040E+03  0.00000000000E+00 0. -1.
         22    1    1    2    0    0  0.67503541254E+03 -0.63911464066E+03 -0.99407759165E+03  0.13610035233E+04  0.00000000000E+00 0. -1.
<mgrwt>
<rscale>  0 0.31388208E+04</rscale>
<asrwt>0</asrwt>
<pdfrwt beam="1">  1        2 0.20084307E+00 0.31388208E+04</pdfrwt>
<pdfrwt beam="2">  1       -2 0.29026153E+00 0.31388208E+04</pdfrwt>
<totfact> 0.50626013E-01</totfact>
</mgrwt>
</event>
<event>
 6    1  0.2238133E-007  0.1522618E+04  0.7818608E-02  0.8869550E-01
          2   -1    0    0  501    0  0.00000000000E+00  0.00000000000E+00  0.24302382168E+04  0.24302382168E+04  0.00000000000E+00 0. -1.
         -2   -1    0    0    0  501 -0.00000000000E+00 -0.00000000000E+00 -0.23849173031E+03  0.23849173031E+03  0.00000000000E+00 0.  1.
         23    2    1    2    0    0 -0.47357361350E+03  0.59126566462E+03  0.10283944414E+04  0.12804738345E+04  0.90283221050E+02 0.  0.
         11    1    3    3    0    0 -0.38692260301E+03  0.46286833002E+03  0.87202859457E+03  0.10603726050E+04  0.00000000000E+00 0. -1.
        -11    1    3    3    0    0 -0.86651010492E+02  0.12839733459E+03  0.15636584686E+03  0.22010122947E+03  0.00000000000E+00 0.  1.
         22    1    1    2    0    0  0.47357361350E+03 -0.59126566462E+03  0.11633520450E+04  0.13882561126E+04  0.00000000000E+00 0.  1.
<mgrwt>
<rscale>  0 0.15226184E+04</rscale>
<asrwt>0</asrwt>
<pdfrwt beam="1">  1        2 0.37388279E+00 0.15226184E+04</pdfrwt>
<pdfrwt beam="2">  1       -2 0.36691037E-01 0.15226184E+04</pdfrwt>
<totfact> 0.25831765E+01</totfact>
</mgrwt>
</event>
<event>
 6    1  0.2238133E-007  0.1897662E+04  0.7818608E-02  0.8656021E-01
         -2   -1    0    0    0  501 -0.00000000000E+00  0.00000000000E+00  0.50223188985E+03  0.50223188985E+03  0.00000000000E+00 0.  1.
          2   -1    0    0  501    0  0.00000000000E+00 -0.00000000000E+00 -0.17925581672E+04  0.17925581672E+04  0.00000000000E+00 0. -1.
         23    2    1    2    0    0 -0.37576024811E+03 -0.68520503729E+03 -0.12926814899E+04  0.15133124475E+04  0.91582871934E+02 0.  0.
         11    1    3    3    0    0 -0.78361233964E+02 -0.20686304699E+03 -0.41892750172E+03  0.47374365948E+03  0.00000000000E+00 0. -1.
        -11    1    3    3    0    0 -0.29739901414E+03 -0.47834199031E+03 -0.87375398816E+03  0.10395687881E+04  0.00000000000E+00 0.  1.
         22    1    1    2    0    0  0.37576024811E+03  0.68520503729E+03  0.23552124891E+01  0.78147760954E+03  0.00000000000E+00 0.  1.
<mgrwt>
<rscale>  0 0.18976616E+04</rscale>
<asrwt>0</asrwt>
<pdfrwt beam="1">  1        2 0.27577818E+00 0.18976616E+04</pdfrwt>
<pdfrwt beam="2">  1       -2 0.77266445E-01 0.18976616E+04</pdfrwt>
<totfact> 0.12193370E+01</totfact>
</mgrwt>
</event>
<event>
 6    1  0.2238133E-007  0.1866255E+04  0.7818608E-02  0.8671838E-01
          2   -1    0    0  501    0  0.00000000000E+00  0.00000000000E+00  0.11834093947E+04  0.11834093947E+04  0.00000000000E+00 0. -1.
         -2   -1    0    0    0  501 -0.00000000000E+00 -0.00000000000E+00 -0.73577845427E+03  0.73577845427E+03  0.00000000000E+00 0.  1.
         23    2    1    2    0    0  0.64326845241E+03  0.15925566762E+03  0.89676389966E+03  0.11186398588E+04  0.89515208024E+02 0.  0.
         11    1    3    3    0    0  0.18362183620E+03  0.33787073592E+02  0.32045181977E+03  0.37087452577E+03  0.00000000000E+00 0. -1.
        -11    1    3    3    0    0  0.45964661621E+03  0.12546859403E+03  0.57631207989E+03  0.74776533305E+03  0.00000000000E+00 0.  1.
         22    1    1    2    0    0 -0.64326845241E+03 -0.15925566762E+03 -0.44913295920E+03  0.80054799018E+03  0.00000000000E+00 0.  1.
<mgrwt>
<rscale>  0 0.18662552E+04</rscale>
<asrwt>0</asrwt>
<pdfrwt beam="1">  1        2 0.18206298E+00 0.18662552E+04</pdfrwt>
<pdfrwt beam="2">  1       -2 0.11319669E+00 0.18662552E+04</pdfrwt>
<totfact> 0.11155212E+01</totfact>
</mgrwt>
</event>
<event>
 6    1  0.2238133E-007  0.4668469E+04  0.7818608E-02  0.7881789E-01
          2   -1    0    0  501    0  0.00000000000E+00  0.00000000000E+00  0.28182490566E+04  0.28182490566E+04  0.00000000000E+00 0. -1.
         -2   -1    0    0    0  501 -0.00000000000E+00 -0.00000000000E+00 -0.19333459610E+04  0.19333459610E+04  0.00000000000E+00 0.  1.
         23    2    1    2    0    0  0.18537499320E+04  0.14160370546E+04  0.38684515664E+03  0.23663043726E+04  0.90539814217E+02 0.  0.
         11    1    3    3    0    0  0.15762673016E+04  0.11622321301E+04  0.32539717574E+03  0.19852670985E+04  0.00000000000E+00 0. -1.
        -11    1    3    3    0    0  0.27748263044E+03  0.25380492456E+03  0.61447980899E+02  0.38103727414E+03  0.00000000000E+00 0.  1.
         22    1    1    2    0    0 -0.18537499320E+04 -0.14160370546E+04  0.49805793898E+03  0.23852906450E+04  0.00000000000E+00 0.  1.
<mgrwt>
<rscale>  0 0.46684689E+04</rscale>
<asrwt>0</asrwt>
<pdfrwt beam="1">  1        2 0.43357678E+00 0.46684689E+04</pdfrwt>
<pdfrwt beam="2">  1       -2 0.29743784E+00 0.46684689E+04</pdfrwt>
<totfact> 0.55511123E-02</totfact>
</mgrwt>
</event>
<event>
 6    1  0.2238133E-007  0.2643920E+04  0.7818608E-02  0.8353434E-01
         -2   -1    0    0    0  501 -0.00000000000E+00  0.00000000000E+00  0.13346769521E+04  0.13346769521E+04  0.00000000000E+00 0.  1.
          2   -1    0    0  501    0  0.00000000000E+00 -0.00000000000E+00 -0.13093637310E+04  0.13093637310E+04  0.00000000000E+00 0. -1.
         23    2    1    2    0    0  0.25167767003E+03 -0.35862806551E+03  0.12583644534E+04  0.13354647088E+04  0.89605534284E+02 0.  0.
         11    1    3    3    0    0  0.15632453424E+03 -0.25629332907E+03  0.74040467036E+03  0.79895100377E+03  0.00000000000E+00 0. -1.
        -11    1    3    3    0    0  0.95353135792E+02 -0.10233473645E+03  0.51795978307E+03  0.53651370501E+03  0.00000000000E+00 0.  1.
         22    1    1    2    0    0 -0.25167767003E+03  0.35862806551E+03 -0.12330512323E+04  0.13085759743E+04  0.00000000000E+00 0. -1.
<mgrwt>
<rscale>  0 0.26439195E+04</rscale>
<asrwt>0</asrwt>
<pdfrwt beam="1">  1        2 0.20144057E+00 0.26439195E+04</pdfrwt>
<pdfrwt beam="2">  1       -2 0.20533492E+00 0.26439195E+04</pdfrwt>
<totfact> 0.17661018E+00</totfact>
</mgrwt>
</event>
<event>
 6    1  0.2238133E-007  0.2197693E+04  0.7818608E-02  0.8519389E-01
         -2   -1    0    0    0  501 -0.00000000000E+00  0.00000000000E+00  0.34943449432E+03  0.34943449432E+03  0.00000000000E+00 0.  1.
          2   -1    0    0  501    0  0.00000000000E+00 -0.00000000000E+00 -0.34554795297E+04  0.34554795297E+04  0.00000000000E+00 0. -1.
         23    2    1    2    0    0  0.65586819400E+03 -0.62505218532E+03 -0.48614573755E+03  0.10327802514E+04  0.97180488581E+02 0.  0.
         11    1    3    3    0    0  0.20481485940E+03 -0.25970432442E+03 -0.17554386872E+03  0.37444774349E+03  0.00000000000E+00 0.  1.
        -11    1    3    3    0    0  0.45105333460E+03 -0.36534786089E+03 -0.31060186882E+03  0.65833250795E+03  0.00000000000E+00 0. -1.
         22    1    1    2    0    0 -0.65586819400E+03  0.62505218532E+03 -0.26198992979E+04  0.27721337726E+04  0.00000000000E+00 0. -1.
<mgrwt>
<rscale>  0 0.21976931E+04</rscale>
<asrwt>0</asrwt>
<pdfrwt beam="1">  1        2 0.53161224E+00 0.21976931E+04</pdfrwt>
<pdfrwt beam="2">  1       -2 0.53759153E-01 0.21976931E+04</pdfrwt>
<totfact> 0.26107952E+00</totfact>
</mgrwt>
</event>
<event>
 6    1  0.2238133E-007  0.2714905E+04  0.7818608E-02  0.8330185E-01
          2   -1    0    0  501    0  0.00000000000E+00  0.00000000000E+00  0.29845411498E+04  0.29845411498E+04  0.00000000000E+00 0. -1.
         -2   -1    0    0    0  501 -0.00000000000E+00 -0.00000000000E+00 -0.61740705166E+03  0.61740705166E+03  0.00000000000E+00 0.  1.
         23    2    1    2    0    0 -0.11574603338E+04  0.52152773197E+03  0.55250755734E+03  0.13873206747E+04  0.87683829733E+02 0.  0.
         11    1    3    3    0    0 -0.53731216204E+03  0.28895623594E+03  0.27548401118E+03  0.66939637449E+03  0.00000000000E+00 0. -1.
        -11    1    3    3    0    0 -0.62014817179E+03  0.23257149603E+03  0.27702354616E+03  0.71792430024E+03  0.00000000000E+00 0.  1.
         22    1    1    2    0    0  0.11574603338E+04 -0.52152773197E+03  0.18146265408E+04  0.22146275267E+04  0.00000000000E+00 0. -1.
<mgrwt>
<rscale>  0 0.27149046E+04</rscale>
<asrwt>0</asrwt>
<pdfrwt beam="1">  1        2 0.45916017E+00 0.27149046E+04</pdfrwt>
<pdfrwt beam="2">  1       -2 0.94985702E-01 0.27149046E+04</pdfrwt>
<totfact> 0.14540413E+00</totfact>
</mgrwt>
</event>
<event>
 6    1  0.2238133E-007  0.3046601E+04  0.7818608E-02  0.8230548E-01
          2   -1    0    0  501    0  0.00000000000E+00  0.00000000000E+00  0.17955588687E+04  0.17955588687E+04  0.00000000000E+00 0. -1.
         -2   -1    0    0    0  501 -0.00000000000E+00 -0.00000000000E+00 -0.12923242393E+04  0.12923242393E+04  0.00000000000E+00 0.  1.
         23    2    1    2    0    0  0.51069045329E+03  0.84774025136E+03  0.14237481072E+04  0.17362865204E+04  0.90354496639E+02 0.  0.
         11    1    3    3    0    0  0.25529424589E+03  0.43756739224E+03  0.65065172587E+03  0.82461387516E+03  0.00000000000E+00 0.  1.
        -11    1    3    3    0    0  0.25539620741E+03  0.41017285912E+03  0.77309638137E+03  0.91167264520E+03  0.00000000000E+00 0. -1.
         22    1    1    2    0    0 -0.51069045329E+03 -0.84774025136E+03 -0.92051347777E+03  0.13515965876E+04  0.00000000000E+00 0.  1.
<mgrwt>
<rscale>  0 0.30466009E+04</rscale>
<asrwt>0</asrwt>
<pdfrwt beam="1">  1        2 0.27623982E+00 0.30466009E+04</pdfrwt>
<pdfrwt beam="2">  1       -2 0.19881911E+00 0.30466009E+04</pdfrwt>
<totfact> 0.10020942E+00</totfact>
</mgrwt>
</event>
<event>
 6    1  0.2238133E-007  0.1909785E+04  0.7818608E-02  0.8650001E-01
         -2   -1    0    0    0  501 -0.00000000000E+00  0.00000000000E+00  0.30807639200E+03  0.30807639200E+03  0.00000000000E+00 0.  1.
          2   -1    0    0  501    0  0.00000000000E+00 -0.00000000000E+00 -0.29597182293E+04  0.29597182293E+04  0.00000000000E+00 0. -1.
         23    2    1    2    0    0 -0.56857635668E+03 -0.13250387093E+03 -0.26170963453E+04  0.26829615339E+04  0.90845817449E+02 0.  0.
         11    1    3    3    0    0 -0.16363793675E+03 -0.67396425467E+02 -0.65721126969E+03  0.68062199899E+03  0.00000000000E+00 0. -1.
        -11    1    3    3    0    0 -0.40493841993E+03 -0.65107445462E+02 -0.19598850756E+04  0.20023395349E+04  0.00000000000E+00 0.  1.
         22    1    1    2    0    0  0.56857635668E+03  0.13250387093E+03 -0.34545492067E+02  0.58483308748E+03  0.00000000000E+00 0.  1.
<mgrwt>
<rscale>  0 0.19097846E+04</rscale>
<asrwt>0</asrwt>
<pdfrwt beam="1">  1        2 0.45534125E+00 0.19097846E+04</pdfrwt>
<pdfrwt beam="2">  1       -2 0.47396370E-01 0.19097846E+04</pdfrwt>
<totfact> 0.73046846E+00</totfact>
</mgrwt>
</event>
<event>
 6    1  0.2238133E-007  0.6808724E+04  0.7818608E-02  0.7597490E-01
         -2   -1    0    0    0  501 -0.00000000000E+00  0.00000000000E+00  0.21697287256E+04  0.21697287256E+04  0.00000000000E+00 0.  1.
          2   -1    0    0  501    0  0.00000000000E+00 -0.00000000000E+00 -0.53415345868E+04  0.53415345868E+04  0.00000000000E+00 0. -1.
         23    2    1    2    0    0  0.17237122266E+03  0.13968674470E+04 -0.50049995998E+04  0.52000840061E+04  0.99509668305E+02 0.  0.
         11    1    3    3    0    0  0.63873236756E+02  0.75559825014E+03 -0.28415278719E+04  0.29409673838E+04  0.00000000000E+00 0. -1.
        -11    1    3    3    0    0  0.10849798590E+03  0.64126919685E+03 -0.21634717279E+04  0.22591166223E+04  0.00000000000E+00 0.  1.
         22    1    1    2    0    0 -0.17237122266E+03 -0.13968674470E+04  0.18331937386E+04  0.23111793063E+04  0.00000000000E+00 0.  1.
<mgrwt>
<rscale>  0 0.68087241E+04</rscale>
<asrwt>0</asrwt>
<pdfrwt beam="1">  1        2 0.82177454E+00 0.68087241E+04</pdfrwt>
<pdfrwt beam="2">  1       -2 0.33380442E+00 0.68087241E+04</pdfrwt>
<totfact> 0.13458712E-04</totfact>
</mgrwt>
</event>
<event>
 6    1  0.2238133E-007  0.4662019E+04  0.7818608E-02  0.7882870E-01
         -2   -1    0    0    0  501 -0.00000000000E+00  0.00000000000E+00  0.24422135789E+04  0.24422135789E+04  0.00000000000E+00 0.  1.
          2   -1    0    0  501    0  0.00000000000E+00 -0.00000000000E+00 -0.22248691314E+04  0.22248691314E+04  0.00000000000E+00 0. -1.
         23    2    1    2    0    0 -0.12293975794E+04  0.18321837642E+04 -0.64116218681E+03  0.22995208007E+04  0.91603541874E+02 0.  0.
         13    1    3    3    0    0 -0.36957233633E+03  0.55410219715E+03 -0.15000905934E+03  0.68272664702E+03  0.00000000000E+00 0.  1.
        -13    1    3    3    0    0 -0.85982524312E+03  0.12780815671E+04 -0.49115312747E+03  0.16167941537E+04  0.00000000000E+00 0. -1.
         22    1    1    2    0    0  0.12293975794E+04 -0.18321837642E+04  0.85850663434E+03  0.23675619095E+04  0.00000000000E+00 0.  1.
<mgrwt>
<rscale>  0 0.46620191E+04</rscale>
<asrwt>0</asrwt>
<pdfrwt beam="1">  1        2 0.34228756E+00 0.46620191E+04</pdfrwt>
<pdfrwt beam="2">  1       -2 0.37572516E+00 0.46620191E+04</pdfrwt>
<totfact> 0.39894357E-02</totfact>
</mgrwt>
</event>
<event>
 6    1  0.2238133E-007  0.1152139E+04  0.7818608E-02  0.9155812E-01
         -4   -1    0    0    0  501 -0.00000000000E+00  0.00000000000E+00  0.24731940924E+04  0.24731940924E+04  0.00000000000E+00 0.  1.
          4   -1    0    0  501    0  0.00000000000E+00 -0.00000000000E+00 -0.13418120516E+03  0.13418120516E+03  0.00000000000E+00 0. -1.
         23    2    1    2    0    0  0.48887774624E+03  0.29163631406E+03  0.13112758400E+04  0.14325150383E+04  0.92745975885E+02 0.  0.
         13    1    3    3    0    0  0.14896624487E+03  0.55833518283E+02  0.29281334931E+03  0.33323862532E+03  0.00000000000E+00 0.  1.
        -13    1    3    3    0    0  0.33991150138E+03  0.23580279578E+03  0.10184624907E+04  0.10992764130E+04  0.00000000000E+00 0. -1.
         22    1    1    2    0    0 -0.48887774624E+03 -0.29163631406E+03  0.10277370473E+04  0.11748602593E+04  0.00000000000E+00 0. -1.
<mgrwt>
<rscale>  0 0.11521392E+04</rscale>
<asrwt>0</asrwt>
<pdfrwt beam="1">  1        4 0.20643264E-01 0.11521392E+04</pdfrwt>
<pdfrwt beam="2">  1       -4 0.38049137E+00 0.11521392E+04</pdfrwt>
<totfact> 0.41119625E-01</totfact>
</mgrwt>
</event>
<event>
 6    1  0.2238133E-007  0.3842924E+04  0.7818608E-02  0.8037006E-01
         -2   -1    0    0    0  501 -0.00000000000E+00  0.00000000000E+00  0.23707641608E+04  0.23707641608E+04  0.00000000000E+00 0.  1.
          2   -1    0    0  501    0  0.00000000000E+00 -0.00000000000E+00 -0.15573110070E+04  0.15573110070E+04  0.00000000000E+00 0. -1.
         23    2    1    2    0    0  0.10107072372E+04  0.97079340379E+03 -0.93504738702E+03  0.16872665876E+04  0.92660506015E+02 0.  0.
         11    1    3    3    0    0  0.42653376912E+03  0.40914120741E+03 -0.33969542006E+03  0.68170416033E+03  0.00000000000E+00 0.  1.
        -11    1    3    3    0    0  0.58417346806E+03  0.56165219637E+03 -0.59535196696E+03  0.10055624272E+04  0.00000000000E+00 0. -1.
         22    1    1    2    0    0 -0.10107072372E+04 -0.97079340379E+03  0.17485005408E+04  0.22408085802E+04  0.00000000000E+00 0.  1.
<mgrwt>
<rscale>  0 0.38429245E+04</rscale>
<asrwt>0</asrwt>
<pdfrwt beam="1">  1        2 0.23958631E+00 0.38429245E+04</pdfrwt>
<pdfrwt beam="2">  1       -2 0.36473295E+00 0.38429245E+04</pdfrwt>
<totfact> 0.11807286E-01</totfact>
</mgrwt>
</event>
<event>
 6    1  0.2238133E-007  0.1892795E+04  0.7818608E-02  0.8658451E-01
         -2   -1    0    0    0  501 -0.00000000000E+00  0.00000000000E+00  0.23980951230E+03  0.23980951230E+03  0.00000000000E+00 0.  1.
          2   -1    0    0  501    0  0.00000000000E+00 -0.00000000000E+00 -0.37349136919E+04  0.37349136919E+04  0.00000000000E+00 0. -1.
         23    2    1    2    0    0 -0.20334876183E+03 -0.75213618809E+03 -0.63393479781E+03  0.10093649129E+04  0.99421502653E+02 0.  0.
         11    1    3    3    0    0 -0.65748996338E+02 -0.37475837265E+03 -0.35460763853E+03  0.52010897483E+03  0.00000000000E+00 0. -1.
        -11    1    3    3    0    0 -0.13759976549E+03 -0.37737781544E+03 -0.27932715927E+03  0.48925593809E+03  0.00000000000E+00 0.  1.
         22    1    1    2    0    0  0.20334876183E+03  0.75213618809E+03 -0.28611693817E+04  0.29653582912E+04  0.00000000000E+00 0.  1.
<mgrwt>
<rscale>  0 0.18927946E+04</rscale>
<asrwt>0</asrwt>
<pdfrwt beam="1">  1        2 0.57460214E+00 0.18927946E+04</pdfrwt>
<pdfrwt beam="2">  1       -2 0.36893769E-01 0.18927946E+04</pdfrwt>
<totfact> 0.36002962E+00</totfact>
</mgrwt>
</event>
<event>
 6    1  0.2238133E-007  0.2498855E+04  0.7818608E-02  0.8403393E-01
          2   -1    0    0  501    0  0.00000000000E+00  0.00000000000E+00  0.14180870954E+04  0.14180870954E+04  0.00000000000E+00 0. -1.
         -2   -1    0    0    0  501 -0.00000000000E+00 -0.00000000000E+00 -0.11008275233E+04  0.11008275233E+04  0.00000000000E+00 0.  1.
         23    2    1    2    0    0  0.11913309991E+03 -0.28726814411E+03 -0.10589645268E+04  0.11079899388E+04  0.97571273118E+02 0.  0.
         13    1    3    3    0    0  0.38152910603E+02 -0.17705606505E+03 -0.47850259547E+03  0.51163388143E+03  0.00000000000E+00 0.  1.
        -13    1    3    3    0    0  0.80980189303E+02 -0.11021207906E+03 -0.58046193132E+03  0.59635605735E+03  0.00000000000E+00 0. -1.
         22    1    1    2    0    0 -0.11913309991E+03  0.28726814411E+03  0.13762240989E+04  0.14109246799E+04  0.00000000000E+00 0. -1.
<mgrwt>
<rscale>  0 0.24988552E+04</rscale>
<asrwt>0</asrwt>
<pdfrwt beam="1">  1        2 0.21816725E+00 0.24988552E+04</pdfrwt>
<pdfrwt beam="2">  1       -2 0.16935808E+00 0.24988552E+04</pdfrwt>
<totfact> 0.27149971E+00</totfact>
</mgrwt>
</event>
<event>
 6    1  0.2238133E-007  0.5757524E+03  0.7818608E-02  0.9957030E-01
          2   -1    0    0  501    0  0.00000000000E+00  0.00000000000E+00  0.11465250152E+03  0.11465250152E+03  0.00000000000E+00 0. -1.
         -2   -1    0    0    0  501 -0.00000000000E+00 -0.00000000000E+00 -0.72281631993E+03  0.72281631993E+03  0.00000000000E+00 0.  1.
         23    2    1    2    0    0 -0.16606428559E+03 -0.15417725023E+03 -0.69054362682E+02  0.25267229557E+03  0.87902289555E+02 0.  0.
         11    1    3    3    0    0 -0.77717236529E+02 -0.79201388463E+02 -0.79240871043E+02  0.13635228063E+03  0.00000000000E+00 0.  1.
        -11    1    3    3    0    0 -0.88347049057E+02 -0.74975861762E+02  0.10186508361E+02  0.11632001494E+03  0.00000000000E+00 0. -1.
         22    1    1    2    0    0  0.16606428559E+03  0.15417725023E+03 -0.53910945572E+03  0.58479652588E+03  0.00000000000E+00 0.  1.
<mgrwt>
<rscale>  0 0.57575237E+03</rscale>
<asrwt>0</asrwt>
<pdfrwt beam="1">  1        2 0.17638847E-01 0.57575237E+03</pdfrwt>
<pdfrwt beam="2">  1       -2 0.11120251E+00 0.57575237E+03</pdfrwt>
<totfact> 0.21382105E+02</totfact>
</mgrwt>
</event>
<event>
 6    1  0.2238133E-007  0.1963997E+04  0.7818608E-02  0.8623641E-01
          2   -1    0    0  501    0  0.00000000000E+00  0.00000000000E+00  0.15702371395E+04  0.15702371395E+04  0.00000000000E+00 0. -1.
         -2   -1    0    0    0  501 -0.00000000000E+00 -0.00000000000E+00 -0.61412426213E+03  0.61412426213E+03  0.00000000000E+00 0.  1.
         23    2    1    2    0    0 -0.31926982674E+02 -0.94678450092E+03  0.75878651742E+03  0.12167055146E+04  0.84823975569E+02 0.  0.
         13    1    3    3    0    0 -0.57594155392E+02 -0.47527472695E+03  0.37108653462E+03  0.60572961706E+03  0.00000000000E+00 0. -1.
        -13    1    3    3    0    0  0.25667172717E+02 -0.47150977398E+03  0.38769998281E+03  0.61097589755E+03  0.00000000000E+00 0.  1.
         22    1    1    2    0    0  0.31926982674E+02  0.94678450092E+03  0.19732635997E+03  0.96765588705E+03  0.00000000000E+00 0. -1.
<mgrwt>
<rscale>  0 0.19639967E+04</rscale>
<asrwt>0</asrwt>
<pdfrwt beam="1">  1        2 0.24157494E+00 0.19639967E+04</pdfrwt>
<pdfrwt beam="2">  1       -2 0.94480656E-01 0.19639967E+04</pdfrwt>
<totfact> 0.10194145E+01</totfact>
</mgrwt>
</event>
<event>
 6    1  0.2238133E-007  0.1916783E+04  0.7818608E-02  0.8646547E-01
         -2   -1    0    0    0  501 -0.00000000000E+00  0.00000000000E+00  0.71455233896E+03  0.71455233896E+03  0.00000000000E+00 0.  1.
          2   -1    0    0  501    0  0.00000000000E+00 -0.00000000000E+00 -0.12854398242E+04  0.12854398242E+04  0.00000000000E+00 0. -1.
         23    2    1    2    0    0 -0.47061895463E+03 -0.18627364417E+03  0.56044234498E+03  0.76060229079E+03  0.90775281550E+02 0.  0.
         13    1    3    3    0    0 -0.61446865661E+02 -0.55700954993E+01  0.10798660303E+03  0.12436981023E+03  0.00000000000E+00 0.  1.
        -13    1    3    3    0    0 -0.40917208897E+03 -0.18070354867E+03  0.45245574195E+03  0.63623248056E+03  0.00000000000E+00 0. -1.
         22    1    1    2    0    0  0.47061895463E+03  0.18627364417E+03 -0.11313298303E+04  0.12393898724E+04  0.00000000000E+00 0. -1.
<mgrwt>
<rscale>  0 0.19167828E+04</rscale>
<asrwt>0</asrwt>
<pdfrwt beam="1">  1        2 0.19775997E+00 0.19167828E+04</pdfrwt>
<pdfrwt beam="2">  1       -2 0.10993113E+00 0.19167828E+04</pdfrwt>
<totfact> 0.10377512E+01</totfact>
</mgrwt>
</event>
<event>
 6    1  0.2238133E-007  0.4305236E+04  0.7818608E-02  0.7945651E-01
         -1   -1    0    0    0  501 -0.00000000000E+00  0.00000000000E+00  0.16247525382E+04  0.16247525382E+04  0.00000000000E+00 0.  1.
          1   -1    0    0  501    0  0.00000000000E+00 -0.00000000000E+00 -0.28519812211E+04  0.28519812211E+04  0.00000000000E+00 0. -1.
         23    2    1    2    0    0  0.12550161917E+04 -0.96374532963E+03 -0.21299531825E+04  0.26549812447E+04  0.91401028986E+02 0.  0.
         13    1    3    3    0    0  0.98727352082E+03 -0.71468729294E+03 -0.16092950180E+04  0.20187415353E+04  0.00000000000E+00 0.  1.
        -13    1    3    3    0    0  0.26774267089E+03 -0.24905803669E+03 -0.52065816460E+03  0.63623970940E+03  0.00000000000E+00 0. -1.
         22    1    1    2    0    0 -0.12550161917E+04  0.96374532963E+03  0.90272449964E+03  0.18217525145E+04  0.00000000000E+00 0.  1.
<mgrwt>
<rscale>  0 0.43052358E+04</rscale>
<asrwt>0</asrwt>
<pdfrwt beam="1">  1        1 0.43876634E+00 0.43052358E+04</pdfrwt>
<pdfrwt beam="2">  1       -1 0.24996193E+00 0.43052358E+04</pdfrwt>
<totfact> 0.40733000E-02</totfact>
</mgrwt>
</event>
<event>
 6    1  0.2238133E-007  0.1510391E+04  0.7818608E-02  0.8877572E-01
          2   -1    0    0  501    0  0.00000000000E+00  0.00000000000E+00  0.61137032861E+03  0.61137032861E+03  0.00000000000E+00 0. -1.
         -2   -1    0    0    0  501 -0.00000000000E+00 -0.00000000000E+00 -0.93285565599E+03  0.93285565599E+03  0.00000000000E+00 0.  1.
         23    2    1    2    0    0  0.15785409611E+03  0.73078151861E+03 -0.73770657152E+02  0.75662068913E+03  0.89851064366E+02 0.  0.
         11    1    3    3    0    0  0.32421981192E+02  0.31430445736E+03 -0.32744338767E+01  0.31598923826E+03  0.00000000000E+00 0. -1.
        -11    1    3    3    0    0  0.12543211492E+03  0.41647706125E+03 -0.70496223276E+02  0.44063145087E+03  0.00000000000E+00 0.  1.
         22    1    1    2    0    0 -0.15785409611E+03 -0.73078151861E+03 -0.24771467023E+03  0.78760529546E+03  0.00000000000E+00 0.  1.
<mgrwt>
<rscale>  0 0.15103910E+04</rscale>
<asrwt>0</asrwt>
<pdfrwt beam="1">  1        2 0.94056974E-01 0.15103910E+04</pdfrwt>
<pdfrwt beam="2">  1       -2 0.14351625E+00 0.15103910E+04</pdfrwt>
<totfact> 0.15745785E+01</totfact>
</mgrwt>
</event>
<event>
 6    1  0.2238133E-007  0.1386153E+04  0.7818608E-02  0.8963903E-01
          2   -1    0    0  501    0  0.00000000000E+00  0.00000000000E+00  0.42121389941E+03  0.42121389941E+03  0.00000000000E+00 0. -1.
         -2   -1    0    0    0  501 -0.00000000000E+00 -0.00000000000E+00 -0.11404058469E+04  0.11404058469E+04  0.00000000000E+00 0.  1.
         23    2    1    2    0    0  0.67746811359E+03 -0.70750409977E+02 -0.48368157898E+03  0.84090218785E+03  0.95916391967E+02 0.  0.
         11    1    3    3    0    0  0.13603573566E+03  0.24092300452E+02 -0.93380654688E+02  0.16675163264E+03  0.00000000000E+00 0. -1.
        -11    1    3    3    0    0  0.54143237792E+03 -0.94842710429E+02 -0.39030092429E+03  0.67415055521E+03  0.00000000000E+00 0.  1.
         22    1    1    2    0    0 -0.67746811359E+03  0.70750409977E+02 -0.23551036856E+03  0.72071755851E+03  0.00000000000E+00 0. -1.
<mgrwt>
<rscale>  0 0.13861527E+04</rscale>
<asrwt>0</asrwt>
<pdfrwt beam="1">  1        2 0.64802138E-01 0.13861527E+04</pdfrwt>
<pdfrwt beam="2">  1       -2 0.17544705E+00 0.13861527E+04</pdfrwt>
<totfact> 0.14235912E+01</totfact>
</mgrwt>
</event>
<event>
 6    1  0.2238133E-007  0.3191920E+04  0.7818608E-02  0.8190954E-01
         -2   -1    0    0    0  501 -0.00000000000E+00  0.00000000000E+00  0.28353916997E+04  0.28353916997E+04  0.00000000000E+00 0.  1.
          2   -1    0    0  501    0  0.00000000000E+00 -0.00000000000E+00 -0.89831961856E+03  0.89831961856E+03  0.00000000000E+00 0. -1.
         23    2    1    2    0    0 -0.72123363072E+03  0.11655538675E+04  0.15972512787E+02  0.13737712089E+04  0.91095803035E+02 0.  0.
         11    1    3    3    0    0 -0.38816746213E+03  0.65206751928E+03  0.52212208077E+02  0.76065244562E+03  0.00000000000E+00 0.  1.
        -11    1    3    3    0    0 -0.33306616859E+03  0.51348634818E+03 -0.36239695290E+02  0.61311876333E+03  0.00000000000E+00 0. -1.
         22    1    1    2    0    0  0.72123363072E+03 -0.11655538675E+04  0.19210995683E+04  0.23599401093E+04  0.00000000000E+00 0. -1.
<mgrwt>
<rscale>  0 0.31919198E+04</rscale>
<asrwt>0</asrwt>
<pdfrwt beam="1">  1        2 0.13820302E+00 0.31919198E+04</pdfrwt>
<pdfrwt beam="2">  1       -2 0.43621410E+00 0.31919198E+04</pdfrwt>
<totfact> 0.10595201E-01</totfact>
</mgrwt>
</event>
<event>
 6    1  0.2238133E-007  0.4306350E+04  0.7818608E-02  0.7945445E-01
          2   -1    0    0  501    0  0.00000000000E+00  0.00000000000E+00  0.90747955780E+03  0.90747955780E+03  0.00000000000E+00 0. -1.
         -2   -1    0    0    0  501 -0.00000000000E+00 -0.00000000000E+00 -0.51088335011E+04  0.51088335011E+04  0.00000000000E+00 0.  1.
         23    2    1    2    0    0  0.37830084922E+03 -0.11638356304E+04  0.37187167006E+03  0.12821798312E+04  0.89842491892E+02 0.  0.
         11    1    3    3    0    0  0.29507940034E+02 -0.63215159937E+02  0.41935105791E+02  0.81396732543E+02  0.00000000000E+00 0. -1.
        -11    1    3    3    0    0  0.34879290919E+03 -0.11006204705E+04  0.32993656427E+03  0.12007830986E+04  0.00000000000E+00 0.  1.
         22    1    1    2    0    0 -0.37830084922E+03  0.11638356304E+04 -0.45732256134E+04  0.47341332277E+04  0.00000000000E+00 0.  1.
<mgrwt>
<rscale>  0 0.43063497E+04</rscale>
<asrwt>0</asrwt>
<pdfrwt beam="1">  1        2 0.13961224E+00 0.43063497E+04</pdfrwt>
<pdfrwt beam="2">  1       -2 0.78597440E+00 0.43063497E+04</pdfrwt>
<totfact> 0.21112894E-03</totfact>
</mgrwt>
</event>
<event>
 6    1  0.2238133E-007  0.1878333E+04  0.7818608E-02  0.8665717E-01
          2   -1    0    0  501    0  0.00000000000E+00  0.00000000000E+00  0.18763574556E+04  0.18763574556E+04  0.00000000000E+00 0. -1.
         -2   -1    0    0    0  501 -0.00000000000E+00 -0.00000000000E+00 -0.47007772500E+03  0.47007772500E+03  0.00000000000E+00 0.  1.
         23    2    1    2    0    0 -0.34168423593E+03  0.65423108517E+03 -0.16012006619E+02  0.74403691061E+03  0.92564086523E+02 0.  0.
         11    1    3    3    0    0 -0.19078289035E+03  0.29307750591E+03  0.24346739166E+02  0.35054999562E+03  0.00000000000E+00 0.  1.
        -11    1    3    3    0    0 -0.15090134557E+03  0.36115357926E+03 -0.40358745784E+02  0.39348691499E+03  0.00000000000E+00 0. -1.
         22    1    1    2    0    0  0.34168423593E+03 -0.65423108517E+03  0.14222917372E+04  0.16023982700E+04  0.00000000000E+00 0. -1.
<mgrwt>
<rscale>  0 0.18783331E+04</rscale>
<asrwt>0</asrwt>
<pdfrwt beam="1">  1        2 0.28867037E+00 0.18783331E+04</pdfrwt>
<pdfrwt beam="2">  1       -2 0.72319651E-01 0.18783331E+04</pdfrwt>
<totfact> 0.12705866E+01</totfact>
</mgrwt>
</event>
<event>
 6    1  0.2238133E-007  0.5144593E+04  0.7818608E-02  0.7806581E-01
          2   -1    0    0  501    0  0.00000000000E+00  0.00000000000E+00  0.24573605724E+04  0.24573605724E+04  0.00000000000E+00 0. -1.
         -2   -1    0    0    0  501 -0.00000000000E+00 -0.00000000000E+00 -0.26926079405E+04  0.26926079405E+04  0.00000000000E+00 0.  1.
         23    2    1    2    0    0 -0.25212279984E+03 -0.24620786880E+04  0.58096223573E+03  0.25438995405E+04  0.92251725074E+02 0.  0.
         11    1    3    3    0    0 -0.68250159190E+02 -0.11107445588E+04  0.25325289533E+03  0.11412925077E+04  0.00000000000E+00 0. -1.
        -11    1    3    3    0    0 -0.18387264065E+03 -0.13513341292E+04  0.32770934040E+03  0.14026070328E+04  0.00000000000E+00 0.  1.
         22    1    1    2    0    0  0.25212279984E+03  0.24620786880E+04 -0.81620960382E+03  0.26060689725E+04  0.00000000000E+00 0. -1.
<mgrwt>
<rscale>  0 0.51445927E+04</rscale>
<asrwt>0</asrwt>
<pdfrwt beam="1">  1        2 0.37805547E+00 0.51445927E+04</pdfrwt>
<pdfrwt beam="2">  1       -2 0.41424738E+00 0.51445927E+04</pdfrwt>
<totfact> 0.15889122E-02</totfact>
</mgrwt>
</event>
<event>
 6    1  0.2238133E-007  0.2588785E+04  0.7818608E-02  0.8372021E-01
         -2   -1    0    0    0  501 -0.00000000000E+00  0.00000000000E+00  0.18822077632E+04  0.18822077632E+04  0.00000000000E+00 0.  1.
          2   -1    0    0  501    0  0.00000000000E+00 -0.00000000000E+00 -0.89015281856E+03  0.89015281856E+03  0.00000000000E+00 0. -1.
         23    2    1    2    0    0 -0.19719222799E+03 -0.71479651146E+03  0.16307076484E+04  0.17937410931E+04  0.92091515437E+02 0.  0.
         11    1    3    3    0    0 -0.56502182707E+02 -0.10594586554E+03  0.31716389968E+03  0.33913118750E+03  0.00000000000E+00 0.  1.
        -11    1    3    3    0    0 -0.14069004529E+03 -0.60885064592E+03  0.13135437487E+04  0.14546099056E+04  0.00000000000E+00 0. -1.
         22    1    1    2    0    0  0.19719222799E+03  0.71479651146E+03 -0.63865270371E+03  0.97861948863E+03  0.00000000000E+00 0. -1.
<mgrwt>
<rscale>  0 0.25887855E+04</rscale>
<asrwt>0</asrwt>
<pdfrwt beam="1">  1        2 0.13694659E+00 0.25887855E+04</pdfrwt>
<pdfrwt beam="2">  1       -2 0.28957042E+00 0.25887855E+04</pdfrwt>
<totfact> 0.97054265E-01</totfact>
</mgrwt>
</event>
<event>
 6    1  0.2238133E-007  0.1827673E+04  0.7818608E-02  0.8691720E-01
          2   -1    0    0  501    0  0.00000000000E+00  0.00000000000E+00  0.15147742152E+04  0.15147742152E+04  0.00000000000E+00 0. -1.
         -2   -1    0    0    0  501 -0.00000000000E+00 -0.00000000000E+00 -0.55130110965E+03  0.55130110965E+03  0.00000000000E+00 0.  1.
         23    2    1    2    0    0  0.19336180888E+03 -0.60537454350E+03 -0.25588898808E+03  0.69104403704E+03  0.90529331507E+02 0.  0.
         11    1    3    3    0    0  0.55044208471E+02 -0.81904712073E+02 -0.58683018355E+02  0.11481264473E+03  0.00000000000E+00 0. -1.
        -11    1    3    3    0    0  0.13831760041E+03 -0.52346983142E+03 -0.19720596973E+03  0.57623139232E+03  0.00000000000E+00 0.  1.
         22    1    1    2    0    0 -0.19336180888E+03  0.60537454350E+03  0.12193620936E+04  0.13750312878E+04  0.00000000000E+00 0. -1.
<mgrwt>
<rscale>  0 0.18276725E+04</rscale>
<asrwt>0</asrwt>
<pdfrwt beam="1">  1        2 0.23304218E+00 0.18276725E+04</pdfrwt>
<pdfrwt beam="2">  1       -2 0.84815556E-01 0.18276725E+04</pdfrwt>
<totfact> 0.14203699E+01</totfact>
</mgrwt>
</event>
<event>
 6    1  0.2238133E-007  0.2417403E+04  0.7818608E-02  0.8433017E-01
         -2   -1    0    0    0  501 -0.00000000000E+00  0.00000000000E+00  0.10158629687E+04  0.10158629687E+04  0.00000000000E+00 0.  1.
          2   -1    0    0  501    0  0.00000000000E+00 -0.00000000000E+00 -0.14381461573E+04  0.14381461573E+04  0.00000000000E+00 0. -1.
         23    2    1    2    0    0 -0.10877274604E+04 -0.40587173235E+03 -0.54635328799E+03  0.12864148982E+04  0.92078681665E+02 0.  0.
         11    1    3    3    0    0 -0.51836515155E+03 -0.19090977478E+03 -0.31076635680E+03  0.63381756126E+03  0.00000000000E+00 0.  1.
        -11    1    3    3    0    0 -0.56936230890E+03 -0.21496195757E+03 -0.23558693119E+03  0.65259733691E+03  0.00000000000E+00 0. -1.
         22    1    1    2    0    0  0.10877274604E+04  0.40587173235E+03  0.12407009936E+03  0.11675942278E+04  0.00000000000E+00 0.  1.
<mgrwt>
<rscale>  0 0.24174031E+04</rscale>
<asrwt>0</asrwt>
<pdfrwt beam="1">  1        2 0.22125326E+00 0.24174031E+04</pdfrwt>
<pdfrwt beam="2">  1       -2 0.15628661E+00 0.24174031E+04</pdfrwt>
<totfact> 0.33182284E+00</totfact>
</mgrwt>
</event>
<event>
 6    1  0.2238133E-007  0.1627799E+04  0.7818608E-02  0.8803650E-01
          2   -1    0    0  501    0  0.00000000000E+00  0.00000000000E+00  0.15904561592E+04  0.15904561592E+04  0.00000000000E+00 0. -1.
         -2   -1    0    0    0  501 -0.00000000000E+00 -0.00000000000E+00 -0.41650463709E+03  0.41650463709E+03  0.00000000000E+00 0.  1.
         23    2    1    2    0    0  0.49719100138E+03 -0.53574435107E+03  0.15450962683E+03  0.75257541715E+03  0.90970501549E+02 0.  0.
         11    1    3    3    0    0  0.22614678806E+03 -0.18471436034E+03  0.41700031470E+02  0.29495873829E+03  0.00000000000E+00 0. -1.
        -11    1    3    3    0    0  0.27104421332E+03 -0.35102999073E+03  0.11280959536E+03  0.45761667886E+03  0.00000000000E+00 0.  1.
         22    1    1    2    0    0 -0.49719100138E+03  0.53574435107E+03  0.10194418952E+04  0.12543853791E+04  0.00000000000E+00 0. -1.
<mgrwt>
<rscale>  0 0.16277990E+04</rscale>
<asrwt>0</asrwt>
<pdfrwt beam="1">  1        2 0.24468556E+00 0.16277990E+04</pdfrwt>
<pdfrwt beam="2">  1       -2 0.64077637E-01 0.16277990E+04</pdfrwt>
<totfact> 0.24318262E+01</totfact>
</mgrwt>
</event>
<event>
 6    1  0.2238133E-007  0.2270931E+04  0.7818608E-02  0.8489471E-01
         -2   -1    0    0    0  501 -0.00000000000E+00  0.00000000000E+00  0.52250373173E+03  0.52250373173E+03  0.00000000000E+00 0.  1.
          2   -1    0    0  501    0  0.00000000000E+00 -0.00000000000E+00 -0.24675086271E+04  0.24675086271E+04  0.00000000000E+00 0. -1.
         23    2    1    2    0    0 -0.97472385402E+03  0.53658172426E+03 -0.69194477563E+03  0.13142539627E+04  0.10231992776E+03 0.  0.
         13    1    3    3    0    0 -0.48338745592E+03  0.26882759259E+03 -0.40409383885E+03  0.68499893261E+03  0.00000000000E+00 0.  1.
        -13    1    3    3    0    0 -0.49133639810E+03  0.26775413167E+03 -0.28785093678E+03  0.62925503012E+03  0.00000000000E+00 0. -1.
         22    1    1    2    0    0  0.97472385402E+03 -0.53658172426E+03 -0.12530601197E+04  0.16757583961E+04  0.00000000000E+00 0.  1.
<mgrwt>
<rscale>  0 0.22709315E+04</rscale>
<asrwt>0</asrwt>
<pdfrwt beam="1">  1        2 0.37961672E+00 0.22709315E+04</pdfrwt>
<pdfrwt beam="2">  1       -2 0.80385187E-01 0.22709315E+04</pdfrwt>
<totfact> 0.45172564E+00</totfact>
</mgrwt>
</event>
<event>
 6    1  0.2238133E-007  0.1515362E+04  0.7818608E-02  0.8874301E-01
         -2   -1    0    0    0  501 -0.00000000000E+00  0.00000000000E+00  0.55201012953E+03  0.55201012953E+03  0.00000000000E+00 0.  1.
          2   -1    0    0  501    0  0.00000000000E+00 -0.00000000000E+00 -0.10399811372E+04  0.10399811372E+04  0.00000000000E+00 0. -1.
         23    2    1    2    0    0  0.31228972536E+03 -0.18283351355E+03  0.45126952833E+03  0.58544978686E+03  0.90301160008E+02 0.  0.
         13    1    3    3    0    0  0.12090769588E+03 -0.21838952481E+02  0.14628243800E+03  0.19103445353E+03  0.00000000000E+00 0.  1.
        -13    1    3    3    0    0  0.19138202948E+03 -0.16099456107E+03  0.30498709033E+03  0.39441533333E+03  0.00000000000E+00 0. -1.
         22    1    1    2    0    0 -0.31228972536E+03  0.18283351355E+03 -0.93924053604E+03  0.10065414799E+04  0.00000000000E+00 0. -1.
<mgrwt>
<rscale>  0 0.15153615E+04</rscale>
<asrwt>0</asrwt>
<pdfrwt beam="1">  1        2 0.15999710E+00 0.15153615E+04</pdfrwt>
<pdfrwt beam="2">  1       -2 0.84924637E-01 0.15153615E+04</pdfrwt>
<totfact> 0.27681542E+01</totfact>
</mgrwt>
</event>
<event>
 6    1  0.2238133E-007  0.9394939E+03  0.7818608E-02  0.9377516E-01
          1   -1    0    0  501    0  0.00000000000E+00  0.00000000000E+00  0.86407643599E+03  0.86407643599E+03  0.00000000000E+00 0. -1.
         -1   -1    0    0    0  501 -0.00000000000E+00 -0.00000000000E+00 -0.25537345030E+03  0.25537345030E+03  0.00000000000E+00 0.  1.
         23    2    1    2    0    0 -0.14049208743E+03 -0.22269458791E+03  0.76457286305E+03  0.81346569587E+03  0.88452638935E+02 0.  0.
         13    1    3    3    0    0 -0.58774294119E+02 -0.12133866490E+03  0.26657551972E+03  0.29873064282E+03  0.00000000000E+00 0. -1.
        -13    1    3    3    0    0 -0.81717793310E+02 -0.10135592301E+03  0.49799734333E+03  0.51473505305E+03  0.00000000000E+00 0.  1.
         22    1    1    2    0    0  0.14049208743E+03  0.22269458791E+03 -0.15586987736E+03  0.30598419041E+03  0.00000000000E+00 0.  1.
<mgrwt>
<rscale>  0 0.93949387E+03</rscale>
<asrwt>0</asrwt>
<pdfrwt beam="1">  1        1 0.13293484E+00 0.93949387E+03</pdfrwt>
<pdfrwt beam="2">  1       -1 0.39288223E-01 0.93949387E+03</pdfrwt>
<totfact> 0.12326195E+02</totfact>
</mgrwt>
</event>
<event>
 6    1  0.2238133E-007  0.1839767E+04  0.7818608E-02  0.8685433E-01
         -2   -1    0    0    0  501 -0.00000000000E+00  0.00000000000E+00  0.10918029485E+04  0.10918029485E+04  0.00000000000E+00 0.  1.
          2   -1    0    0  501    0  0.00000000000E+00 -0.00000000000E+00 -0.77503517946E+03  0.77503517946E+03  0.00000000000E+00 0. -1.
         23    2    1    2    0    0  0.58198313352E+03  0.69811005000E+03  0.31035992745E+02  0.91410277248E+03  0.92512897434E+02 0.  0.
         13    1    3    3    0    0  0.25348038563E+03  0.27825841008E+03  0.55362727725E+02  0.38045378208E+03  0.00000000000E+00 0.  1.
        -13    1    3    3    0    0  0.32850274789E+03  0.41985163992E+03 -0.24326734980E+02  0.53364899040E+03  0.00000000000E+00 0. -1.
         22    1    1    2    0    0 -0.58198313352E+03 -0.69811005000E+03  0.28573177631E+03  0.95273535549E+03  0.00000000000E+00 0. -1.
<mgrwt>
<rscale>  0 0.18397670E+04</rscale>
<asrwt>0</asrwt>
<pdfrwt beam="1">  1        2 0.11923618E+00 0.18397670E+04</pdfrwt>
<pdfrwt beam="2">  1       -2 0.16796969E+00 0.18397670E+04</pdfrwt>
<totfact> 0.74461738E+00</totfact>
</mgrwt>
</event>
<event>
 6    1  0.2238133E-007  0.2093820E+04  0.7818608E-02  0.8563970E-01
         -2   -1    0    0    0  501 -0.00000000000E+00  0.00000000000E+00  0.24373349023E+04  0.24373349023E+04  0.00000000000E+00 0.  1.
          2   -1    0    0  501    0  0.00000000000E+00 -0.00000000000E+00 -0.44968006175E+03  0.44968006175E+03  0.00000000000E+00 0. -1.
         23    2    1    2    0    0 -0.75875572844E+03  0.67145021046E+03  0.64336126996E+03  0.12036609180E+04  0.91270154776E+02 0.  0.
         13    1    3    3    0    0 -0.49875153792E+03  0.49538571852E+03  0.45859112019E+03  0.83932468224E+03  0.00000000000E+00 0. -1.
        -13    1    3    3    0    0 -0.26000419052E+03  0.17606449194E+03  0.18477014976E+03  0.36433623572E+03  0.00000000000E+00 0.  1.
         22    1    1    2    0    0  0.75875572844E+03 -0.67145021046E+03  0.13442935706E+04  0.16833540461E+04  0.00000000000E+00 0. -1.
<mgrwt>
<rscale>  0 0.20938203E+04</rscale>
<asrwt>0</asrwt>
<pdfrwt beam="1">  1        2 0.69181549E-01 0.20938203E+04</pdfrwt>
<pdfrwt beam="2">  1       -2 0.37497459E+00 0.20938203E+04</pdfrwt>
<totfact> 0.69383054E-01</totfact>
</mgrwt>
</event>
<event>
 6    1  0.2238133E-007  0.2739188E+04  0.7818608E-02  0.8322401E-01
         -2   -1    0    0    0  501 -0.00000000000E+00  0.00000000000E+00  0.15117754516E+04  0.15117754516E+04  0.00000000000E+00 0.  1.
          2   -1    0    0  501    0  0.00000000000E+00 -0.00000000000E+00 -0.12407846398E+04  0.12407846398E+04  0.00000000000E+00 0. -1.
         23    2    1    2    0    0 -0.13653550425E+04  0.84535896078E+02  0.14884769973E+03  0.13791484089E+04  0.92487763793E+02 0.  0.
         11    1    3    3    0    0 -0.89975166700E+03  0.97461575504E+02  0.11180919801E+03  0.91189534363E+03  0.00000000000E+00 0.  1.
        -11    1    3    3    0    0 -0.46560337547E+03 -0.12925679425E+02  0.37038501721E+02  0.46725306531E+03  0.00000000000E+00 0. -1.
         22    1    1    2    0    0  0.13653550425E+04 -0.84535896078E+02  0.12214311209E+03  0.13734116825E+04  0.00000000000E+00 0.  1.
<mgrwt>
<rscale>  0 0.27391880E+04</rscale>
<asrwt>0</asrwt>
<pdfrwt beam="1">  1        2 0.19088994E+00 0.27391880E+04</pdfrwt>
<pdfrwt beam="2">  1       -2 0.23258084E+00 0.27391880E+04</pdfrwt>
<totfact> 0.12903092E+00</totfact>
</mgrwt>
</event>
<event>
 6    1  0.4333470E-007  0.3467484E+04  0.7818608E-02  0.8121539E-01
          2   -1    0    0  501    0  0.00000000000E+00  0.00000000000E+00  0.17737986134E+04  0.17737986134E+04  0.00000000000E+00 0. -1.
         -2   -1    0    0    0  501 -0.00000000000E+00 -0.00000000000E+00 -0.16945901102E+04  0.16945901102E+04  0.00000000000E+00 0.  1.
         23    2    1    2    0    0  0.45653829750E+03  0.16691609487E+04  0.12110688981E+03  0.17374118421E+04  0.96992477409E+02 0.  0.
         13    1    3    3    0    0  0.19820756623E+03  0.86869127352E+03  0.32118120924E+02  0.89159539125E+03  0.00000000000E+00 0. -1.
        -13    1    3    3    0    0  0.25833073126E+03  0.80046967514E+03  0.88988768882E+02  0.84581645085E+03  0.00000000000E+00 0.  1.
         22    1    1    2    0    0 -0.45653829750E+03 -0.16691609487E+04 -0.41898386580E+02  0.17309768815E+04  0.00000000000E+00 0. -1.
<mgrwt>
<rscale>  0 0.34674842E+04</rscale>
<asrwt>0</asrwt>
<pdfrwt beam="1">  1        2 0.27289209E+00 0.34674842E+04</pdfrwt>
<pdfrwt beam="2">  1       -2 0.26070617E+00 0.34674842E+04</pdfrwt>
<totfact> 0.40610981E-01</totfact>
</mgrwt>
</event>
<event>
 6    1  0.2238133E-007  0.2188739E+04  0.7818608E-02  0.8523130E-01
         -2   -1    0    0    0  501 -0.00000000000E+00  0.00000000000E+00  0.57491110859E+03  0.57491110859E+03  0.00000000000E+00 0.  1.
          2   -1    0    0  501    0  0.00000000000E+00 -0.00000000000E+00 -0.20831821826E+04  0.20831821826E+04  0.00000000000E+00 0. -1.
         23    2    1    2    0    0 -0.83774077452E+03  0.47904475919E+03 -0.13585028747E+03  0.98034709409E+03  0.10645016528E+03 0.  0.
         13    1    3    3    0    0 -0.20783245939E+03  0.67768600481E+02 -0.31366044660E+02  0.22084099064E+03  0.00000000000E+00 0. -1.
        -13    1    3    3    0    0 -0.62990831512E+03  0.41127615871E+03 -0.10448424281E+03  0.75950610345E+03  0.00000000000E+00 0.  1.
         22    1    1    2    0    0  0.83774077452E+03 -0.47904475919E+03 -0.13724207866E+04  0.16777461971E+04  0.00000000000E+00 0. -1.
<mgrwt>
<rscale>  0 0.21887390E+04</rscale>
<asrwt>0</asrwt>
<pdfrwt beam="1">  1        2 0.32048957E+00 0.21887390E+04</pdfrwt>
<pdfrwt beam="2">  1       -2 0.88447863E-01 0.21887390E+04</pdfrwt>
<totfact> 0.60423035E+00</totfact>
</mgrwt>
</event>
<event>
 6    1  0.2238133E-007  0.4145071E+04  0.7818608E-02  0.7975904E-01
         -2   -1    0    0    0  501 -0.00000000000E+00  0.00000000000E+00  0.29265009750E+04  0.29265009750E+04  0.00000000000E+00 0.  1.
          2   -1    0    0  501    0  0.00000000000E+00 -0.00000000000E+00 -0.14677606662E+04  0.14677606662E+04  0.00000000000E+00 0. -1.
         23    2    1    2    0    0 -0.77570641645E+03 -0.96069470253E+02 -0.13040276618E+04  0.15230534205E+04  0.90850379603E+02 0.  0.
         11    1    3    3    0    0 -0.35668694354E+03 -0.55037658306E+02 -0.68766180954E+03  0.77661669041E+03  0.00000000000E+00 0. -1.
        -11    1    3    3    0    0 -0.41901947291E+03 -0.41031811947E+02 -0.61636585224E+03  0.74643673013E+03  0.00000000000E+00 0.  1.
         22    1    1    2    0    0  0.77570641645E+03  0.96069470253E+02  0.27627679706E+04  0.28712082207E+04  0.00000000000E+00 0.  1.
<mgrwt>
<rscale>  0 0.41450708E+04</rscale>
<asrwt>0</asrwt>
<pdfrwt beam="1">  1        2 0.22580933E+00 0.41450708E+04</pdfrwt>
<pdfrwt beam="2">  1       -2 0.45023092E+00 0.41450708E+04</pdfrwt>
<totfact> 0.35715208E-02</totfact>
</mgrwt>
</event>
<event>
 6    1  0.2238133E-007  0.1061811E+04  0.7818608E-02  0.9243234E-01
          2   -1    0    0  501    0  0.00000000000E+00  0.00000000000E+00  0.59540529745E+03  0.59540529745E+03  0.00000000000E+00 0. -1.
         -2   -1    0    0    0  501 -0.00000000000E+00 -0.00000000000E+00 -0.47339323877E+03  0.47339323877E+03  0.00000000000E+00 0.  1.
         23    2    1    2    0    0 -0.28373054364E+03 -0.24172322159E+03  0.43646247604E+03  0.58113861145E+03  0.91046446824E+02 0.  0.
         11    1    3    3    0    0 -0.76958956313E+02 -0.28982884090E+02  0.13574980040E+03  0.15871577375E+03  0.00000000000E+00 0. -1.
        -11    1    3    3    0    0 -0.20677158733E+03 -0.21274033750E+03  0.30071267564E+03  0.42242283771E+03  0.00000000000E+00 0.  1.
         22    1    1    2    0    0  0.28373054364E+03  0.24172322159E+03 -0.31445041736E+03  0.48765992477E+03  0.00000000000E+00 0.  1.
<mgrwt>
<rscale>  0 0.10618114E+04</rscale>
<asrwt>0</asrwt>
<pdfrwt beam="1">  1        2 0.91600814E-01 0.10618114E+04</pdfrwt>
<pdfrwt beam="2">  1       -2 0.72829729E-01 0.10618114E+04</pdfrwt>
<totfact> 0.84939572E+01</totfact>
</mgrwt>
</event>
<event>
 6    1  0.2238133E-007  0.2180339E+04  0.7818608E-02  0.8526656E-01
         -2   -1    0    0    0  501 -0.00000000000E+00  0.00000000000E+00  0.74664630798E+03  0.74664630798E+03  0.00000000000E+00 0.  1.
          2   -1    0    0  501    0  0.00000000000E+00 -0.00000000000E+00 -0.15917433511E+04  0.15917433511E+04  0.00000000000E+00 0. -1.
         23    2    1    2    0    0  0.59614729891E+03 -0.15021549911E+03  0.53973768929E+03  0.82322513526E+03  0.91796252152E+02 0.  0.
         13    1    3    3    0    0  0.33994614875E+03 -0.71498261443E+02  0.36146065333E+03  0.50132742728E+03  0.00000000000E+00 0.  1.
        -13    1    3    3    0    0  0.25620115017E+03 -0.78717237667E+02  0.17827703596E+03  0.32189770798E+03  0.00000000000E+00 0. -1.
         22    1    1    2    0    0 -0.59614729891E+03  0.15021549911E+03 -0.13848347324E+04  0.15151645238E+04  0.00000000000E+00 0. -1.
<mgrwt>
<rscale>  0 0.21803388E+04</rscale>
<asrwt>0</asrwt>
<pdfrwt beam="1">  1        2 0.24488359E+00 0.21803388E+04</pdfrwt>
<pdfrwt beam="2">  1       -2 0.11486866E+00 0.21803388E+04</pdfrwt>
<totfact> 0.61024467E+00</totfact>
</mgrwt>
</event>
<event>
 6    1  0.2238133E-007  0.1533628E+04  0.7818608E-02  0.8862394E-01
         -2   -1    0    0    0  501 -0.00000000000E+00  0.00000000000E+00  0.42877449409E+03  0.42877449409E+03  0.00000000000E+00 0.  1.
          2   -1    0    0  501    0  0.00000000000E+00 -0.00000000000E+00 -0.13713590384E+04  0.13713590384E+04  0.00000000000E+00 0. -1.
         23    2    1    2    0    0 -0.38461987577E+03  0.37080169773E+03  0.16822413978E+03  0.56752561407E+03  0.91430922270E+02 0.  0.
         13    1    3    3    0    0 -0.22223457897E+03  0.27258865654E+03  0.97076028046E+02  0.36485139301E+03  0.00000000000E+00 0.  1.
        -13    1    3    3    0    0 -0.16238529681E+03  0.98213041183E+02  0.71148111736E+02  0.20267422106E+03  0.00000000000E+00 0. -1.
         22    1    1    2    0    0  0.38461987577E+03 -0.37080169773E+03 -0.11108086841E+04  0.12326079184E+04  0.00000000000E+00 0. -1.
<mgrwt>
<rscale>  0 0.15336281E+04</rscale>
<asrwt>0</asrwt>
<pdfrwt beam="1">  1        2 0.21097831E+00 0.15336281E+04</pdfrwt>
<pdfrwt beam="2">  1       -2 0.65965307E-01 0.15336281E+04</pdfrwt>
<totfact> 0.30631606E+01</totfact>
</mgrwt>
</event>
<event>
 6    1  0.2238133E-007  0.2046850E+04  0.7818608E-02  0.8585025E-01
          2   -1    0    0  501    0  0.00000000000E+00  0.00000000000E+00  0.14836814248E+04  0.14836814248E+04  0.00000000000E+00 0. -1.
         -2   -1    0    0    0  501 -0.00000000000E+00 -0.00000000000E+00 -0.70594592441E+03  0.70594592441E+03  0.00000000000E+00 0.  1.
         23    2    1    2    0    0 -0.19977322091E+03 -0.67551899759E+03  0.11808109031E+04  0.13780208952E+04  0.91607548421E+02 0.  0.
         11    1    3    3    0    0  0.54028575931E+01 -0.37928793483E+02  0.92453031900E+02  0.10007670734E+03  0.00000000000E+00 0.  1.
        -11    1    3    3    0    0 -0.20517607850E+03 -0.63759020411E+03  0.10883578712E+04  0.12779441879E+04  0.00000000000E+00 0. -1.
         22    1    1    2    0    0  0.19977322091E+03  0.67551899759E+03 -0.40307540269E+03  0.81160645399E+03  0.00000000000E+00 0.  1.
<mgrwt>
<rscale>  0 0.20468501E+04</rscale>
<asrwt>0</asrwt>
<pdfrwt beam="1">  1        2 0.22825868E+00 0.20468501E+04</pdfrwt>
<pdfrwt beam="2">  1       -2 0.10860707E+00 0.20468501E+04</pdfrwt>
<totfact> 0.81331853E+00</totfact>
</mgrwt>
</event>
<event>
 6    1  0.2238133E-007  0.2333696E+04  0.7818608E-02  0.8464753E-01
          1   -1    0    0  501    0  0.00000000000E+00  0.00000000000E+00  0.27881753218E+04  0.27881753218E+04  0.00000000000E+00 0. -1.
         -1   -1    0    0    0  501 -0.00000000000E+00 -0.00000000000E+00 -0.48832449339E+03  0.48832449339E+03  0.00000000000E+00 0.  1.
         23    2    1    2    0    0 -0.90708692197E+03  0.41627963435E+03  0.30800539290E+03  0.10485986376E+04  0.92716572414E+02 0.  0.
         13    1    3    3    0    0 -0.35919560181E+03  0.16828777907E+03  0.17004221129E+03  0.43157457127E+03  0.00000000000E+00 0. -1.
        -13    1    3    3    0    0 -0.54789132016E+03  0.24799185528E+03  0.13796318162E+03  0.61702406637E+03  0.00000000000E+00 0.  1.
         22    1    1    2    0    0  0.90708692197E+03 -0.41627963435E+03  0.19918454355E+04  0.22279011775E+04  0.00000000000E+00 0. -1.
<mgrwt>
<rscale>  0 0.23336960E+04</rscale>
<asrwt>0</asrwt>
<pdfrwt beam="1">  1        1 0.42895004E+00 0.23336960E+04</pdfrwt>
<pdfrwt beam="2">  1       -1 0.75126847E-01 0.23336960E+04</pdfrwt>
<totfact> 0.13645489E+00</totfact>
</mgrwt>
</event>
<event>
 6    1  0.2238133E-007  0.1324571E+04  0.7818608E-02  0.9010304E-01
         -2   -1    0    0    0  501 -0.00000000000E+00  0.00000000000E+00  0.30575499786E+03  0.30575499786E+03  0.00000000000E+00 0.  1.
          2   -1    0    0  501    0  0.00000000000E+00 -0.00000000000E+00 -0.14345530272E+04  0.14345530272E+04  0.00000000000E+00 0. -1.
         23    2    1    2    0    0 -0.51754261518E+03 -0.38683433669E+03 -0.39620937353E+03  0.76348803080E+03  0.91874604392E+02 0.  0.
         11    1    3    3    0    0 -0.35355504889E+03 -0.31391552124E+03 -0.29844231848E+03  0.55911711164E+03  0.00000000000E+00 0.  1.
        -11    1    3    3    0    0 -0.16398756629E+03 -0.72918815453E+02 -0.97767055048E+02  0.20437091916E+03  0.00000000000E+00 0. -1.
         22    1    1    2    0    0  0.51754261518E+03  0.38683433669E+03 -0.73258865586E+03  0.97681999430E+03  0.00000000000E+00 0. -1.
<mgrwt>
<rscale>  0 0.13245705E+04</rscale>
<asrwt>0</asrwt>
<pdfrwt beam="1">  1        2 0.22070046E+00 0.13245705E+04</pdfrwt>
<pdfrwt beam="2">  1       -2 0.47039231E-01 0.13245705E+04</pdfrwt>
<totfact> 0.57942413E+01</totfact>
</mgrwt>
</event>
<event>
 6    1  0.2238133E-007  0.3949767E+04  0.7818608E-02  0.8014757E-01
          2   -1    0    0  501    0  0.00000000000E+00  0.00000000000E+00  0.27801675909E+04  0.27801675909E+04  0.00000000000E+00 0. -1.
         -2   -1    0    0    0  501 -0.00000000000E+00 -0.00000000000E+00 -0.14028527376E+04  0.14028527376E+04  0.00000000000E+00 0.  1.
         23    2    1    2    0    0 -0.10497435740E+04 -0.33521367581E+03 -0.10453787688E+04  0.15214842745E+04  0.88135394492E+02 0.  0.
         11    1    3    3    0    0 -0.65570490317E+03 -0.19516985855E+03 -0.59223430475E+03  0.90486555104E+03  0.00000000000E+00 0. -1.
        -11    1    3    3    0    0 -0.39403867087E+03 -0.14004381727E+03 -0.45314446402E+03  0.61661872350E+03  0.00000000000E+00 0.  1.
         22    1    1    2    0    0  0.10497435740E+04  0.33521367581E+03  0.24226936221E+04  0.26615360539E+04  0.00000000000E+00 0. -1.
<mgrwt>
<rscale>  0 0.39497674E+04</rscale>
<asrwt>0</asrwt>
<pdfrwt beam="1">  1        2 0.42771809E+00 0.39497674E+04</pdfrwt>
<pdfrwt beam="2">  1       -2 0.21582350E+00 0.39497674E+04</pdfrwt>
<totfact> 0.19778440E-01</totfact>
</mgrwt>
</event>
<event>
 6    1  0.2238133E-007  0.6363320E+04  0.7818608E-02  0.7646917E-01
          2   -1    0    0  501    0  0.00000000000E+00  0.00000000000E+00  0.26218150100E+04  0.26218150100E+04  0.00000000000E+00 0. -1.
         -2   -1    0    0    0  501 -0.00000000000E+00 -0.00000000000E+00 -0.38610502030E+04  0.38610502030E+04  0.00000000000E+00 0.  1.
         23    2    1    2    0    0 -0.50633080512E+03  0.94417890414E+03  0.24316470191E+04  0.26588331914E+04  0.92962505162E+02 0.  0.
         11    1    3    3    0    0 -0.16425737649E+03  0.27091758330E+03  0.62535437431E+03  0.70103132322E+03  0.00000000000E+00 0. -1.
        -11    1    3    3    0    0 -0.34207342863E+03  0.67326132083E+03  0.18062926448E+04  0.19578018682E+04  0.00000000000E+00 0.  1.
         22    1    1    2    0    0  0.50633080512E+03 -0.94417890414E+03 -0.36708822120E+04  0.38240320216E+04  0.00000000000E+00 0.  1.
<mgrwt>
<rscale>  0 0.63633197E+04</rscale>
<asrwt>0</asrwt>
<pdfrwt beam="1">  1        2 0.40335616E+00 0.63633197E+04</pdfrwt>
<pdfrwt beam="2">  1       -2 0.59400772E+00 0.63633197E+04</pdfrwt>
<totfact> 0.10627000E-03</totfact>
</mgrwt>
</event>
<event>
 6    1  0.2238133E-007  0.1552723E+04  0.7818608E-02  0.8850130E-01
         -2   -1    0    0    0  501 -0.00000000000E+00  0.00000000000E+00  0.13074580186E+04  0.13074580186E+04  0.00000000000E+00 0.  1.
          2   -1    0    0  501    0  0.00000000000E+00 -0.00000000000E+00 -0.46099939255E+03  0.46099939255E+03  0.00000000000E+00 0. -1.
         23    2    1    2    0    0  0.32422683915E+03  0.16982916886E+03 -0.35170597268E+03  0.51563523883E+03  0.90651080954E+02 0.  0.
         13    1    3    3    0    0  0.12285038516E+03  0.19372080546E+02 -0.96482565959E+02  0.15740514659E+03  0.00000000000E+00 0. -1.
        -13    1    3    3    0    0  0.20137645399E+03  0.15045708832E+03 -0.25522340672E+03  0.35823009224E+03  0.00000000000E+00 0.  1.
         22    1    1    2    0    0 -0.32422683915E+03 -0.16982916886E+03  0.11981645987E+04  0.12528221723E+04  0.00000000000E+00 0.  1.
<mgrwt>
<rscale>  0 0.15527232E+04</rscale>
<asrwt>0</asrwt>
<pdfrwt beam="1">  1        2 0.70922984E-01 0.15527232E+04</pdfrwt>
<pdfrwt beam="2">  1       -2 0.20114739E+00 0.15527232E+04</pdfrwt>
<totfact> 0.85012446E+00</totfact>
</mgrwt>
</event>
<event>
 6    1  0.2238133E-007  0.6768058E+04  0.7818608E-02  0.7601840E-01
          2   -1    0    0  501    0  0.00000000000E+00  0.00000000000E+00  0.45695546548E+04  0.45695546548E+04  0.00000000000E+00 0. -1.
         -2   -1    0    0    0  501 -0.00000000000E+00 -0.00000000000E+00 -0.25060763200E+04  0.25060763200E+04  0.00000000000E+00 0.  1.
         23    2    1    2    0    0  0.10586034972E+04 -0.10981909371E+04  0.41887479769E+04  0.44596348451E+04  0.12676213622E+03 0.  0.
         13    1    3    3    0    0  0.84072573916E+03 -0.93911812668E+03  0.34869962743E+04  0.37078168295E+04  0.00000000000E+00 0. -1.
        -13    1    3    3    0    0  0.21787775804E+03 -0.15907281046E+03  0.70175170257E+03  0.75181801557E+03  0.00000000000E+00 0.  1.
         22    1    1    2    0    0 -0.10586034972E+04  0.10981909371E+04 -0.21252696422E+04  0.26159961297E+04  0.00000000000E+00 0.  1.
<mgrwt>
<rscale>  0 0.67680581E+04</rscale>
<asrwt>0</asrwt>
<pdfrwt beam="1">  1        2 0.70300841E+00 0.67680581E+04</pdfrwt>
<pdfrwt beam="2">  1       -2 0.38555020E+00 0.67680581E+04</pdfrwt>
<totfact> 0.60584604E-04</totfact>
</mgrwt>
</event>
<event>
 6    1  0.2238133E-007  0.2888620E+04  0.7818608E-02  0.8276271E-01
         -2   -1    0    0    0  501 -0.00000000000E+00  0.00000000000E+00  0.10546864208E+04  0.10546864208E+04  0.00000000000E+00 0.  1.
          2   -1    0    0  501    0  0.00000000000E+00 -0.00000000000E+00 -0.19778689952E+04  0.19778689952E+04  0.00000000000E+00 0. -1.
         23    2    1    2    0    0 -0.76701259794E+02  0.11785734978E+04  0.40821898394E+03  0.12527945662E+04  0.89066904141E+02 0.  0.
         11    1    3    3    0    0 -0.36344417774E+02  0.92122723204E+03  0.28783484752E+03  0.96583095271E+03  0.00000000000E+00 0.  1.
        -11    1    3    3    0    0 -0.40356842020E+02  0.25734626574E+03  0.12038413642E+03  0.28696361353E+03  0.00000000000E+00 0. -1.
         22    1    1    2    0    0  0.76701259794E+02 -0.11785734978E+04 -0.13314015583E+04  0.17797608498E+04  0.00000000000E+00 0. -1.
<mgrwt>
<rscale>  0 0.28886201E+04</rscale>
<asrwt>0</asrwt>
<pdfrwt beam="1">  1        2 0.30428754E+00 0.28886201E+04</pdfrwt>
<pdfrwt beam="2">  1       -2 0.16225945E+00 0.28886201E+04</pdfrwt>
<totfact> 0.14395530E+00</totfact>
</mgrwt>
</event>
<event>
 6    1  0.2238133E-007  0.2180928E+04  0.7818608E-02  0.8526409E-01
          2   -1    0    0  501    0  0.00000000000E+00  0.00000000000E+00  0.12870641889E+04  0.12870641889E+04  0.00000000000E+00 0. -1.
         -2   -1    0    0    0  501 -0.00000000000E+00 -0.00000000000E+00 -0.92389427320E+03  0.92389427320E+03  0.00000000000E+00 0.  1.
         23    2    1    2    0    0  0.46000402364E+03  0.18934206103E+03 -0.79962833767E+03  0.94622374846E+03  0.92085753055E+02 0.  0.
         13    1    3    3    0    0  0.34009090219E+03  0.15596142969E+03 -0.66384747147E+03  0.76202313264E+03  0.00000000000E+00 0. -1.
        -13    1    3    3    0    0  0.11991312144E+03  0.33380631346E+02 -0.13578086620E+03  0.18420061582E+03  0.00000000000E+00 0.  1.
         22    1    1    2    0    0 -0.46000402364E+03 -0.18934206103E+03  0.11627982533E+04  0.12647347136E+04  0.00000000000E+00 0. -1.
<mgrwt>
<rscale>  0 0.21809275E+04</rscale>
<asrwt>0</asrwt>
<pdfrwt beam="1">  1        2 0.19800988E+00 0.21809275E+04</pdfrwt>
<pdfrwt beam="2">  1       -2 0.14213758E+00 0.21809275E+04</pdfrwt>
<totfact> 0.53176130E+00</totfact>
</mgrwt>
</event>
<event>
 6    1  0.2238133E-007  0.1022532E+04  0.7818608E-02  0.9284172E-01
         -2   -1    0    0    0  501 -0.00000000000E+00  0.00000000000E+00  0.13414933854E+04  0.13414933854E+04  0.00000000000E+00 0.  1.
          2   -1    0    0  501    0  0.00000000000E+00 -0.00000000000E+00 -0.19485205730E+03  0.19485205730E+03  0.00000000000E+00 0. -1.
         23    2    1    2    0    0  0.33531408628E+03  0.38094722858E+03  0.57276122476E+03  0.77025491253E+03  0.87640642793E+02 0.  0.
         11    1    3    3    0    0  0.30738423989E+03  0.30876372276E+03  0.46093669799E+03  0.63425763455E+03  0.00000000000E+00 0. -1.
        -11    1    3    3    0    0  0.27929846387E+02  0.72183505820E+02  0.11182452677E+03  0.13599727799E+03  0.00000000000E+00 0.  1.
         22    1    1    2    0    0 -0.33531408628E+03 -0.38094722858E+03  0.57388010335E+03  0.76609053018E+03  0.00000000000E+00 0.  1.
<mgrwt>
<rscale>  0 0.10225317E+04</rscale>
<asrwt>0</asrwt>
<pdfrwt beam="1">  1        2 0.29977240E-01 0.10225317E+04</pdfrwt>
<pdfrwt beam="2">  1       -2 0.20638359E+00 0.10225317E+04</pdfrwt>
<totfact> 0.21503138E+01</totfact>
</mgrwt>
</event>
<event>
 6    1  0.2238133E-007  0.3444739E+04  0.7818608E-02  0.8127012E-01
          2   -1    0    0  501    0  0.00000000000E+00  0.00000000000E+00  0.15238411480E+04  0.15238411480E+04  0.00000000000E+00 0. -1.
         -2   -1    0    0    0  501 -0.00000000000E+00 -0.00000000000E+00 -0.19467629333E+04  0.19467629333E+04  0.00000000000E+00 0.  1.
         23    2    1    2    0    0  0.93781507610E+02  0.16725964969E+04 -0.60951508669E+03  0.17850207779E+04  0.91741615866E+02 0.  0.
         13    1    3    3    0    0  0.68641671235E+02  0.50183279415E+03 -0.17157783861E+03  0.53477732471E+03  0.00000000000E+00 0.  1.
        -13    1    3    3    0    0  0.25139836376E+02  0.11707637027E+04 -0.43793724807E+03  0.12502434532E+04  0.00000000000E+00 0. -1.
         22    1    1    2    0    0 -0.93781507610E+02 -0.16725964969E+04  0.18659330145E+03  0.16855833034E+04  0.00000000000E+00 0.  1.
<mgrwt>
<rscale>  0 0.34447394E+04</rscale>
<asrwt>0</asrwt>
<pdfrwt beam="1">  1        2 0.23443710E+00 0.34447394E+04</pdfrwt>
<pdfrwt beam="2">  1       -2 0.29950199E+00 0.34447394E+04</pdfrwt>
<totfact> 0.32510132E-01</totfact>
</mgrwt>
</event>
<event>
 6    1  0.2238133E-007  0.4448368E+04  0.7818608E-02  0.7919739E-01
          2   -1    0    0  501    0  0.00000000000E+00  0.00000000000E+00  0.18395702301E+04  0.18395702301E+04  0.00000000000E+00 0. -1.
         -2   -1    0    0    0  501 -0.00000000000E+00 -0.00000000000E+00 -0.26892114923E+04  0.26892114923E+04  0.00000000000E+00 0.  1.
         23    2    1    2    0    0  0.72455431657E+03 -0.13809660108E+04  0.11882045923E+04  0.19626831648E+04  0.90823848837E+02 0.  0.
         13    1    3    3    0    0  0.27673414919E+03 -0.43851148667E+03  0.40834549963E+03  0.66001527281E+03  0.00000000000E+00 0.  1.
        -13    1    3    3    0    0  0.44782016738E+03 -0.94245452416E+03  0.77985909262E+03  0.13026678920E+04  0.00000000000E+00 0. -1.
         22    1    1    2    0    0 -0.72455431657E+03  0.13809660108E+04 -0.20378458545E+04  0.25660985576E+04  0.00000000000E+00 0.  1.
<mgrwt>
<rscale>  0 0.44483675E+04</rscale>
<asrwt>0</asrwt>
<pdfrwt beam="1">  1        2 0.28301081E+00 0.44483675E+04</pdfrwt>
<pdfrwt beam="2">  1       -2 0.41372484E+00 0.44483675E+04</pdfrwt>
<totfact> 0.37654491E-02</totfact>
</mgrwt>
</event>
<event>
 6    1  0.2238133E-007  0.5255133E+04  0.7818608E-02  0.7790312E-01
          2   -1    0    0  501    0  0.00000000000E+00  0.00000000000E+00  0.30043758471E+04  0.30043758471E+04  0.00000000000E+00 0. -1.
         -2   -1    0    0    0  501 -0.00000000000E+00 -0.00000000000E+00 -0.22980163740E+04  0.22980163740E+04  0.00000000000E+00 0.  1.
         23    2    1    2    0    0 -0.14961019142E+04 -0.84999835137E+03  0.23558471663E+04  0.29187756863E+04  0.91746937623E+02 0.  0.
         11    1    3    3    0    0 -0.83160456055E+03 -0.47980480667E+03  0.13904871822E+04  0.16897435904E+04  0.00000000000E+00 0.  1.
        -11    1    3    3    0    0 -0.66449735363E+03 -0.37019354470E+03  0.96535998419E+03  0.12290320958E+04  0.00000000000E+00 0. -1.
         22    1    1    2    0    0  0.14961019142E+04  0.84999835137E+03 -0.16494876932E+04  0.23836165348E+04  0.00000000000E+00 0.  1.
<mgrwt>
<rscale>  0 0.52551327E+04</rscale>
<asrwt>0</asrwt>
<pdfrwt beam="1">  1        2 0.46221167E+00 0.52551327E+04</pdfrwt>
<pdfrwt beam="2">  1       -2 0.35354098E+00 0.52551327E+04</pdfrwt>
<totfact> 0.18235168E-02</totfact>
</mgrwt>
</event>
<event>
 6    1  0.2238133E-007  0.2040557E+04  0.7818608E-02  0.8587890E-01
         -2   -1    0    0    0  501 -0.00000000000E+00  0.00000000000E+00  0.35388220881E+03  0.35388220881E+03  0.00000000000E+00 0.  1.
          2   -1    0    0  501    0  0.00000000000E+00 -0.00000000000E+00 -0.29415679234E+04  0.29415679234E+04  0.00000000000E+00 0. -1.
         23    2    1    2    0    0 -0.26387179334E+03  0.26514902817E+03 -0.28258615669E+04  0.28519864165E+04  0.91654755901E+02 0.  0.
         13    1    3    3    0    0 -0.21580745930E+03  0.24281925497E+03 -0.21959407654E+04  0.22198400607E+04  0.00000000000E+00 0.  1.
        -13    1    3    3    0    0 -0.48064334037E+02  0.22329773197E+02 -0.62992080154E+03  0.63214635583E+03  0.00000000000E+00 0. -1.
         22    1    1    2    0    0  0.26387179334E+03 -0.26514902817E+03  0.23817585235E+03  0.44346371565E+03  0.00000000000E+00 0.  1.
<mgrwt>
<rscale>  0 0.20405573E+04</rscale>
<asrwt>0</asrwt>
<pdfrwt beam="1">  1        2 0.45254892E+00 0.20405573E+04</pdfrwt>
<pdfrwt beam="2">  1       -2 0.54443416E-01 0.20405573E+04</pdfrwt>
<totfact> 0.55786830E+00</totfact>
</mgrwt>
</event>
<event>
 6    1  0.2238133E-007  0.2500101E+04  0.7818608E-02  0.8402950E-01
          2   -1    0    0  501    0  0.00000000000E+00  0.00000000000E+00  0.24243341817E+04  0.24243341817E+04  0.00000000000E+00 0. -1.
         -2   -1    0    0    0  501 -0.00000000000E+00 -0.00000000000E+00 -0.64455892056E+03  0.64455892056E+03  0.00000000000E+00 0.  1.
         23    2    1    2    0    0 -0.75843735999E+03 -0.47551427835E+03 -0.17687283242E+03  0.91719311854E+03  0.92834044941E+02 0.  0.
         13    1    3    3    0    0 -0.43602300010E+03 -0.24565125093E+03 -0.58233858885E+02  0.50383705304E+03  0.00000000000E+00 0.  1.
        -13    1    3    3    0    0 -0.32241435989E+03 -0.22986302742E+03 -0.11863897354E+03  0.41335606550E+03  0.00000000000E+00 0. -1.
         22    1    1    2    0    0  0.75843735999E+03  0.47551427835E+03  0.19566480936E+04  0.21516999837E+04  0.00000000000E+00 0. -1.
<mgrwt>
<rscale>  0 0.25001010E+04</rscale>
<asrwt>0</asrwt>
<pdfrwt beam="1">  1        2 0.37297448E+00 0.25001010E+04</pdfrwt>
<pdfrwt beam="2">  1       -2 0.99162912E-01 0.25001010E+04</pdfrwt>
<totfact> 0.28924868E+00</totfact>
</mgrwt>
</event>
<event>
 6    1  0.2238133E-007  0.2767231E+04  0.7818608E-02  0.8313515E-01
          2   -1    0    0  501    0  0.00000000000E+00  0.00000000000E+00  0.38258262721E+04  0.38258262721E+04  0.00000000000E+00 0. -1.
         -2   -1    0    0    0  501 -0.00000000000E+00 -0.00000000000E+00 -0.50038649413E+03  0.50038649413E+03  0.00000000000E+00 0.  1.
         23    2    1    2    0    0  0.13247703165E+04 -0.14843805032E+03  0.22351243586E+04  0.26040519259E+04  0.90858615911E+02 0.  0.
         13    1    3    3    0    0  0.10215646913E+04 -0.15198410346E+03  0.17422480045E+04  0.20253695208E+04  0.00000000000E+00 0. -1.
        -13    1    3    3    0    0  0.30320562516E+03  0.35460531386E+01  0.49287635403E+03  0.57868240511E+03  0.00000000000E+00 0.  1.
         22    1    1    2    0    0 -0.13247703165E+04  0.14843805032E+03  0.10903154193E+04  0.17221608403E+04  0.00000000000E+00 0.  1.
<mgrwt>
<rscale>  0 0.27672310E+04</rscale>
<asrwt>0</asrwt>
<pdfrwt beam="1">  1        2 0.58858864E+00 0.27672310E+04</pdfrwt>
<pdfrwt beam="2">  1       -2 0.76982540E-01 0.27672310E+04</pdfrwt>
<totfact> 0.61727785E-01</totfact>
</mgrwt>
</event>
<event>
 6    1  0.2238133E-007  0.2451964E+04  0.7818608E-02  0.8420301E-01
          2   -1    0    0  501    0  0.00000000000E+00  0.00000000000E+00  0.14676836333E+04  0.14676836333E+04  0.00000000000E+00 0. -1.
         -2   -1    0    0    0  501 -0.00000000000E+00 -0.00000000000E+00 -0.10240843361E+04  0.10240843361E+04  0.00000000000E+00 0.  1.
         23    2    1    2    0    0  0.47876970030E+03 -0.84876845024E+02 -0.91999091880E+03  0.10440791969E+04  0.85402424031E+02 0.  0.
         13    1    3    3    0    0  0.41465456905E+03 -0.72586160167E+02 -0.72381608096E+03  0.83732722476E+03  0.00000000000E+00 0. -1.
        -13    1    3    3    0    0  0.64115131257E+02 -0.12290684857E+02 -0.19617483784E+03  0.20675197216E+03  0.00000000000E+00 0.  1.
         22    1    1    2    0    0 -0.47876970030E+03  0.84876845024E+02  0.13635902160E+04  0.14476887725E+04  0.00000000000E+00 0. -1.
<mgrwt>
<rscale>  0 0.24519640E+04</rscale>
<asrwt>0</asrwt>
<pdfrwt beam="1">  1        2 0.22579748E+00 0.24519640E+04</pdfrwt>
<pdfrwt beam="2">  1       -2 0.15755144E+00 0.24519640E+04</pdfrwt>
<totfact> 0.31146168E+00</totfact>
</mgrwt>
</event>
<event>
 6    1  0.2238133E-007  0.1863798E+04  0.7818608E-02  0.8673089E-01
         -2   -1    0    0    0  501 -0.00000000000E+00  0.00000000000E+00  0.32454631893E+03  0.32454631893E+03  0.00000000000E+00 0.  1.
          2   -1    0    0  501    0  0.00000000000E+00 -0.00000000000E+00 -0.26758456787E+04  0.26758456787E+04  0.00000000000E+00 0. -1.
         23    2    1    2    0    0 -0.53603449759E+03 -0.75962417501E+03 -0.11610196296E+04  0.14900517360E+04  0.89026545328E+02 0.  0.
         13    1    3    3    0    0 -0.27573509852E+03 -0.42691187230E+03 -0.69604104050E+03  0.86183334894E+03  0.00000000000E+00 0.  1.
        -13    1    3    3    0    0 -0.26029939907E+03 -0.33271230271E+03 -0.46497858908E+03  0.62821838705E+03  0.00000000000E+00 0. -1.
         22    1    1    2    0    0  0.53603449759E+03  0.75962417501E+03 -0.11902797302E+04  0.15103402617E+04  0.00000000000E+00 0. -1.
<mgrwt>
<rscale>  0 0.18637981E+04</rscale>
<asrwt>0</asrwt>
<pdfrwt beam="1">  1        2 0.41166859E+00 0.18637981E+04</pdfrwt>
<pdfrwt beam="2">  1       -2 0.49930200E-01 0.18637981E+04</pdfrwt>
<totfact> 0.98001839E+00</totfact>
</mgrwt>
</event>
<event>
 6    1  0.2238133E-007  0.1629066E+04  0.7818608E-02  0.8802888E-01
          2   -1    0    0  501    0  0.00000000000E+00  0.00000000000E+00  0.25724696166E+04  0.25724696166E+04  0.00000000000E+00 0. -1.
         -2   -1    0    0    0  501 -0.00000000000E+00 -0.00000000000E+00 -0.25790951665E+03  0.25790951665E+03  0.00000000000E+00 0.  1.
         23    2    1    2    0    0  0.40676018513E+03  0.87570881591E+02  0.23724612000E+04  0.24102898035E+04  0.88330537128E+02 0.  0.
         11    1    3    3    0    0  0.26484072948E+03  0.46644638587E+02  0.17502113299E+04  0.17707501330E+04  0.00000000000E+00 0. -1.
        -11    1    3    3    0    0  0.14191945565E+03  0.40926243004E+02  0.62224987016E+03  0.63953967052E+03  0.00000000000E+00 0.  1.
         22    1    1    2    0    0 -0.40676018513E+03 -0.87570881591E+02 -0.57901100139E+02  0.42008932967E+03  0.00000000000E+00 0.  1.
<mgrwt>
<rscale>  0 0.16290665E+04</rscale>
<asrwt>0</asrwt>
<pdfrwt beam="1">  1        2 0.39576454E+00 0.16290665E+04</pdfrwt>
<pdfrwt beam="2">  1       -2 0.39678389E-01 0.16290665E+04</pdfrwt>
<totfact> 0.18201999E+01</totfact>
</mgrwt>
</event>
<event>
 6    1  0.2440452E-007  0.2295238E+04  0.7818608E-02  0.8479801E-01
          2   -1    0    0  501    0  0.00000000000E+00  0.00000000000E+00  0.17617882480E+04  0.17617882480E+04  0.00000000000E+00 0. -1.
         -2   -1    0    0    0  501 -0.00000000000E+00 -0.00000000000E+00 -0.74755259568E+03  0.74755259568E+03  0.00000000000E+00 0.  1.
         23    2    1    2    0    0  0.65364183403E+03  0.20997596721E+03  0.15107554859E+04  0.16620690460E+04  0.93561860210E+02 0.  0.
         11    1    3    3    0    0  0.21424828077E+03  0.28077276562E+02  0.51926918516E+03  0.56243323687E+03  0.00000000000E+00 0. -1.
        -11    1    3    3    0    0  0.43939355325E+03  0.18189869065E+03  0.99148630071E+03  0.10996358092E+04  0.00000000000E+00 0.  1.
         22    1    1    2    0    0 -0.65364183403E+03 -0.20997596721E+03 -0.49651983354E+03  0.84727179765E+03  0.00000000000E+00 0.  1.
<mgrwt>
<rscale>  0 0.22952380E+04</rscale>
<asrwt>0</asrwt>
<pdfrwt beam="1">  1        2 0.27104435E+00 0.22952380E+04</pdfrwt>
<pdfrwt beam="2">  1       -2 0.11500809E+00 0.22952380E+04</pdfrwt>
<totfact> 0.48452381E+00</totfact>
</mgrwt>
</event>
<event>
 6    1  0.2238133E-007  0.2089857E+04  0.7818608E-02  0.8565725E-01
         -2   -1    0    0    0  501 -0.00000000000E+00  0.00000000000E+00  0.28664809151E+04  0.28664809151E+04  0.00000000000E+00 0.  1.
          2   -1    0    0  501    0  0.00000000000E+00 -0.00000000000E+00 -0.38091143464E+03  0.38091143464E+03  0.00000000000E+00 0. -1.
         23    2    1    2    0    0  0.51580352449E+03 -0.19248529665E+03  0.26215583448E+04  0.26802972637E+04  0.91221714742E+02 0.  0.
         11    1    3    3    0    0  0.40591499500E+03 -0.14948981745E+03  0.18590087300E+04  0.19086716970E+04  0.00000000000E+00 0. -1.
        -11    1    3    3    0    0  0.10988852949E+03 -0.42995479200E+02  0.76254961480E+03  0.77162556670E+03  0.00000000000E+00 0.  1.
         22    1    1    2    0    0 -0.51580352449E+03  0.19248529665E+03 -0.13598886442E+03  0.56709508598E+03  0.00000000000E+00 0. -1.
<mgrwt>
<rscale>  0 0.20898568E+04</rscale>
<asrwt>0</asrwt>
<pdfrwt beam="1">  1        2 0.58601761E-01 0.20898568E+04</pdfrwt>
<pdfrwt beam="2">  1       -2 0.44099705E+00 0.20898568E+04</pdfrwt>
<totfact> 0.30897244E-01</totfact>
</mgrwt>
</event>
<event>
 6    1  0.2238133E-007  0.2459222E+04  0.7818608E-02  0.8417659E-01
         -2   -1    0    0    0  501 -0.00000000000E+00  0.00000000000E+00  0.73801149499E+03  0.73801149499E+03  0.00000000000E+00 0.  1.
          2   -1    0    0  501    0  0.00000000000E+00 -0.00000000000E+00 -0.20486714098E+04  0.20486714098E+04  0.00000000000E+00 0. -1.
         23    2    1    2    0    0  0.85401174584E+03 -0.61501811540E+03 -0.13732640848E+04  0.17324046558E+04  0.88251347367E+02 0.  0.
         11    1    3    3    0    0  0.50543690705E+03 -0.31043510023E+03 -0.78007538181E+03  0.97997654042E+03  0.00000000000E+00 0. -1.
        -11    1    3    3    0    0  0.34857483880E+03 -0.30458301517E+03 -0.59318870304E+03  0.75242811536E+03  0.00000000000E+00 0.  1.
         22    1    1    2    0    0 -0.85401174584E+03  0.61501811540E+03  0.62604170013E+02  0.10542782490E+04  0.00000000000E+00 0.  1.
<mgrwt>
<rscale>  0 0.24592219E+04</rscale>
<asrwt>0</asrwt>
<pdfrwt beam="1">  1        2 0.31518021E+00 0.24592219E+04</pdfrwt>
<pdfrwt beam="2">  1       -2 0.11354023E+00 0.24592219E+04</pdfrwt>
<totfact> 0.34167739E+00</totfact>
</mgrwt>
</event>
<event>
 6    1  0.2238133E-007  0.1286698E+04  0.7818608E-02  0.9040181E-01
          1   -1    0    0  501    0  0.00000000000E+00  0.00000000000E+00  0.14091832893E+04  0.14091832893E+04  0.00000000000E+00 0. -1.
         -1   -1    0    0    0  501 -0.00000000000E+00 -0.00000000000E+00 -0.29371471745E+03  0.29371471745E+03  0.00000000000E+00 0.  1.
         23    2    1    2    0    0 -0.23418047471E+03 -0.22375901970E+03 -0.16997304839E+03  0.37727786784E+03  0.92407568679E+02 0.  0.
         11    1    3    3    0    0 -0.10828394730E+03 -0.13175149478E+03 -0.42206320847E+02  0.17568506805E+03  0.00000000000E+00 0. -1.
        -11    1    3    3    0    0 -0.12589652741E+03 -0.92007524921E+02 -0.12776672754E+03  0.20159279978E+03  0.00000000000E+00 0.  1.
         22    1    1    2    0    0  0.23418047471E+03  0.22375901970E+03  0.12854416202E+04  0.13256201389E+04  0.00000000000E+00 0. -1.
<mgrwt>
<rscale>  0 0.12866979E+04</rscale>
<asrwt>0</asrwt>
<pdfrwt beam="1">  1        1 0.21679742E+00 0.12866979E+04</pdfrwt>
<pdfrwt beam="2">  1       -1 0.45186881E-01 0.12866979E+04</pdfrwt>
<totfact> 0.36169650E+01</totfact>
</mgrwt>
</event>
<event>
 6    1  0.2238133E-007  0.2950810E+04  0.7818608E-02  0.8257918E-01
          2   -1    0    0  501    0  0.00000000000E+00  0.00000000000E+00  0.12225479819E+04  0.12225479819E+04  0.00000000000E+00 0. -1.
         -2   -1    0    0    0  501 -0.00000000000E+00 -0.00000000000E+00 -0.17805604184E+04  0.17805604184E+04  0.00000000000E+00 0.  1.
         23    2    1    2    0    0 -0.11714900384E+04 -0.60479713626E+03 -0.95025167633E+03  0.16276011821E+04  0.89100355990E+02 0.  0.
         13    1    3    3    0    0 -0.69404913967E+03 -0.31418882765E+03 -0.57270694653E+03  0.95310653880E+03  0.00000000000E+00 0.  1.
        -13    1    3    3    0    0 -0.47744089869E+03 -0.29060830861E+03 -0.37754472980E+03  0.67449464326E+03  0.00000000000E+00 0. -1.
         22    1    1    2    0    0  0.11714900384E+04  0.60479713626E+03  0.39223923982E+03  0.13755072182E+04  0.00000000000E+00 0. -1.
<mgrwt>
<rscale>  0 0.29508104E+04</rscale>
<asrwt>0</asrwt>
<pdfrwt beam="1">  1        2 0.18808431E+00 0.29508104E+04</pdfrwt>
<pdfrwt beam="2">  1       -2 0.27393237E+00 0.29508104E+04</pdfrwt>
<totfact> 0.72377067E-01</totfact>
</mgrwt>
</event>
<event>
 6    1  0.2238133E-007  0.2082615E+04  0.7818608E-02  0.8568941E-01
         -2   -1    0    0    0  501 -0.00000000000E+00  0.00000000000E+00  0.82212181877E+03  0.82212181877E+03  0.00000000000E+00 0.  1.
          2   -1    0    0  501    0  0.00000000000E+00 -0.00000000000E+00 -0.13189300836E+04  0.13189300836E+04  0.00000000000E+00 0. -1.
         23    2    1    2    0    0 -0.95798478623E+03 -0.42675969611E+02 -0.66058272777E+03  0.11682322049E+04  0.94025822194E+02 0.  0.
         13    1    3    3    0    0 -0.45618194297E+03 -0.47345500936E+02 -0.26893742251E+03  0.53166803438E+03  0.00000000000E+00 0.  1.
        -13    1    3    3    0    0 -0.50180284326E+03  0.46695313252E+01 -0.39164530525E+03  0.63656417049E+03  0.00000000000E+00 0. -1.
         22    1    1    2    0    0  0.95798478623E+03  0.42675969611E+02  0.16377446298E+03  0.97281969745E+03  0.00000000000E+00 0.  1.
<mgrwt>
<rscale>  0 0.20826149E+04</rscale>
<asrwt>0</asrwt>
<pdfrwt beam="1">  1        2 0.20291232E+00 0.20826149E+04</pdfrwt>
<pdfrwt beam="2">  1       -2 0.12648028E+00 0.20826149E+04</pdfrwt>
<totfact> 0.69246730E+00</totfact>
</mgrwt>
</event>
<event>
 6    1  0.2238133E-007  0.1785442E+04  0.7818608E-02  0.8714080E-01
         -2   -1    0    0    0  501 -0.00000000000E+00  0.00000000000E+00  0.94382645213E+03  0.94382645213E+03  0.00000000000E+00 0.  1.
          2   -1    0    0  501    0  0.00000000000E+00 -0.00000000000E+00 -0.84438300156E+03  0.84438300156E+03  0.00000000000E+00 0. -1.
         23    2    1    2    0    0  0.22141089336E+03 -0.68408609795E+03  0.57549808739E+03  0.92587275011E+03  0.95109030532E+02 0.  0.
         11    1    3    3    0    0  0.10072100928E+03 -0.37238985995E+03  0.25247305956E+03  0.46104400583E+03  0.00000000000E+00 0.  1.
        -11    1    3    3    0    0  0.12068988407E+03 -0.31169623800E+03  0.32302502784E+03  0.46482874428E+03  0.00000000000E+00 0. -1.
         22    1    1    2    0    0 -0.22141089336E+03  0.68408609795E+03 -0.47605463683E+03  0.86233670359E+03  0.00000000000E+00 0. -1.
<mgrwt>
<rscale>  0 0.17854423E+04</rscale>
<asrwt>0</asrwt>
<pdfrwt beam="1">  1        2 0.12990508E+00 0.17854423E+04</pdfrwt>
<pdfrwt beam="2">  1       -2 0.14520407E+00 0.17854423E+04</pdfrwt>
<totfact> 0.98797893E+00</totfact>
</mgrwt>
</event>
<event>
 6    1  0.2238133E-007  0.2835073E+04  0.7818608E-02  0.8292462E-01
         -2   -1    0    0    0  501 -0.00000000000E+00  0.00000000000E+00  0.11257007075E+04  0.11257007075E+04  0.00000000000E+00 0.  1.
          2   -1    0    0  501    0  0.00000000000E+00 -0.00000000000E+00 -0.17850298473E+04  0.17850298473E+04  0.00000000000E+00 0. -1.
         23    2    1    2    0    0 -0.74009046342E+02 -0.59236137843E+03  0.98924934792E+03  0.11573964818E+04  0.67697873902E+02 0.  0.
         11    1    3    3    0    0 -0.41569377558E+02 -0.45474698203E+03  0.80017610118E+03  0.92130593383E+03  0.00000000000E+00 0. -1.
        -11    1    3    3    0    0 -0.32439668783E+02 -0.13761439641E+03  0.18907324674E+03  0.23609054797E+03  0.00000000000E+00 0.  1.
         22    1    1    2    0    0  0.74009046342E+02  0.59236137843E+03 -0.16485784877E+04  0.17533340731E+04  0.00000000000E+00 0. -1.
<mgrwt>
<rscale>  0 0.28350727E+04</rscale>
<asrwt>0</asrwt>
<pdfrwt beam="1">  1        2 0.27461997E+00 0.28350727E+04</pdfrwt>
<pdfrwt beam="2">  1       -2 0.17318473E+00 0.28350727E+04</pdfrwt>
<totfact> 0.15444592E+00</totfact>
</mgrwt>
</event>
<event>
 6    1  0.2238133E-007  0.9358639E+03  0.7818608E-02  0.9381828E-01
          2   -1    0    0  501    0  0.00000000000E+00  0.00000000000E+00  0.23208437792E+04  0.23208437792E+04  0.00000000000E+00 0. -1.
         -2   -1    0    0    0  501 -0.00000000000E+00 -0.00000000000E+00 -0.94345124638E+02  0.94345124638E+02  0.00000000000E+00 0.  1.
         23    2    1    2    0    0  0.25558618218E+03 -0.34408828673E+03  0.66881611805E+03  0.79960977233E+03  0.91322191568E+02 0.  0.
         11    1    3    3    0    0  0.19717712384E+03 -0.24366685701E+03  0.41151290230E+03  0.51729607009E+03  0.00000000000E+00 0.  1.
        -11    1    3    3    0    0  0.58409058337E+02 -0.10042142971E+03  0.25730321574E+03  0.28231370224E+03  0.00000000000E+00 0. -1.
         22    1    1    2    0    0 -0.25558618218E+03  0.34408828673E+03  0.15576825365E+04  0.16155791315E+04  0.00000000000E+00 0. -1.
<mgrwt>
<rscale>  0 0.93586387E+03</rscale>
<asrwt>0</asrwt>
<pdfrwt beam="1">  1        2 0.35705285E+00 0.93586387E+03</pdfrwt>
<pdfrwt beam="2">  1       -2 0.14514636E-01 0.93586387E+03</pdfrwt>
<totfact> 0.16589760E+02</totfact>
</mgrwt>
</event>
<event>
 6    1  0.2238133E-007  0.3287478E+04  0.7818608E-02  0.8166089E-01
          2   -1    0    0  501    0  0.00000000000E+00  0.00000000000E+00  0.19752013266E+04  0.19752013266E+04  0.00000000000E+00 0. -1.
         -2   -1    0    0    0  501 -0.00000000000E+00 -0.00000000000E+00 -0.13679003939E+04  0.13679003939E+04  0.00000000000E+00 0.  1.
         23    2    1    2    0    0  0.69515608439E+03  0.46437081816E+03 -0.11338600554E+04  0.14116453205E+04  0.90673300330E+02 0.  0.
         13    1    3    3    0    0  0.11131686742E+03  0.11242571147E+03 -0.24090412786E+03  0.28821135368E+03  0.00000000000E+00 0.  1.
        -13    1    3    3    0    0  0.58383921697E+03  0.35194510669E+03 -0.89295592750E+03  0.11234339668E+04  0.00000000000E+00 0. -1.
         22    1    1    2    0    0 -0.69515608439E+03 -0.46437081816E+03  0.17411609881E+04  0.19314564000E+04  0.00000000000E+00 0. -1.
<mgrwt>
<rscale>  0 0.32874785E+04</rscale>
<asrwt>0</asrwt>
<pdfrwt beam="1">  1        2 0.30387713E+00 0.32874785E+04</pdfrwt>
<pdfrwt beam="2">  1       -2 0.21044621E+00 0.32874785E+04</pdfrwt>
<totfact> 0.65598172E-01</totfact>
</mgrwt>
</event>
<event>
 6    1  0.2238133E-007  0.2752815E+04  0.7818608E-02  0.8318069E-01
          2   -1    0    0  501    0  0.00000000000E+00  0.00000000000E+00  0.15736679146E+04  0.15736679146E+04  0.00000000000E+00 0. -1.
         -2   -1    0    0    0  501 -0.00000000000E+00 -0.00000000000E+00 -0.12038739684E+04  0.12038739684E+04  0.00000000000E+00 0.  1.
         23    2    1    2    0    0 -0.12156544076E+04 -0.42830432887E+03 -0.29804828994E+03  0.13258967854E+04  0.88934051492E+02 0.  0.
         11    1    3    3    0    0 -0.58405327681E+03 -0.22455645118E+03 -0.18649585669E+03  0.65293532182E+03  0.00000000000E+00 0. -1.
        -11    1    3    3    0    0 -0.63160113082E+03 -0.20374787769E+03 -0.11155243325E+03  0.67296146360E+03  0.00000000000E+00 0.  1.
         22    1    1    2    0    0  0.12156544076E+04  0.42830432887E+03  0.66784223615E+03  0.14516450976E+04  0.00000000000E+00 0.  1.
<mgrwt>
<rscale>  0 0.27528152E+04</rscale>
<asrwt>0</asrwt>
<pdfrwt beam="1">  1        2 0.24210276E+00 0.27528152E+04</pdfrwt>
<pdfrwt beam="2">  1       -2 0.18521138E+00 0.27528152E+04</pdfrwt>
<totfact> 0.16832722E+00</totfact>
</mgrwt>
</event>
<event>
 6    1  0.2238133E-007  0.2076336E+04  0.7818608E-02  0.8571740E-01
          2   -1    0    0  501    0  0.00000000000E+00  0.00000000000E+00  0.49192571472E+03  0.49192571472E+03  0.00000000000E+00 0. -1.
         -2   -1    0    0    0  501 -0.00000000000E+00 -0.00000000000E+00 -0.21909664584E+04  0.21909664584E+04  0.00000000000E+00 0.  1.
         23    2    1    2    0    0  0.10228071999E+04  0.11945778004E+03 -0.70146133673E+03  0.12491664662E+04  0.89241940683E+02 0.  0.
         11    1    3    3    0    0  0.25829755361E+03  0.60539648586E+02 -0.21067548122E+03  0.33877253968E+03  0.00000000000E+00 0.  1.
        -11    1    3    3    0    0  0.76450964631E+03  0.58918131453E+02 -0.49078585551E+03  0.91039392654E+03  0.00000000000E+00 0. -1.
         22    1    1    2    0    0 -0.10228071999E+04 -0.11945778004E+03 -0.99757940692E+03  0.14337257069E+04  0.00000000000E+00 0.  1.
<mgrwt>
<rscale>  0 0.20763359E+04</rscale>
<asrwt>0</asrwt>
<pdfrwt beam="1">  1        2 0.75680878E-01 0.20763359E+04</pdfrwt>
<pdfrwt beam="2">  1       -2 0.33707177E+00 0.20763359E+04</pdfrwt>
<totfact> 0.10886612E+00</totfact>
</mgrwt>
</event>
<event>
 6    1  0.2734955E-007  0.4254478E+04  0.7818608E-02  0.7955090E-01
         -2   -1    0    0    0  501 -0.00000000000E+00  0.00000000000E+00  0.16272734496E+04  0.16272734496E+04  0.00000000000E+00 0.  1.
          2   -1    0    0  501    0  0.00000000000E+00 -0.00000000000E+00 -0.27808146844E+04  0.27808146844E+04  0.00000000000E+00 0. -1.
         23    2    1    2    0    0  0.50359500229E+03  0.20493076898E+04 -0.84668163896E+03  0.22756170918E+04  0.91068197488E+02 0.  0.
         11    1    3    3    0    0  0.38857498392E+03  0.16321804951E+04 -0.63528194526E+03  0.17940420387E+04  0.00000000000E+00 0.  1.
        -11    1    3    3    0    0  0.11502001837E+03  0.41712719474E+03 -0.21139969369E+03  0.48157505304E+03  0.00000000000E+00 0. -1.
         22    1    1    2    0    0 -0.50359500229E+03 -0.20493076898E+04 -0.30685959585E+03  0.21324710421E+04  0.00000000000E+00 0. -1.
<mgrwt>
<rscale>  0 0.42544781E+04</rscale>
<asrwt>0</asrwt>
<pdfrwt beam="1">  1        2 0.42781764E+00 0.42544781E+04</pdfrwt>
<pdfrwt beam="2">  1       -2 0.25034976E+00 0.42544781E+04</pdfrwt>
<totfact> 0.11734728E-01</totfact>
</mgrwt>
</event>
<event>
 6    1  0.2238133E-007  0.2289525E+04  0.7818608E-02  0.8482063E-01
         -2   -1    0    0    0  501 -0.00000000000E+00  0.00000000000E+00  0.12765512229E+04  0.12765512229E+04  0.00000000000E+00 0.  1.
          2   -1    0    0  501    0  0.00000000000E+00 -0.00000000000E+00 -0.10265792987E+04  0.10265792987E+04  0.00000000000E+00 0. -1.
         23    2    1    2    0    0 -0.71751509119E+03 -0.65696298287E+02  0.10176851423E+04  0.12502641981E+04  0.91288588692E+02 0.  0.
         13    1    3    3    0    0 -0.24618081579E+03  0.17115860705E+02  0.37691767573E+03  0.45051623836E+03  0.00000000000E+00 0. -1.
        -13    1    3    3    0    0 -0.47133427540E+03 -0.82812158992E+02  0.64076746660E+03  0.79974795973E+03  0.00000000000E+00 0.  1.
         22    1    1    2    0    0  0.71751509119E+03  0.65696298287E+02 -0.76771321815E+03  0.10528663234E+04  0.00000000000E+00 0. -1.
<mgrwt>
<rscale>  0 0.22895249E+04</rscale>
<asrwt>0</asrwt>
<pdfrwt beam="1">  1        2 0.15793528E+00 0.22895249E+04</pdfrwt>
<pdfrwt beam="2">  1       -2 0.19639249E+00 0.22895249E+04</pdfrwt>
<totfact> 0.30872034E+00</totfact>
</mgrwt>
</event>
<event>
 6    1  0.2238133E-007  0.5292879E+03  0.7818608E-02  0.1006405E+00
          2   -1    0    0  501    0  0.00000000000E+00  0.00000000000E+00  0.23368145641E+03  0.23368145641E+03  0.00000000000E+00 0. -1.
         -2   -1    0    0    0  501 -0.00000000000E+00 -0.00000000000E+00 -0.29970895825E+03  0.29970895825E+03  0.00000000000E+00 0.  1.
         23    2    1    2    0    0 -0.13786009819E+03 -0.21634297859E+03 -0.20146743134E+02  0.27278585777E+03  0.90534755110E+02 0.  0.
         13    1    3    3    0    0 -0.14180742832E+03 -0.20095147296E+03 -0.38020625732E+02  0.24887026579E+03  0.00000000000E+00 0.  1.
        -13    1    3    3    0    0  0.39473301325E+01 -0.15391505626E+02  0.17873882598E+02  0.23915591980E+02  0.00000000000E+00 0. -1.
         22    1    1    2    0    0  0.13786009819E+03  0.21634297859E+03 -0.45880758704E+02  0.26060455690E+03  0.00000000000E+00 0. -1.
<mgrwt>
<rscale>  0 0.52928792E+03</rscale>
<asrwt>0</asrwt>
<pdfrwt beam="1">  1        2 0.35950993E-01 0.52928792E+03</pdfrwt>
<pdfrwt beam="2">  1       -2 0.46109071E-01 0.52928792E+03</pdfrwt>
<totfact> 0.65135738E+02</totfact>
</mgrwt>
</event>
<event>
 6    1  0.2238133E-007  0.2567906E+04  0.7818608E-02  0.8379185E-01
         -2   -1    0    0    0  501 -0.00000000000E+00  0.00000000000E+00  0.74733873776E+03  0.74733873776E+03  0.00000000000E+00 0.  1.
          2   -1    0    0  501    0  0.00000000000E+00 -0.00000000000E+00 -0.22058740273E+04  0.22058740273E+04  0.00000000000E+00 0. -1.
         23    2    1    2    0    0 -0.57832695418E+03 -0.26990388453E+03  0.54896022198E+03  0.84671130492E+03  0.90843468416E+02 0.  0.
         13    1    3    3    0    0 -0.43154660825E+03 -0.19782228496E+03  0.35360072832E+03  0.59194561117E+03  0.00000000000E+00 0. -1.
        -13    1    3    3    0    0 -0.14678034592E+03 -0.72081599564E+02  0.19535949367E+03  0.25476569375E+03  0.00000000000E+00 0.  1.
         22    1    1    2    0    0  0.57832695418E+03  0.26990388453E+03 -0.20074955115E+04  0.21065014602E+04  0.00000000000E+00 0. -1.
<mgrwt>
<rscale>  0 0.25679058E+04</rscale>
<asrwt>0</asrwt>
<pdfrwt beam="1">  1        2 0.33936523E+00 0.25679058E+04</pdfrwt>
<pdfrwt beam="2">  1       -2 0.11497519E+00 0.25679058E+04</pdfrwt>
<totfact> 0.26811200E+00</totfact>
</mgrwt>
</event>
<event>
 6    1  0.2238133E-007  0.1375318E+04  0.7818608E-02  0.8971881E-01
         -1   -1    0    0    0  501 -0.00000000000E+00  0.00000000000E+00  0.24230560904E+03  0.24230560904E+03  0.00000000000E+00 0.  1.
          1   -1    0    0  501    0  0.00000000000E+00 -0.00000000000E+00 -0.19515651661E+04  0.19515651661E+04  0.00000000000E+00 0. -1.
         23    2    1    2    0    0 -0.23225554555E+03  0.58667456632E+03 -0.43393342056E+03  0.77099114578E+03  0.89439634294E+02 0.  0.
         11    1    3    3    0    0 -0.50616053604E+02  0.71130717803E+02 -0.33956059236E+02  0.93672716713E+02  0.00000000000E+00 0. -1.
        -11    1    3    3    0    0 -0.18163949195E+03  0.51554384852E+03 -0.39997736133E+03  0.67731842907E+03  0.00000000000E+00 0.  1.
         22    1    1    2    0    0  0.23225554555E+03 -0.58667456632E+03 -0.12753261365E+04  0.14228796294E+04  0.00000000000E+00 0. -1.
<mgrwt>
<rscale>  0 0.13753184E+04</rscale>
<asrwt>0</asrwt>
<pdfrwt beam="1">  1        1 0.30024080E+00 0.13753184E+04</pdfrwt>
<pdfrwt beam="2">  1       -1 0.37277785E-01 0.13753184E+04</pdfrwt>
<totfact> 0.21765856E+01</totfact>
</mgrwt>
</event>
<event>
 6    1  0.2238133E-007  0.3646022E+04  0.7818608E-02  0.8080030E-01
         -2   -1    0    0    0  501 -0.00000000000E+00  0.00000000000E+00  0.14311872289E+04  0.14311872289E+04  0.00000000000E+00 0.  1.
          2   -1    0    0  501    0  0.00000000000E+00 -0.00000000000E+00 -0.23221063530E+04  0.23221063530E+04  0.00000000000E+00 0. -1.
         23    2    1    2    0    0 -0.13853260549E+04 -0.60888954725E+03 -0.14901666069E+04  0.21257272070E+04  0.90801337739E+02 0.  0.
         13    1    3    3    0    0 -0.58874139983E+03 -0.21192392804E+03 -0.59750720292E+03  0.86518382133E+03  0.00000000000E+00 0.  1.
        -13    1    3    3    0    0 -0.79658465505E+03 -0.39696561922E+03 -0.89265940400E+03  0.12605433856E+04  0.00000000000E+00 0. -1.
         22    1    1    2    0    0  0.13853260549E+04  0.60888954725E+03  0.59924748277E+03  0.16275663749E+04  0.00000000000E+00 0. -1.
<mgrwt>
<rscale>  0 0.36460219E+04</rscale>
<asrwt>0</asrwt>
<pdfrwt beam="1">  1        2 0.35724713E+00 0.36460219E+04</pdfrwt>
<pdfrwt beam="2">  1       -2 0.22018265E+00 0.36460219E+04</pdfrwt>
<totfact> 0.35251897E-01</totfact>
</mgrwt>
</event>
<event>
 6    1  0.2238133E-007  0.1014040E+04  0.7818608E-02  0.9293278E-01
          1   -1    0    0  501    0  0.00000000000E+00  0.00000000000E+00  0.32782826832E+04  0.32782826832E+04  0.00000000000E+00 0. -1.
         -1   -1    0    0    0  501 -0.00000000000E+00 -0.00000000000E+00 -0.78415875059E+02  0.78415875059E+02  0.00000000000E+00 0.  1.
         23    2    1    2    0    0 -0.37398827850E+03 -0.19608617012E+03  0.25171807621E+04  0.25539674351E+04  0.90739473596E+02 0.  0.
         13    1    3    3    0    0 -0.14896036842E+03 -0.37982988760E+02  0.10560062008E+04  0.10671368211E+04  0.00000000000E+00 0.  1.
        -13    1    3    3    0    0 -0.22502791008E+03 -0.15810318136E+03  0.14611745613E+04  0.14868306140E+04  0.00000000000E+00 0. -1.
         22    1    1    2    0    0  0.37398827850E+03  0.19608617012E+03  0.68268604598E+03  0.80273112307E+03  0.00000000000E+00 0.  1.
<mgrwt>
<rscale>  0 0.10140402E+04</rscale>
<asrwt>0</asrwt>
<pdfrwt beam="1">  1        1 0.50435108E+00 0.10140402E+04</pdfrwt>
<pdfrwt beam="2">  1       -1 0.12063983E-01 0.10140402E+04</pdfrwt>
<totfact> 0.17892945E+01</totfact>
</mgrwt>
</event>
<event>
 6    1  0.2238133E-007  0.3858904E+04  0.7818608E-02  0.8033631E-01
          2   -1    0    0  501    0  0.00000000000E+00  0.00000000000E+00  0.22069606870E+04  0.22069606870E+04  0.00000000000E+00 0. -1.
         -2   -1    0    0    0  501 -0.00000000000E+00 -0.00000000000E+00 -0.16868380056E+04  0.16868380056E+04  0.00000000000E+00 0.  1.
         23    2    1    2    0    0 -0.15872980966E+03  0.47029013074E+03  0.21404494557E+04  0.21991521763E+04  0.91533942744E+02 0.  0.
         13    1    3    3    0    0 -0.43232996694E+02  0.25411693981E+03  0.10026392756E+04  0.10352439461E+04  0.00000000000E+00 0.  1.
        -13    1    3    3    0    0 -0.11549681297E+03  0.21617319092E+03  0.11378101801E+04  0.11639082302E+04  0.00000000000E+00 0. -1.
         22    1    1    2    0    0  0.15872980966E+03 -0.47029013074E+03 -0.16203267743E+04  0.16946465163E+04  0.00000000000E+00 0.  1.
<mgrwt>
<rscale>  0 0.38589041E+04</rscale>
<asrwt>0</asrwt>
<pdfrwt beam="1">  1        2 0.33953241E+00 0.38589041E+04</pdfrwt>
<pdfrwt beam="2">  1       -2 0.25951354E+00 0.38589041E+04</pdfrwt>
<totfact> 0.22941302E-01</totfact>
</mgrwt>
</event>
<event>
 6    1  0.2238133E-007  0.1916436E+04  0.7818608E-02  0.8646718E-01
          1   -1    0    0  501    0  0.00000000000E+00  0.00000000000E+00  0.25052492510E+04  0.25052492510E+04  0.00000000000E+00 0. -1.
         -1   -1    0    0    0  501 -0.00000000000E+00 -0.00000000000E+00 -0.36650323683E+03  0.36650323683E+03  0.00000000000E+00 0.  1.
         23    2    1    2    0    0  0.16527618640E+03 -0.55696874034E+03 -0.65710019693E+02  0.59202513554E+03  0.92981497731E+02 0.  0.
         13    1    3    3    0    0  0.75013304689E+02 -0.15999409077E+03 -0.53910529538E+02  0.18474698957E+03  0.00000000000E+00 0. -1.
        -13    1    3    3    0    0  0.90262881710E+02 -0.39697464957E+03 -0.11799490155E+02  0.40727814597E+03  0.00000000000E+00 0.  1.
         22    1    1    2    0    0 -0.16527618640E+03  0.55696874034E+03  0.22044560338E+04  0.22797273522E+04  0.00000000000E+00 0. -1.
<mgrwt>
<rscale>  0 0.19164362E+04</rscale>
<asrwt>0</asrwt>
<pdfrwt beam="1">  1        1 0.38542295E+00 0.19164362E+04</pdfrwt>
<pdfrwt beam="2">  1       -1 0.56385115E-01 0.19164362E+04</pdfrwt>
<totfact> 0.39980837E+00</totfact>
</mgrwt>
</event>
<event>
 6    1  0.2238133E-007  0.3989764E+03  0.7818608E-02  0.1044135E+00
         -1   -1    0    0    0  501 -0.00000000000E+00  0.00000000000E+00  0.10313158784E+03  0.10313158784E+03  0.00000000000E+00 0.  1.
          1   -1    0    0  501    0  0.00000000000E+00 -0.00000000000E+00 -0.38587153500E+03  0.38587153500E+03  0.00000000000E+00 0. -1.
         23    2    1    2    0    0 -0.10881985083E+03 -0.14071801807E+03 -0.22942000149E+03  0.30329814943E+03  0.87823173606E+02 0.  0.
         11    1    3    3    0    0 -0.97093418332E+02 -0.85753004512E+02 -0.20390882351E+03  0.24157714704E+03  0.00000000000E+00 0.  1.
        -11    1    3    3    0    0 -0.11726432495E+02 -0.54965013553E+02 -0.25511177972E+02  0.61721002386E+02  0.00000000000E+00 0. -1.
         22    1    1    2    0    0  0.10881985083E+03  0.14071801807E+03 -0.53319945675E+02  0.18570497341E+03  0.00000000000E+00 0.  1.
<mgrwt>
<rscale>  0 0.39897641E+03</rscale>
<asrwt>0</asrwt>
<pdfrwt beam="1">  1        1 0.59364851E-01 0.39897641E+03</pdfrwt>
<pdfrwt beam="2">  1       -1 0.15866398E-01 0.39897641E+03</pdfrwt>
<totfact> 0.18728578E+03</totfact>
</mgrwt>
</event>
<event>
 6    1  0.2238133E-007  0.1076604E+04  0.7818608E-02  0.9228300E-01
         -2   -1    0    0    0  501 -0.00000000000E+00  0.00000000000E+00  0.86650983901E+03  0.86650983901E+03  0.00000000000E+00 0.  1.
          2   -1    0    0  501    0  0.00000000000E+00 -0.00000000000E+00 -0.33440912141E+03  0.33440912141E+03  0.00000000000E+00 0. -1.
         23    2    1    2    0    0  0.33925061785E+03  0.19394802710E+03  0.67464078473E+03  0.78495683514E+03  0.91160439266E+02 0.  0.
         11    1    3    3    0    0  0.23136407377E+03  0.95672617453E+02  0.48346321858E+03  0.54444399903E+03  0.00000000000E+00 0. -1.
        -11    1    3    3    0    0  0.10788654409E+03  0.98275409647E+02  0.19117756615E+03  0.24051283612E+03  0.00000000000E+00 0.  1.
         22    1    1    2    0    0 -0.33925061785E+03 -0.19394802710E+03 -0.14254006713E+03  0.41596212528E+03  0.00000000000E+00 0. -1.
<mgrwt>
<rscale>  0 0.10766035E+04</rscale>
<asrwt>0</asrwt>
<pdfrwt beam="1">  1        2 0.51447558E-01 0.10766035E+04</pdfrwt>
<pdfrwt beam="2">  1       -2 0.13330920E+00 0.10766035E+04</pdfrwt>
<totfact> 0.39360747E+01</totfact>
</mgrwt>
</event>
<event>
 6    1  0.2238133E-007  0.1181174E+04  0.7818608E-02  0.9129496E-01
         -2   -1    0    0    0  501 -0.00000000000E+00  0.00000000000E+00  0.42791828456E+03  0.42791828456E+03  0.00000000000E+00 0.  1.
          2   -1    0    0  501    0  0.00000000000E+00 -0.00000000000E+00 -0.81509306848E+03  0.81509306848E+03  0.00000000000E+00 0. -1.
         23    2    1    2    0    0 -0.50016470225E+03  0.20906330942E+03  0.42638679517E+02  0.55119359519E+03  0.90133931797E+02 0.  0.
         11    1    3    3    0    0 -0.25778935913E+03  0.89063086893E+02 -0.20355064563E+02  0.27349938899E+03  0.00000000000E+00 0.  1.
        -11    1    3    3    0    0 -0.24237534313E+03  0.12000022253E+03  0.62993744081E+02  0.27769420620E+03  0.00000000000E+00 0. -1.
         22    1    1    2    0    0  0.50016470225E+03 -0.20906330942E+03 -0.42981346343E+03  0.69181775785E+03  0.00000000000E+00 0. -1.
<mgrwt>
<rscale>  0 0.11811744E+04</rscale>
<asrwt>0</asrwt>
<pdfrwt beam="1">  1        2 0.12539893E+00 0.11811744E+04</pdfrwt>
<pdfrwt beam="2">  1       -2 0.65833582E-01 0.11811744E+04</pdfrwt>
<totfact> 0.70523509E+01</totfact>
</mgrwt>
</event>
<event>
 6    1  0.2238133E-007  0.1378686E+04  0.7818608E-02  0.8969393E-01
          2   -1    0    0  501    0  0.00000000000E+00  0.00000000000E+00  0.12083776164E+04  0.12083776164E+04  0.00000000000E+00 0. -1.
         -2   -1    0    0    0  501 -0.00000000000E+00 -0.00000000000E+00 -0.39324933237E+03  0.39324933237E+03  0.00000000000E+00 0.  1.
         23    2    1    2    0    0 -0.41691360434E+03 -0.13404819003E+03  0.10232876713E+04  0.11167391254E+04  0.90569007087E+02 0.  0.
         11    1    3    3    0    0 -0.25791528267E+03 -0.11831003248E+03  0.58374279526E+03  0.64905562769E+03  0.00000000000E+00 0. -1.
        -11    1    3    3    0    0 -0.15899832167E+03 -0.15738157547E+02  0.43954487609E+03  0.46768349767E+03  0.00000000000E+00 0.  1.
         22    1    1    2    0    0  0.41691360434E+03  0.13404819003E+03 -0.20815938734E+03  0.48488782339E+03  0.00000000000E+00 0.  1.
<mgrwt>
<rscale>  0 0.13786859E+04</rscale>
<asrwt>0</asrwt>
<pdfrwt beam="1">  1        2 0.18590425E+00 0.13786859E+04</pdfrwt>
<pdfrwt beam="2">  1       -2 0.60499898E-01 0.13786859E+04</pdfrwt>
<totfact> 0.46446513E+01</totfact>
</mgrwt>
</event>
<event>
 6    1  0.2238133E-007  0.1911408E+04  0.7818608E-02  0.8649199E-01
         -2   -1    0    0    0  501 -0.00000000000E+00  0.00000000000E+00  0.51539006308E+03  0.51539006308E+03  0.00000000000E+00 0.  1.
          2   -1    0    0  501    0  0.00000000000E+00 -0.00000000000E+00 -0.17721910992E+04  0.17721910992E+04  0.00000000000E+00 0. -1.
         23    2    1    2    0    0  0.16838778861E+03 -0.76753988913E+03 -0.12761740602E+04  0.15015485657E+04  0.92498294515E+02 0.  0.
         11    1    3    3    0    0  0.18888009274E+02 -0.17559383685E+03 -0.35361733116E+03  0.39526594759E+03  0.00000000000E+00 0.  1.
        -11    1    3    3    0    0  0.14949977934E+03 -0.59194605229E+03 -0.92255672908E+03  0.11062826181E+04  0.00000000000E+00 0. -1.
         22    1    1    2    0    0 -0.16838778861E+03  0.76753988913E+03  0.19373024115E+02  0.78603259654E+03  0.00000000000E+00 0.  1.
<mgrwt>
<rscale>  0 0.19114075E+04</rscale>
<asrwt>0</asrwt>
<pdfrwt beam="1">  1        2 0.27264479E+00 0.19114075E+04</pdfrwt>
<pdfrwt beam="2">  1       -2 0.79290777E-01 0.19114075E+04</pdfrwt>
<totfact> 0.11797730E+01</totfact>
</mgrwt>
</event>
<event>
 6    1  0.2238133E-007  0.2328652E+04  0.7818608E-02  0.8466709E-01
         -2   -1    0    0    0  501 -0.00000000000E+00  0.00000000000E+00  0.40568811847E+03  0.40568811847E+03  0.00000000000E+00 0.  1.
          2   -1    0    0  501    0  0.00000000000E+00 -0.00000000000E+00 -0.33416177544E+04  0.33416177544E+04  0.00000000000E+00 0. -1.
         23    2    1    2    0    0 -0.29844278694E+03 -0.44355371077E+03  0.19101688732E+03  0.57498770620E+03  0.91188922672E+02 0.  0.
         13    1    3    3    0    0 -0.93570763615E+02 -0.13784409559E+03  0.10542112772E+03  0.19715500669E+03  0.00000000000E+00 0. -1.
        -13    1    3    3    0    0 -0.20487202333E+03 -0.30570961518E+03  0.85595759600E+02  0.37783269951E+03  0.00000000000E+00 0.  1.
         22    1    1    2    0    0  0.29844278694E+03  0.44355371077E+03 -0.31269465233E+04  0.31723181667E+04  0.00000000000E+00 0. -1.
<mgrwt>
<rscale>  0 0.23286516E+04</rscale>
<asrwt>0</asrwt>
<pdfrwt beam="1">  1        2 0.51409504E+00 0.23286516E+04</pdfrwt>
<pdfrwt beam="2">  1       -2 0.62413557E-01 0.23286516E+04</pdfrwt>
<totfact> 0.22540961E+00</totfact>
</mgrwt>
</event>
<event>
 6    1  0.2238133E-007  0.1841715E+04  0.7818608E-02  0.8684425E-01
         -2   -1    0    0    0  501 -0.00000000000E+00  0.00000000000E+00  0.53771835592E+03  0.53771835592E+03  0.00000000000E+00 0.  1.
          2   -1    0    0  501    0  0.00000000000E+00 -0.00000000000E+00 -0.15769944561E+04  0.15769944561E+04  0.00000000000E+00 0. -1.
         23    2    1    2    0    0  0.64861268895E+03  0.55202451063E+03 -0.91781813769E+03  0.12543747870E+04  0.75076573304E+02 0.  0.
         13    1    3    3    0    0  0.45125445313E+03  0.33810828782E+03 -0.59601149870E+03  0.82047394982E+03  0.00000000000E+00 0. -1.
        -13    1    3    3    0    0  0.19735823583E+03  0.21391622281E+03 -0.32180663900E+03  0.43390083721E+03  0.00000000000E+00 0.  1.
         22    1    1    2    0    0 -0.64861268895E+03 -0.55202451063E+03 -0.12145796249E+03  0.86033802500E+03  0.00000000000E+00 0.  1.
<mgrwt>
<rscale>  0 0.18417154E+04</rscale>
<asrwt>0</asrwt>
<pdfrwt beam="1">  1        2 0.24261453E+00 0.18417154E+04</pdfrwt>
<pdfrwt beam="2">  1       -2 0.82725900E-01 0.18417154E+04</pdfrwt>
<totfact> 0.13851976E+01</totfact>
</mgrwt>
</event>
<event>
 6    1  0.2238133E-007  0.1995427E+04  0.7818608E-02  0.8608762E-01
          4   -1    0    0  501    0  0.00000000000E+00  0.00000000000E+00  0.37512202531E+03  0.37512202531E+03  0.00000000000E+00 0. -1.
         -4   -1    0    0    0  501 -0.00000000000E+00 -0.00000000000E+00 -0.26536222741E+04  0.26536222741E+04  0.00000000000E+00 0.  1.
         23    2    1    2    0    0  0.61233459614E+03  0.22853799560E+02 -0.23327191008E+04  0.24135893289E+04  0.91428068371E+02 0.  0.
         11    1    3    3    0    0  0.35847973923E+03  0.47255822832E+02 -0.14816540662E+04  0.15251359310E+04  0.00000000000E+00 0. -1.
        -11    1    3    3    0    0  0.25385485691E+03 -0.24402023272E+02 -0.85106503460E+03  0.88845339789E+03  0.00000000000E+00 0.  1.
         22    1    1    2    0    0 -0.61233459614E+03 -0.22853799560E+02  0.54218852026E+02  0.61515497047E+03  0.00000000000E+00 0. -1.
<mgrwt>
<rscale>  0 0.19954269E+04</rscale>
<asrwt>0</asrwt>
<pdfrwt beam="1">  1        4 0.57711082E-01 0.19954269E+04</pdfrwt>
<pdfrwt beam="2">  1       -4 0.40824957E+00 0.19954269E+04</pdfrwt>
<totfact> 0.31788373E-02</totfact>
</mgrwt>
</event>
<event>
 6    1  0.2897099E-007  0.2616371E+04  0.7818608E-02  0.8362661E-01
          2   -1    0    0  501    0  0.00000000000E+00  0.00000000000E+00  0.14903273649E+04  0.14903273649E+04  0.00000000000E+00 0. -1.
         -2   -1    0    0    0  501 -0.00000000000E+00 -0.00000000000E+00 -0.11483045899E+04  0.11483045899E+04  0.00000000000E+00 0.  1.
         23    2    1    2    0    0  0.12749140393E+03 -0.71398185758E+03  0.12660935990E+04  0.14639272945E+04  0.11860004705E+03 0.  0.
         11    1    3    3    0    0  0.58366983045E+02 -0.34737601052E+03  0.49748756122E+03  0.60956596933E+03  0.00000000000E+00 0.  1.
        -11    1    3    3    0    0  0.69124420885E+02 -0.36660584706E+03  0.76860603775E+03  0.85436132516E+03  0.00000000000E+00 0. -1.
         22    1    1    2    0    0 -0.12749140393E+03  0.71398185758E+03 -0.92407082398E+03  0.11747046602E+04  0.00000000000E+00 0.  1.
<mgrwt>
<rscale>  0 0.26163713E+04</rscale>
<asrwt>0</asrwt>
<pdfrwt beam="1">  1        2 0.22928113E+00 0.26163713E+04</pdfrwt>
<pdfrwt beam="2">  1       -2 0.17666224E+00 0.26163713E+04</pdfrwt>
<totfact> 0.21723690E+00</totfact>
</mgrwt>
</event>
<event>
 6    1  0.2238133E-007  0.3755173E+04  0.7818608E-02  0.8055844E-01
          2   -1    0    0  501    0  0.00000000000E+00  0.00000000000E+00  0.33174721098E+04  0.33174721098E+04  0.00000000000E+00 0. -1.
         -2   -1    0    0    0  501 -0.00000000000E+00 -0.00000000000E+00 -0.10626556035E+04  0.10626556035E+04  0.00000000000E+00 0.  1.
         23    2    1    2    0    0 -0.74794910765E+03  0.97983076574E+03 -0.52179219019E+03  0.13421922218E+04  0.98573188714E+02 0.  0.
         11    1    3    3    0    0 -0.61887690915E+03  0.83899507535E+03 -0.47411628465E+03  0.11452980470E+04  0.00000000000E+00 0.  1.
        -11    1    3    3    0    0 -0.12907219849E+03  0.14083569038E+03 -0.47675905533E+02  0.19689417482E+03  0.00000000000E+00 0. -1.
         22    1    1    2    0    0  0.74794910765E+03 -0.97983076574E+03  0.27766086965E+04  0.30379354915E+04  0.00000000000E+00 0. -1.
<mgrwt>
<rscale>  0 0.37551726E+04</rscale>
<asrwt>0</asrwt>
<pdfrwt beam="1">  1        2 0.51038032E+00 0.37551726E+04</pdfrwt>
<pdfrwt beam="2">  1       -2 0.16348548E+00 0.37551726E+04</pdfrwt>
<totfact> 0.20693868E-01</totfact>
</mgrwt>
</event>
<event>
 6    1  0.2238133E-007  0.1386081E+04  0.7818608E-02  0.8963956E-01
          2   -1    0    0  501    0  0.00000000000E+00  0.00000000000E+00  0.10453780906E+04  0.10453780906E+04  0.00000000000E+00 0. -1.
         -2   -1    0    0    0  501 -0.00000000000E+00 -0.00000000000E+00 -0.45945593441E+03  0.45945593441E+03  0.00000000000E+00 0.  1.
         23    2    1    2    0    0 -0.45233234776E+03 -0.23646658984E+03 -0.21008214986E+03  0.55924222290E+03  0.89979737973E+02 0.  0.
         13    1    3    3    0    0 -0.18402804039E+03 -0.14020746018E+03 -0.70528467066E+02  0.24186507852E+03  0.00000000000E+00 0.  1.
        -13    1    3    3    0    0 -0.26830430737E+03 -0.96259129665E+02 -0.13955368280E+03  0.31737714439E+03  0.00000000000E+00 0. -1.
         22    1    1    2    0    0  0.45233234776E+03  0.23646658984E+03  0.79600430603E+03  0.94559180208E+03  0.00000000000E+00 0. -1.
<mgrwt>
<rscale>  0 0.13860810E+04</rscale>
<asrwt>0</asrwt>
<pdfrwt beam="1">  1        2 0.16082740E+00 0.13860810E+04</pdfrwt>
<pdfrwt beam="2">  1       -2 0.70685528E-01 0.13860810E+04</pdfrwt>
<totfact> 0.41788180E+01</totfact>
</mgrwt>
</event>
<event>
 6    1  0.2238133E-007  0.1055204E+04  0.7818608E-02  0.9249987E-01
          2   -1    0    0  501    0  0.00000000000E+00  0.00000000000E+00  0.30097761873E+03  0.30097761873E+03  0.00000000000E+00 0. -1.
         -2   -1    0    0    0  501 -0.00000000000E+00 -0.00000000000E+00 -0.92486616704E+03  0.92486616704E+03  0.00000000000E+00 0.  1.
         23    2    1    2    0    0 -0.26337117914E+03 -0.42513631597E+03 -0.13588883201E+03  0.52709562780E+03  0.96222455897E+02 0.  0.
         13    1    3    3    0    0 -0.16549570356E+03 -0.24637539250E+03 -0.12776879559E+03  0.32313236770E+03  0.00000000000E+00 0.  1.
        -13    1    3    3    0    0 -0.97875475588E+02 -0.17876092347E+03 -0.81200364247E+01  0.20396326011E+03  0.00000000000E+00 0. -1.
         22    1    1    2    0    0  0.26337117914E+03  0.42513631597E+03 -0.48799971630E+03  0.69874815797E+03  0.00000000000E+00 0.  1.
<mgrwt>
<rscale>  0 0.10552043E+04</rscale>
<asrwt>0</asrwt>
<pdfrwt beam="1">  1        2 0.46304250E-01 0.10552043E+04</pdfrwt>
<pdfrwt beam="2">  1       -2 0.14228710E+00 0.10552043E+04</pdfrwt>
<totfact> 0.37456142E+01</totfact>
</mgrwt>
</event>
<event>
 6    1  0.2238133E-007  0.2450101E+04  0.7818608E-02  0.8420981E-01
         -2   -1    0    0    0  501 -0.00000000000E+00  0.00000000000E+00  0.89767127106E+03  0.89767127106E+03  0.00000000000E+00 0.  1.
          2   -1    0    0  501    0  0.00000000000E+00 -0.00000000000E+00 -0.16718239595E+04  0.16718239595E+04  0.00000000000E+00 0. -1.
         23    2    1    2    0    0 -0.22339948030E+02 -0.12189905139E+04 -0.49467731910E+03  0.13186781263E+04  0.88144226098E+02 0.  0.
         13    1    3    3    0    0  0.86818168774E+01 -0.60425671626E+03 -0.28757720104E+03  0.66925495863E+03  0.00000000000E+00 0. -1.
        -13    1    3    3    0    0 -0.31021764908E+02 -0.61473379762E+03 -0.20710011806E+03  0.64942316769E+03  0.00000000000E+00 0.  1.
         22    1    1    2    0    0  0.22339948030E+02  0.12189905139E+04 -0.27947536935E+03  0.12508171043E+04  0.00000000000E+00 0.  1.
<mgrwt>
<rscale>  0 0.24501007E+04</rscale>
<asrwt>0</asrwt>
<pdfrwt beam="1">  1        2 0.25720369E+00 0.24501007E+04</pdfrwt>
<pdfrwt beam="2">  1       -2 0.13810327E+00 0.24501007E+04</pdfrwt>
<totfact> 0.33888264E+00</totfact>
</mgrwt>
</event>
<event>
 6    1  0.2238133E-007  0.1606596E+04  0.7818608E-02  0.8816506E-01
         -2   -1    0    0    0  501 -0.00000000000E+00  0.00000000000E+00  0.47830750809E+03  0.47830750809E+03  0.00000000000E+00 0.  1.
          2   -1    0    0  501    0  0.00000000000E+00 -0.00000000000E+00 -0.13491059481E+04  0.13491059481E+04  0.00000000000E+00 0. -1.
         23    2    1    2    0    0 -0.37324683593E+03 -0.69285371190E+03 -0.26973835974E+03  0.83714445902E+03  0.93234092087E+02 0.  0.
         13    1    3    3    0    0 -0.27388177800E+03 -0.55528568801E+03 -0.24401605197E+03  0.66550526463E+03  0.00000000000E+00 0. -1.
        -13    1    3    3    0    0 -0.99365057926E+02 -0.13756802389E+03 -0.25722307767E+02  0.17163919439E+03  0.00000000000E+00 0.  1.
         22    1    1    2    0    0  0.37324683593E+03  0.69285371190E+03 -0.60106008023E+03  0.99026899713E+03  0.00000000000E+00 0. -1.
<mgrwt>
<rscale>  0 0.16065958E+04</rscale>
<asrwt>0</asrwt>
<pdfrwt beam="1">  1        2 0.20755476E+00 0.16065958E+04</pdfrwt>
<pdfrwt beam="2">  1       -2 0.73585771E-01 0.16065958E+04</pdfrwt>
<totfact> 0.24712764E+01</totfact>
</mgrwt>
</event>
<event>
 6    1  0.2238133E-007  0.9653594E+03  0.7818608E-02  0.9347376E-01
          2   -1    0    0  501    0  0.00000000000E+00  0.00000000000E+00  0.53077374561E+03  0.53077374561E+03  0.00000000000E+00 0. -1.
         -2   -1    0    0    0  501 -0.00000000000E+00 -0.00000000000E+00 -0.43894353965E+03  0.43894353965E+03  0.00000000000E+00 0.  1.
         23    2    1    2    0    0  0.37509849419E+03  0.28325768182E+03 -0.45497441400E+02  0.48003098018E+03  0.86173836579E+02 0.  0.
         11    1    3    3    0    0  0.23519090315E+03  0.20227857498E+03  0.63189659589E+01  0.31027618689E+03  0.00000000000E+00 0. -1.
        -11    1    3    3    0    0  0.13990759104E+03  0.80979106841E+02 -0.51816407359E+02  0.16975479330E+03  0.00000000000E+00 0.  1.
         22    1    1    2    0    0 -0.37509849419E+03 -0.28325768182E+03  0.13732764736E+03  0.48968630508E+03  0.00000000000E+00 0. -1.
<mgrwt>
<rscale>  0 0.96535943E+03</rscale>
<asrwt>0</asrwt>
<pdfrwt beam="1">  1        2 0.81657499E-01 0.96535943E+03</pdfrwt>
<pdfrwt beam="2">  1       -2 0.67529775E-01 0.96535943E+03</pdfrwt>
<totfact> 0.11553232E+02</totfact>
</mgrwt>
</event>
<event>
 6    1  0.2238133E-007  0.2494635E+04  0.7818608E-02  0.8404899E-01
         -2   -1    0    0    0  501 -0.00000000000E+00  0.00000000000E+00  0.13710511419E+04  0.13710511419E+04  0.00000000000E+00 0.  1.
          2   -1    0    0  501    0  0.00000000000E+00 -0.00000000000E+00 -0.11347503240E+04  0.11347503240E+04  0.00000000000E+00 0. -1.
         23    2    1    2    0    0  0.11129934491E+04  0.39350787311E+03  0.51734326287E+03  0.12922992121E+04  0.93756802777E+02 0.  0.
         11    1    3    3    0    0  0.42115918335E+03  0.17461844522E+03  0.15768810826E+03  0.48242325671E+03  0.00000000000E+00 0.  1.
        -11    1    3    3    0    0  0.69183426574E+03  0.21888942790E+03  0.35965515460E+03  0.80987595540E+03  0.00000000000E+00 0. -1.
         22    1    1    2    0    0 -0.11129934491E+04 -0.39350787311E+03 -0.28104244497E+03  0.12135022537E+04  0.00000000000E+00 0. -1.
<mgrwt>
<rscale>  0 0.24946348E+04</rscale>
<asrwt>0</asrwt>
<pdfrwt beam="1">  1        2 0.17457697E+00 0.24946348E+04</pdfrwt>
<pdfrwt beam="2">  1       -2 0.21093095E+00 0.24946348E+04</pdfrwt>
<totfact> 0.20899758E+00</totfact>
</mgrwt>
</event>
<event>
 6    1  0.2238133E-007  0.2384821E+04  0.7818608E-02  0.8445208E-01
          2   -1    0    0  501    0  0.00000000000E+00  0.00000000000E+00  0.15882315424E+04  0.15882315424E+04  0.00000000000E+00 0. -1.
         -2   -1    0    0    0  501 -0.00000000000E+00 -0.00000000000E+00 -0.89523668200E+03  0.89523668200E+03  0.00000000000E+00 0.  1.
         23    2    1    2    0    0 -0.24548389912E+02 -0.11000382184E+04  0.82068644643E+03  0.13757715842E+04  0.92382375183E+02 0.  0.
         11    1    3    3    0    0 -0.41275647059E+02 -0.23463151606E+03  0.19215497089E+03  0.30607051509E+03  0.00000000000E+00 0.  1.
        -11    1    3    3    0    0  0.16727257147E+02 -0.86540670235E+03  0.62853147554E+03  0.10697010691E+04  0.00000000000E+00 0. -1.
         22    1    1    2    0    0  0.24548389912E+02  0.11000382184E+04 -0.12769158606E+03  0.11076966401E+04  0.00000000000E+00 0.  1.
<mgrwt>
<rscale>  0 0.23848213E+04</rscale>
<asrwt>0</asrwt>
<pdfrwt beam="1">  1        2 0.24434331E+00 0.23848213E+04</pdfrwt>
<pdfrwt beam="2">  1       -2 0.13772872E+00 0.23848213E+04</pdfrwt>
<totfact> 0.38207454E+00</totfact>
</mgrwt>
</event>
<event>
 6    1  0.2238133E-007  0.1505006E+04  0.7818608E-02  0.8881131E-01
          2   -1    0    0  501    0  0.00000000000E+00  0.00000000000E+00  0.80822026307E+03  0.80822026307E+03  0.00000000000E+00 0. -1.
         -2   -1    0    0    0  501 -0.00000000000E+00 -0.00000000000E+00 -0.70062657796E+03  0.70062657796E+03  0.00000000000E+00 0.  1.
         23    2    1    2    0    0 -0.10883305843E+03  0.49823978594E+03 -0.49727430536E+03  0.71767504881E+03  0.87682506873E+02 0.  0.
         13    1    3    3    0    0 -0.12022267167E+03  0.38441277638E+03 -0.37695067584E+03  0.55165069151E+03  0.00000000000E+00 0. -1.
        -13    1    3    3    0    0  0.11389613247E+02  0.11382700956E+03 -0.12032362952E+03  0.16602435730E+03  0.00000000000E+00 0.  1.
         22    1    1    2    0    0  0.10883305843E+03 -0.49823978594E+03  0.60486799047E+03  0.79117179221E+03  0.00000000000E+00 0. -1.
<mgrwt>
<rscale>  0 0.15050058E+04</rscale>
<asrwt>0</asrwt>
<pdfrwt beam="1">  1        2 0.12434158E+00 0.15050058E+04</pdfrwt>
<pdfrwt beam="2">  1       -2 0.10778870E+00 0.15050058E+04</pdfrwt>
<totfact> 0.22650614E+01</totfact>
</mgrwt>
</event>
<event>
 6    1  0.2238133E-007  0.1173644E+04  0.7818608E-02  0.9136244E-01
         -2   -1    0    0    0  501 -0.00000000000E+00  0.00000000000E+00  0.58953713748E+03  0.58953713748E+03  0.00000000000E+00 0.  1.
          2   -1    0    0  501    0  0.00000000000E+00 -0.00000000000E+00 -0.58411948195E+03  0.58411948195E+03  0.00000000000E+00 0. -1.
         23    2    1    2    0    0 -0.39568725997E+03 -0.37513711235E+03 -0.20454210403E+03  0.58937983451E+03  0.90746108659E+02 0.  0.
         13    1    3    3    0    0 -0.32483261361E+03 -0.31137236755E+03 -0.20401599015E+03  0.49405617330E+03  0.00000000000E+00 0. -1.
        -13    1    3    3    0    0 -0.70854646363E+02 -0.63764744800E+02 -0.52611388306E+00  0.95323661210E+02  0.00000000000E+00 0.  1.
         22    1    1    2    0    0  0.39568725997E+03  0.37513711235E+03  0.20995975957E+03  0.58427678493E+03  0.00000000000E+00 0.  1.
<mgrwt>
<rscale>  0 0.11736441E+04</rscale>
<asrwt>0</asrwt>
<pdfrwt beam="1">  1        2 0.89864536E-01 0.11736441E+04</pdfrwt>
<pdfrwt beam="2">  1       -2 0.90698021E-01 0.11736441E+04</pdfrwt>
<totfact> 0.52588101E+01</totfact>
</mgrwt>
</event>
<event>
 6    1  0.2238133E-007  0.1212960E+04  0.7818608E-02  0.9101588E-01
          2   -1    0    0  501    0  0.00000000000E+00  0.00000000000E+00  0.35572699651E+03  0.35572699651E+03  0.00000000000E+00 0. -1.
         -2   -1    0    0    0  501 -0.00000000000E+00 -0.00000000000E+00 -0.10339887114E+04  0.10339887114E+04  0.00000000000E+00 0.  1.
         23    2    1    2    0    0 -0.66199591500E+02  0.45783311229E+03 -0.78252500266E+03  0.91551703879E+03  0.10877740530E+03 0.  0.
         13    1    3    3    0    0 -0.96420520259E+01  0.35660442726E+03 -0.54786563619E+03  0.65377094003E+03  0.00000000000E+00 0. -1.
        -13    1    3    3    0    0 -0.56557539475E+02  0.10122868503E+03 -0.23465936647E+03  0.26174609876E+03  0.00000000000E+00 0.  1.
         22    1    1    2    0    0  0.66199591500E+02 -0.45783311229E+03  0.10426328777E+03  0.47419866913E+03  0.00000000000E+00 0. -1.
<mgrwt>
<rscale>  0 0.12129595E+04</rscale>
<asrwt>0</asrwt>
<pdfrwt beam="1">  1        2 0.54727230E-01 0.12129595E+04</pdfrwt>
<pdfrwt beam="2">  1       -2 0.15907519E+00 0.12129595E+04</pdfrwt>
<totfact> 0.22866984E+01</totfact>
</mgrwt>
</event>
<event>
 6    1  0.2238133E-007  0.3149565E+04  0.7818608E-02  0.8202265E-01
         -2   -1    0    0    0  501 -0.00000000000E+00  0.00000000000E+00  0.17638902616E+04  0.17638902616E+04  0.00000000000E+00 0.  1.
          2   -1    0    0  501    0  0.00000000000E+00 -0.00000000000E+00 -0.14059486994E+04  0.14059486994E+04  0.00000000000E+00 0. -1.
         23    2    1    2    0    0 -0.39699180719E+03 -0.45273737642E+03 -0.12839644496E+04  0.14210024967E+04  0.90054211662E+02 0.  0.
         13    1    3    3    0    0 -0.41274765230E+02 -0.98538975720E+02 -0.22136000257E+03  0.24579216163E+03  0.00000000000E+00 0. -1.
        -13    1    3    3    0    0 -0.35571704196E+03 -0.35419840070E+03 -0.10626044470E+04  0.11752103351E+04  0.00000000000E+00 0.  1.
         22    1    1    2    0    0  0.39699180719E+03  0.45273737642E+03  0.16419060118E+04  0.17488364642E+04  0.00000000000E+00 0.  1.
<mgrwt>
<rscale>  0 0.31495646E+04</rscale>
<asrwt>0</asrwt>
<pdfrwt beam="1">  1        2 0.21629980E+00 0.31495646E+04</pdfrwt>
<pdfrwt beam="2">  1       -2 0.27136773E+00 0.31495646E+04</pdfrwt>
<totfact> 0.57717674E-01</totfact>
</mgrwt>
</event>
<event>
 6    1  0.2238133E-007  0.5512748E+04  0.7818608E-02  0.7753937E-01
          1   -1    0    0  501    0  0.00000000000E+00  0.00000000000E+00  0.33971382122E+04  0.33971382122E+04  0.00000000000E+00 0. -1.
         -1   -1    0    0    0  501 -0.00000000000E+00 -0.00000000000E+00 -0.22364698965E+04  0.22364698965E+04  0.00000000000E+00 0.  1.
         23    2    1    2    0    0  0.40705225782E+03 -0.29218080108E+03  0.33496019077E+04  0.33880588594E+04  0.89714734080E+02 0.  0.
         13    1    3    3    0    0  0.87107033724E+02 -0.60106589647E+02  0.98267847617E+03  0.98836097908E+03  0.00000000000E+00 0. -1.
        -13    1    3    3    0    0  0.31994522410E+03 -0.23207421143E+03  0.23669234316E+04  0.23996978803E+04  0.00000000000E+00 0.  1.
         22    1    1    2    0    0 -0.40705225782E+03  0.29218080108E+03 -0.21889335920E+04  0.22455492494E+04  0.00000000000E+00 0.  1.
<mgrwt>
<rscale>  0 0.55127479E+04</rscale>
<asrwt>0</asrwt>
<pdfrwt beam="1">  1        1 0.52263665E+00 0.55127479E+04</pdfrwt>
<pdfrwt beam="2">  1       -1 0.34407229E+00 0.55127479E+04</pdfrwt>
<totfact> 0.35442511E-03</totfact>
</mgrwt>
</event>
<event>
 6    1  0.2238133E-007  0.1748445E+04  0.7818608E-02  0.8734207E-01
         -2   -1    0    0    0  501 -0.00000000000E+00  0.00000000000E+00  0.23319107222E+03  0.23319107222E+03  0.00000000000E+00 0.  1.
          2   -1    0    0  501    0  0.00000000000E+00 -0.00000000000E+00 -0.32774206601E+04  0.32774206601E+04  0.00000000000E+00 0. -1.
         23    2    1    2    0    0  0.31911097576E+03  0.79379883501E+03 -0.11873232256E+04  0.14660947615E+04  0.88028419045E+02 0.  0.
         11    1    3    3    0    0  0.10123796661E+02  0.94682780891E+02 -0.11665198566E+03  0.15058222343E+03  0.00000000000E+00 0.  1.
        -11    1    3    3    0    0  0.30898717910E+03  0.69911605412E+03 -0.10706712399E+04  0.13155125381E+04  0.00000000000E+00 0. -1.
         22    1    1    2    0    0 -0.31911097576E+03 -0.79379883501E+03 -0.18569063623E+04  0.20445169707E+04  0.00000000000E+00 0. -1.
<mgrwt>
<rscale>  0 0.17484453E+04</rscale>
<asrwt>0</asrwt>
<pdfrwt beam="1">  1        2 0.50421856E+00 0.17484453E+04</pdfrwt>
<pdfrwt beam="2">  1       -2 0.35875550E-01 0.17484453E+04</pdfrwt>
<totfact> 0.80399326E+00</totfact>
</mgrwt>
</event>
<event>
 6    1  0.2238133E-007  0.2525269E+04  0.7818608E-02  0.8394038E-01
         -2   -1    0    0    0  501 -0.00000000000E+00  0.00000000000E+00  0.59377781082E+03  0.59377781082E+03  0.00000000000E+00 0.  1.
          2   -1    0    0  501    0  0.00000000000E+00 -0.00000000000E+00 -0.26849192772E+04  0.26849192772E+04  0.00000000000E+00 0. -1.
         23    2    1    2    0    0  0.10315259089E+03 -0.58127934664E+03  0.39954738387E+03  0.71899845642E+03  0.93779168980E+02 0.  0.
         13    1    3    3    0    0  0.51987534560E+02 -0.21379572219E+03  0.97906847079E+02  0.24082579862E+03  0.00000000000E+00 0. -1.
        -13    1    3    3    0    0  0.51165056331E+02 -0.36748362445E+03  0.30164053679E+03  0.47817265780E+03  0.00000000000E+00 0.  1.
         22    1    1    2    0    0 -0.10315259089E+03  0.58127934664E+03 -0.24906888502E+04  0.25596986316E+04  0.00000000000E+00 0. -1.
<mgrwt>
<rscale>  0 0.25252687E+04</rscale>
<asrwt>0</asrwt>
<pdfrwt beam="1">  1        2 0.41306450E+00 0.25252687E+04</pdfrwt>
<pdfrwt beam="2">  1       -2 0.91350434E-01 0.25252687E+04</pdfrwt>
<totfact> 0.24631916E+00</totfact>
</mgrwt>
</event>
<event>
 6    1  0.2238133E-007  0.5115045E+04  0.7818608E-02  0.7811001E-01
         -2   -1    0    0    0  501 -0.00000000000E+00  0.00000000000E+00  0.31239935209E+04  0.31239935209E+04  0.00000000000E+00 0.  1.
          2   -1    0    0  501    0  0.00000000000E+00 -0.00000000000E+00 -0.20937688563E+04  0.20937688563E+04  0.00000000000E+00 0. -1.
         23    2    1    2    0    0  0.17370654160E+04  0.17992143642E+04 -0.27198126092E+02  0.25024886256E+04  0.84504412597E+02 0.  0.
         11    1    3    3    0    0  0.79364508199E+02  0.87830874150E+02  0.16256956363E+02  0.11948755687E+03  0.00000000000E+00 0.  1.
        -11    1    3    3    0    0  0.16577009078E+04  0.17113834900E+04 -0.43455082455E+02  0.23830010688E+04  0.00000000000E+00 0. -1.
         22    1    1    2    0    0 -0.17370654160E+04 -0.17992143642E+04  0.10574227907E+04  0.27152737516E+04  0.00000000000E+00 0.  1.
<mgrwt>
<rscale>  0 0.51150446E+04</rscale>
<asrwt>0</asrwt>
<pdfrwt beam="1">  1        2 0.32211828E+00 0.51150446E+04</pdfrwt>
<pdfrwt beam="2">  1       -2 0.48061439E+00 0.51150446E+04</pdfrwt>
<totfact> 0.94022135E-03</totfact>
</mgrwt>
</event>
<event>
 6    1  0.2238133E-007  0.2035074E+04  0.7818608E-02  0.8590396E-01
         -2   -1    0    0    0  501 -0.00000000000E+00  0.00000000000E+00  0.44922610602E+03  0.44922610602E+03  0.00000000000E+00 0.  1.
          2   -1    0    0  501    0  0.00000000000E+00 -0.00000000000E+00 -0.23048124093E+04  0.23048124093E+04  0.00000000000E+00 0. -1.
         23    2    1    2    0    0 -0.67988071676E+03 -0.75364619142E+03 -0.89279175961E+03  0.13550411228E+04  0.94015678029E+02 0.  0.
         13    1    3    3    0    0 -0.24953717319E+03 -0.23521345488E+03 -0.25569670212E+03  0.42775574062E+03  0.00000000000E+00 0. -1.
        -13    1    3    3    0    0 -0.43034354357E+03 -0.51843273654E+03 -0.63709505749E+03  0.92728538222E+03  0.00000000000E+00 0.  1.
         22    1    1    2    0    0  0.67988071676E+03  0.75364619142E+03 -0.96279454371E+03  0.13989973925E+04  0.00000000000E+00 0. -1.
<mgrwt>
<rscale>  0 0.20350744E+04</rscale>
<asrwt>0</asrwt>
<pdfrwt beam="1">  1        2 0.35458653E+00 0.20350744E+04</pdfrwt>
<pdfrwt beam="2">  1       -2 0.69111707E-01 0.20350744E+04</pdfrwt>
<totfact> 0.79788672E+00</totfact>
</mgrwt>
</event>
<event>
 6    1  0.2238133E-007  0.3470092E+04  0.7818608E-02  0.8120915E-01
         -2   -1    0    0    0  501 -0.00000000000E+00  0.00000000000E+00  0.19400136184E+04  0.19400136184E+04  0.00000000000E+00 0.  1.
          2   -1    0    0  501    0  0.00000000000E+00 -0.00000000000E+00 -0.15517335945E+04  0.15517335945E+04  0.00000000000E+00 0. -1.
         23    2    1    2    0    0 -0.10345296958E+03 -0.90891533582E+03  0.16762911778E+04  0.19119363580E+04  0.93375155729E+02 0.  0.
         13    1    3    3    0    0 -0.59564040835E+02 -0.79803336518E+03  0.14641995413E+04  0.16686178183E+04  0.00000000000E+00 0.  1.
        -13    1    3    3    0    0 -0.43888928749E+02 -0.11088197064E+03  0.21209163655E+03  0.24331853973E+03  0.00000000000E+00 0. -1.
         22    1    1    2    0    0  0.10345296958E+03  0.90891533582E+03 -0.12880111539E+04  0.15798108549E+04  0.00000000000E+00 0. -1.
<mgrwt>
<rscale>  0 0.34700918E+04</rscale>
<asrwt>0</asrwt>
<pdfrwt beam="1">  1        2 0.23872825E+00 0.34700918E+04</pdfrwt>
<pdfrwt beam="2">  1       -2 0.29846363E+00 0.34700918E+04</pdfrwt>
<totfact> 0.31752423E-01</totfact>
</mgrwt>
</event>
<event>
 6    1  0.2238133E-007  0.2120383E+04  0.7818608E-02  0.8552317E-01
          1   -1    0    0  501    0  0.00000000000E+00  0.00000000000E+00  0.13300276921E+04  0.13300276921E+04  0.00000000000E+00 0. -1.
         -1   -1    0    0    0  501 -0.00000000000E+00 -0.00000000000E+00 -0.84509956535E+03  0.84509956535E+03  0.00000000000E+00 0.  1.
         23    2    1    2    0    0 -0.40661744800E+03  0.99087311403E+01  0.12450272320E+04  0.13130445574E+04  0.92505510756E+02 0.  0.
         11    1    3    3    0    0 -0.14619515832E+03 -0.31806452588E+02  0.53841144193E+03  0.55881263008E+03  0.00000000000E+00 0.  1.
        -11    1    3    3    0    0 -0.26042228968E+03  0.41715183728E+02  0.70661579005E+03  0.75423192737E+03  0.00000000000E+00 0. -1.
         22    1    1    2    0    0  0.40661744800E+03 -0.99087311403E+01 -0.76009910519E+03  0.86208270003E+03  0.00000000000E+00 0.  1.
<mgrwt>
<rscale>  0 0.21203828E+04</rscale>
<asrwt>0</asrwt>
<pdfrwt beam="1">  1        1 0.20461964E+00 0.21203828E+04</pdfrwt>
<pdfrwt beam="2">  1       -1 0.13001532E+00 0.21203828E+04</pdfrwt>
<totfact> 0.40078096E+00</totfact>
</mgrwt>
</event>
<event>
 6    1  0.2238133E-007  0.1051462E+04  0.7818608E-02  0.9253836E-01
         -2   -1    0    0    0  501 -0.00000000000E+00  0.00000000000E+00  0.12792446031E+03  0.12792446031E+03  0.00000000000E+00 0.  1.
          2   -1    0    0  501    0  0.00000000000E+00 -0.00000000000E+00 -0.21605947804E+04  0.21605947804E+04  0.00000000000E+00 0. -1.
         23    2    1    2    0    0  0.44477264424E+03 -0.15189834598E+03 -0.15173816915E+04  0.15910823738E+04  0.90554458033E+02 0.  0.
         11    1    3    3    0    0  0.27107078076E+03 -0.66749012750E+02 -0.10166178071E+04  0.10542516609E+04  0.00000000000E+00 0. -1.
        -11    1    3    3    0    0  0.17370186348E+03 -0.85149333225E+02 -0.50076388444E+03  0.53683071288E+03  0.00000000000E+00 0.  1.
         22    1    1    2    0    0 -0.44477264424E+03  0.15189834598E+03 -0.51528862853E+03  0.69743686687E+03  0.00000000000E+00 0.  1.
<mgrwt>
<rscale>  0 0.10514617E+04</rscale>
<asrwt>0</asrwt>
<pdfrwt beam="1">  1        2 0.33239920E+00 0.10514617E+04</pdfrwt>
<pdfrwt beam="2">  1       -2 0.19680686E-01 0.10514617E+04</pdfrwt>
<totfact> 0.11953325E+02</totfact>
</mgrwt>
</event>
<event>
 6    1  0.2238133E-007  0.2711267E+04  0.7818608E-02  0.8331359E-01
         -2   -1    0    0    0  501 -0.00000000000E+00  0.00000000000E+00  0.73809405666E+03  0.73809405666E+03  0.00000000000E+00 0.  1.
          2   -1    0    0  501    0  0.00000000000E+00 -0.00000000000E+00 -0.24898478659E+04  0.24898478659E+04  0.00000000000E+00 0. -1.
         23    2    1    2    0    0 -0.11308270299E+04  0.22253725290E+03 -0.17232347713E+04  0.20750733542E+04  0.89993043715E+02 0.  0.
         11    1    3    3    0    0 -0.73697913075E+03  0.14438482377E+03 -0.11982732454E+04  0.14141584024E+04  0.00000000000E+00 0.  1.
        -11    1    3    3    0    0 -0.39384789913E+03  0.78152429133E+02 -0.52496152588E+03  0.66091495178E+03  0.00000000000E+00 0. -1.
         22    1    1    2    0    0  0.11308270299E+04 -0.22253725290E+03 -0.28519037987E+02  0.11528685684E+04  0.00000000000E+00 0.  1.
<mgrwt>
<rscale>  0 0.27112668E+04</rscale>
<asrwt>0</asrwt>
<pdfrwt beam="1">  1        2 0.38305351E+00 0.27112668E+04</pdfrwt>
<pdfrwt beam="2">  1       -2 0.11355293E+00 0.27112668E+04</pdfrwt>
<totfact> 0.18804738E+00</totfact>
</mgrwt>
</event>
<event>
 6    1  0.2238133E-007  0.4608268E+04  0.7818608E-02  0.7891952E-01
          2   -1    0    0  501    0  0.00000000000E+00  0.00000000000E+00  0.42388156251E+04  0.42388156251E+04  0.00000000000E+00 0. -1.
         -2   -1    0    0    0  501 -0.00000000000E+00 -0.00000000000E+00 -0.12524801870E+04  0.12524801870E+04  0.00000000000E+00 0.  1.
         23    2    1    2    0    0 -0.12525476629E+04  0.16262030896E+04  0.27386180679E+04  0.34237426612E+04  0.92589155738E+02 0.  0.
         11    1    3    3    0    0 -0.53383483026E+03  0.70083253907E+03  0.12517338219E+04  0.15306807096E+04  0.00000000000E+00 0.  1.
        -11    1    3    3    0    0 -0.71871283267E+03  0.92537055053E+03  0.14868842460E+04  0.18930619516E+04  0.00000000000E+00 0. -1.
         22    1    1    2    0    0  0.12525476629E+04 -0.16262030896E+04  0.24771737019E+03  0.20675531510E+04  0.00000000000E+00 0.  1.
<mgrwt>
<rscale>  0 0.46082676E+04</rscale>
<asrwt>0</asrwt>
<pdfrwt beam="1">  1        2 0.65212547E+00 0.46082676E+04</pdfrwt>
<pdfrwt beam="2">  1       -2 0.19268926E+00 0.46082676E+04</pdfrwt>
<totfact> 0.23871188E-02</totfact>
</mgrwt>
</event>
<event>
 6    1  0.2238133E-007  0.1913032E+04  0.7818608E-02  0.8648396E-01
          2   -1    0    0  501    0  0.00000000000E+00  0.00000000000E+00  0.15441287033E+04  0.15441287033E+04  0.00000000000E+00 0. -1.
         -2   -1    0    0    0  501 -0.00000000000E+00 -0.00000000000E+00 -0.59251740903E+03  0.59251740903E+03  0.00000000000E+00 0.  1.
         23    2    1    2    0    0 -0.85314190622E+03  0.39803178818E+02  0.95333829824E+03  0.12825744597E+04  0.81901945010E+02 0.  0.
         11    1    3    3    0    0 -0.39601767352E+03  0.28549770544E+02  0.50254128857E+03  0.64046298398E+03  0.00000000000E+00 0. -1.
        -11    1    3    3    0    0 -0.45712423270E+03  0.11253408274E+02  0.45079700967E+03  0.64211147572E+03  0.00000000000E+00 0.  1.
         22    1    1    2    0    0  0.85314190622E+03 -0.39803178818E+02 -0.17270040204E+01  0.85407165258E+03  0.00000000000E+00 0. -1.
<mgrwt>
<rscale>  0 0.19130323E+04</rscale>
<asrwt>0</asrwt>
<pdfrwt beam="1">  1        2 0.23755826E+00 0.19130323E+04</pdfrwt>
<pdfrwt beam="2">  1       -2 0.91156525E-01 0.19130323E+04</pdfrwt>
<totfact> 0.11507514E+01</totfact>
</mgrwt>
</event>
<event>
 6    1  0.2238133E-007  0.2245740E+04  0.7818608E-02  0.8499628E-01
          2   -1    0    0  501    0  0.00000000000E+00  0.00000000000E+00  0.26115329490E+04  0.26115329490E+04  0.00000000000E+00 0. -1.
         -2   -1    0    0    0  501 -0.00000000000E+00 -0.00000000000E+00 -0.48279586731E+03  0.48279586731E+03  0.00000000000E+00 0.  1.
         23    2    1    2    0    0 -0.64634741477E+03  0.53256373943E+03  0.20928506113E+04  0.22560705292E+04  0.91877277996E+02 0.  0.
         11    1    3    3    0    0 -0.41679443920E+02  0.89295784884E+01  0.10434920310E+03  0.11271942869E+03  0.00000000000E+00 0. -1.
        -11    1    3    3    0    0 -0.60466797085E+03  0.52363416094E+03  0.19885014082E+04  0.21433511005E+04  0.00000000000E+00 0.  1.
         22    1    1    2    0    0  0.64634741477E+03 -0.53256373943E+03  0.35886470343E+02  0.83825828710E+03  0.00000000000E+00 0.  1.
<mgrwt>
<rscale>  0 0.22457402E+04</rscale>
<asrwt>0</asrwt>
<pdfrwt beam="1">  1        2 0.40177429E+00 0.22457402E+04</pdfrwt>
<pdfrwt beam="2">  1       -2 0.74276289E-01 0.22457402E+04</pdfrwt>
<totfact> 0.44520176E+00</totfact>
</mgrwt>
</event>
<event>
 6    1  0.2238133E-007  0.2231943E+04  0.7818608E-02  0.8505249E-01
         -2   -1    0    0    0  501 -0.00000000000E+00  0.00000000000E+00  0.84862046735E+03  0.84862046735E+03  0.00000000000E+00 0.  1.
          2   -1    0    0  501    0  0.00000000000E+00 -0.00000000000E+00 -0.14675490506E+04  0.14675490506E+04  0.00000000000E+00 0. -1.
         23    2    1    2    0    0  0.59685170235E+03 -0.37778231478E+03  0.58426059087E+03  0.92095784202E+03  0.88608559224E+02 0.  0.
         11    1    3    3    0    0  0.16343034276E+03 -0.10283426286E+03  0.11057778420E+03  0.22251249158E+03  0.00000000000E+00 0.  1.
        -11    1    3    3    0    0  0.43342135959E+03 -0.27494805192E+03  0.47368280667E+03  0.69844535043E+03  0.00000000000E+00 0. -1.
         22    1    1    2    0    0 -0.59685170235E+03  0.37778231478E+03 -0.12031891741E+04  0.13952116760E+04  0.00000000000E+00 0. -1.
<mgrwt>
<rscale>  0 0.22319428E+04</rscale>
<asrwt>0</asrwt>
<pdfrwt beam="1">  1        2 0.22577678E+00 0.22319428E+04</pdfrwt>
<pdfrwt beam="2">  1       -2 0.13055700E+00 0.22319428E+04</pdfrwt>
<totfact> 0.51875494E+00</totfact>
</mgrwt>
</event>
<event>
 6    1  0.2238133E-007  0.1188218E+04  0.7818608E-02  0.9123232E-01
          2   -1    0    0  501    0  0.00000000000E+00  0.00000000000E+00  0.22546469622E+04  0.22546469622E+04  0.00000000000E+00 0. -1.
         -2   -1    0    0    0  501 -0.00000000000E+00 -0.00000000000E+00 -0.15655033206E+03  0.15655033206E+03  0.00000000000E+00 0.  1.
         23    2    1    2    0    0  0.50064886066E+02 -0.58724478676E+03  0.11258444558E+04  0.12742552452E+04  0.94009355106E+02 0.  0.
         11    1    3    3    0    0  0.25825458356E+02 -0.20772430071E+03  0.49819686680E+03  0.54038547121E+03  0.00000000000E+00 0. -1.
        -11    1    3    3    0    0  0.24239427710E+02 -0.37952048605E+03  0.62764758903E+03  0.73386977401E+03  0.00000000000E+00 0.  1.
         22    1    1    2    0    0 -0.50064886066E+02  0.58724478676E+03  0.97225217427E+03  0.11369420490E+04  0.00000000000E+00 0.  1.
<mgrwt>
<rscale>  0 0.11882184E+04</rscale>
<asrwt>0</asrwt>
<pdfrwt beam="1">  1        2 0.34686874E+00 0.11882184E+04</pdfrwt>
<pdfrwt beam="2">  1       -2 0.24084668E-01 0.11882184E+04</pdfrwt>
<totfact> 0.73171148E+01</totfact>
</mgrwt>
</event>
<event>
 6    1  0.2238133E-007  0.2015492E+04  0.7818608E-02  0.8599412E-01
          2   -1    0    0  501    0  0.00000000000E+00  0.00000000000E+00  0.87492401717E+03  0.87492401717E+03  0.00000000000E+00 0. -1.
         -2   -1    0    0    0  501 -0.00000000000E+00 -0.00000000000E+00 -0.11607313831E+04  0.11607313831E+04  0.00000000000E+00 0.  1.
         23    2    1    2    0    0  0.40012331255E+03 -0.51569785138E+03  0.62953815987E+03  0.91142216346E+03  0.91264046308E+02 0.  0.
         13    1    3    3    0    0  0.26856023268E+03 -0.31101735555E+03  0.34096400461E+03  0.53395959254E+03  0.00000000000E+00 0. -1.
        -13    1    3    3    0    0  0.13156307987E+03 -0.20468049583E+03  0.28857415526E+03  0.37746257092E+03  0.00000000000E+00 0.  1.
         22    1    1    2    0    0 -0.40012331255E+03  0.51569785138E+03 -0.91534552585E+03  0.11242332369E+04  0.00000000000E+00 0.  1.
<mgrwt>
<rscale>  0 0.20154918E+04</rscale>
<asrwt>0</asrwt>
<pdfrwt beam="1">  1        2 0.13460370E+00 0.20154918E+04</pdfrwt>
<pdfrwt beam="2">  1       -2 0.17857406E+00 0.20154918E+04</pdfrwt>
<totfact> 0.52478991E+00</totfact>
</mgrwt>
</event>
<event>
 6    1  0.2238133E-007  0.1445852E+04  0.7818608E-02  0.8921281E-01
          2   -1    0    0  501    0  0.00000000000E+00  0.00000000000E+00  0.23474357134E+04  0.23474357134E+04  0.00000000000E+00 0. -1.
         -2   -1    0    0    0  501 -0.00000000000E+00 -0.00000000000E+00 -0.22263522603E+03  0.22263522603E+03  0.00000000000E+00 0.  1.
         23    2    1    2    0    0 -0.60043669356E+03 -0.39314940761E+03  0.95057682393E+03  0.11938834916E+04  0.81675049588E+02 0.  0.
         11    1    3    3    0    0 -0.34379201546E+03 -0.22833613607E+03  0.47911082619E+03  0.63235869939E+03  0.00000000000E+00 0.  1.
        -11    1    3    3    0    0 -0.25664467811E+03 -0.16481327154E+03  0.47146599774E+03  0.56152479224E+03  0.00000000000E+00 0. -1.
         22    1    1    2    0    0  0.60043669356E+03  0.39314940761E+03  0.11742236634E+04  0.13761874478E+04  0.00000000000E+00 0. -1.
<mgrwt>
<rscale>  0 0.14458518E+04</rscale>
<asrwt>0</asrwt>
<pdfrwt beam="1">  1        2 0.36114394E+00 0.14458518E+04</pdfrwt>
<pdfrwt beam="2">  1       -2 0.34251575E-01 0.14458518E+04</pdfrwt>
<totfact> 0.33069159E+01</totfact>
</mgrwt>
</event>
<event>
 6    1  0.2238133E-007  0.6462828E+04  0.7818608E-02  0.7635523E-01
         -2   -1    0    0    0  501 -0.00000000000E+00  0.00000000000E+00  0.25794973902E+04  0.25794973902E+04  0.00000000000E+00 0.  1.
          2   -1    0    0  501    0  0.00000000000E+00 -0.00000000000E+00 -0.40480891562E+04  0.40480891562E+04  0.00000000000E+00 0. -1.
         23    2    1    2    0    0  0.18545286076E+03 -0.30163021491E+04  0.43729571086E+03  0.30547895338E+04  0.89666823895E+02 0.  0.
         13    1    3    3    0    0  0.66808877103E+02 -0.16045265286E+04  0.20050150419E+03  0.16183848925E+04  0.00000000000E+00 0.  1.
        -13    1    3    3    0    0  0.11864398366E+03 -0.14117756205E+04  0.23679420666E+03  0.14364046414E+04  0.00000000000E+00 0. -1.
         22    1    1    2    0    0 -0.18545286076E+03  0.30163021491E+04 -0.19058874769E+04  0.35727970125E+04  0.00000000000E+00 0.  1.
<mgrwt>
<rscale>  0 0.64628277E+04</rscale>
<asrwt>0</asrwt>
<pdfrwt beam="1">  1        2 0.62278295E+00 0.64628277E+04</pdfrwt>
<pdfrwt beam="2">  1       -2 0.39684575E+00 0.64628277E+04</pdfrwt>
<totfact> 0.15725613E-03</totfact>
</mgrwt>
</event>
<event>
 6    1  0.2238133E-007  0.1732949E+04  0.7818608E-02  0.8742792E-01
         -1   -1    0    0    0  501 -0.00000000000E+00  0.00000000000E+00  0.32841868834E+03  0.32841868834E+03  0.00000000000E+00 0.  1.
          1   -1    0    0  501    0  0.00000000000E+00 -0.00000000000E+00 -0.22860385977E+04  0.22860385977E+04  0.00000000000E+00 0. -1.
         23    2    1    2    0    0  0.36285437106E+03 -0.68222514289E+03 -0.15649180657E+04  0.17476763574E+04  0.91157324073E+02 0.  0.
         11    1    3    3    0    0  0.17908976934E+03 -0.43101940168E+03 -0.92603388988E+03  0.10370099495E+04  0.00000000000E+00 0.  1.
        -11    1    3    3    0    0  0.18376460172E+03 -0.25120574120E+03 -0.63888417583E+03  0.71066640795E+03  0.00000000000E+00 0. -1.
         22    1    1    2    0    0 -0.36285437106E+03  0.68222514289E+03 -0.39270184361E+03  0.86678092859E+03  0.00000000000E+00 0.  1.
<mgrwt>
<rscale>  0 0.17329487E+04</rscale>
<asrwt>0</asrwt>
<pdfrwt beam="1">  1        1 0.35169824E+00 0.17329487E+04</pdfrwt>
<pdfrwt beam="2">  1       -1 0.50525952E-01 0.17329487E+04</pdfrwt>
<totfact> 0.71093110E+00</totfact>
</mgrwt>
</event>
<event>
 6    1  0.2238133E-007  0.5225216E+04  0.7818608E-02  0.7794674E-01
          2   -1    0    0  501    0  0.00000000000E+00  0.00000000000E+00  0.30076530942E+04  0.30076530942E+04  0.00000000000E+00 0. -1.
         -2   -1    0    0    0  501 -0.00000000000E+00 -0.00000000000E+00 -0.22694507642E+04  0.22694507642E+04  0.00000000000E+00 0.  1.
         23    2    1    2    0    0  0.23628782669E+04  0.10275078347E+04 -0.62468516780E+02  0.25789489593E+04  0.90052011937E+02 0.  0.
         13    1    3    3    0    0  0.64661221699E+03  0.30918859425E+03 -0.48512336054E+02  0.71837204339E+03  0.00000000000E+00 0. -1.
        -13    1    3    3    0    0  0.17162660499E+04  0.71831924048E+03 -0.13956180727E+02  0.18605769159E+04  0.00000000000E+00 0.  1.
         22    1    1    2    0    0 -0.23628782669E+04 -0.10275078347E+04  0.80067084671E+03  0.26981548990E+04  0.00000000000E+00 0. -1.
<mgrwt>
<rscale>  0 0.52252160E+04</rscale>
<asrwt>0</asrwt>
<pdfrwt beam="1">  1        2 0.46271586E+00 0.52252160E+04</pdfrwt>
<pdfrwt beam="2">  1       -2 0.34914627E+00 0.52252160E+04</pdfrwt>
<totfact> 0.19391330E-02</totfact>
</mgrwt>
</event>
<event>
 6    1  0.2632280E-007  0.3869230E+04  0.7818608E-02  0.8031459E-01
         -2   -1    0    0    0  501 -0.00000000000E+00  0.00000000000E+00  0.12741163457E+04  0.12741163457E+04  0.00000000000E+00 0.  1.
          2   -1    0    0  501    0  0.00000000000E+00 -0.00000000000E+00 -0.29375137718E+04  0.29375137718E+04  0.00000000000E+00 0. -1.
         23    2    1    2    0    0  0.93531302470E+02  0.18994963512E+04 -0.12116929461E+04  0.22569251705E+04  0.93150075906E+02 0.  0.
         13    1    3    3    0    0 -0.98751773374E+01  0.63491822258E+03 -0.38584429495E+03  0.74303061070E+03  0.00000000000E+00 0. -1.
        -13    1    3    3    0    0  0.10340647981E+03  0.12645781286E+04 -0.82584865116E+03  0.15138945598E+04  0.00000000000E+00 0.  1.
         22    1    1    2    0    0 -0.93531302470E+02 -0.18994963512E+04 -0.45170447996E+03  0.19547049470E+04  0.00000000000E+00 0.  1.
<mgrwt>
<rscale>  0 0.38692295E+04</rscale>
<asrwt>0</asrwt>
<pdfrwt beam="1">  1        2 0.45192520E+00 0.38692295E+04</pdfrwt>
<pdfrwt beam="2">  1       -2 0.19601790E+00 0.38692295E+04</pdfrwt>
<totfact> 0.21445674E-01</totfact>
</mgrwt>
</event>
<event>
 6    1  0.2238133E-007  0.1110526E+04  0.7818608E-02  0.9194993E-01
         -2   -1    0    0    0  501 -0.00000000000E+00  0.00000000000E+00  0.31558180029E+03  0.31558180029E+03  0.00000000000E+00 0.  1.
          2   -1    0    0  501    0  0.00000000000E+00 -0.00000000000E+00 -0.97697965681E+03  0.97697965681E+03  0.00000000000E+00 0. -1.
         23    2    1    2    0    0  0.17786296784E+03  0.30569482174E+03  0.15922510629E+03  0.39896948844E+03  0.93485072948E+02 0.  0.
         11    1    3    3    0    0  0.11443025115E+03  0.25527509044E+03  0.14997062874E+03  0.31741273393E+03  0.00000000000E+00 0.  1.
        -11    1    3    3    0    0  0.63432716685E+02  0.50419731305E+02  0.92544775444E+01  0.81556754506E+02  0.00000000000E+00 0. -1.
         22    1    1    2    0    0 -0.17786296784E+03 -0.30569482174E+03 -0.82062296281E+03  0.89359196867E+03  0.00000000000E+00 0. -1.
<mgrwt>
<rscale>  0 0.11105260E+04</rscale>
<asrwt>0</asrwt>
<pdfrwt beam="1">  1        2 0.15030456E+00 0.11105260E+04</pdfrwt>
<pdfrwt beam="2">  1       -2 0.48551047E-01 0.11105260E+04</pdfrwt>
<totfact> 0.10389858E+02</totfact>
</mgrwt>
</event>
<event>
 6    1  0.2238133E-007  0.1696987E+04  0.7818608E-02  0.8763085E-01
          2   -1    0    0  501    0  0.00000000000E+00  0.00000000000E+00  0.11663579716E+04  0.11663579716E+04  0.00000000000E+00 0. -1.
         -2   -1    0    0    0  501 -0.00000000000E+00 -0.00000000000E+00 -0.61725570158E+03  0.61725570158E+03  0.00000000000E+00 0.  1.
         23    2    1    2    0    0  0.64167850909E+03  0.43410184551E+03 -0.81873850452E+02  0.78445073055E+03  0.91999456320E+02 0.  0.
         13    1    3    3    0    0  0.34127180920E+03  0.26507151176E+03 -0.94334391943E+01  0.43222487652E+03  0.00000000000E+00 0. -1.
        -13    1    3    3    0    0  0.30040669989E+03  0.16903033375E+03 -0.72440411257E+02  0.35222585403E+03  0.00000000000E+00 0.  1.
         22    1    1    2    0    0 -0.64167850909E+03 -0.43410184551E+03  0.63097612048E+03  0.99916294263E+03  0.00000000000E+00 0.  1.
<mgrwt>
<rscale>  0 0.16969869E+04</rscale>
<asrwt>0</asrwt>
<pdfrwt beam="1">  1        2 0.17943969E+00 0.16969869E+04</pdfrwt>
<pdfrwt beam="2">  1       -2 0.94962416E-01 0.16969869E+04</pdfrwt>
<totfact> 0.17622440E+01</totfact>
</mgrwt>
</event>
<event>
 6    1  0.2238133E-007  0.1085361E+04  0.7818608E-02  0.9219579E-01
         -1   -1    0    0    0  501 -0.00000000000E+00  0.00000000000E+00  0.15083989917E+04  0.15083989917E+04  0.00000000000E+00 0.  1.
          1   -1    0    0  501    0  0.00000000000E+00 -0.00000000000E+00 -0.19524138621E+03  0.19524138621E+03  0.00000000000E+00 0. -1.
         23    2    1    2    0    0  0.33506556465E+03  0.54602671026E+02  0.13178843308E+04  0.13641220040E+04  0.93591388969E+02 0.  0.
         13    1    3    3    0    0  0.27412049681E+03  0.75935941103E+02  0.11376407229E+04  0.11726613869E+04  0.00000000000E+00 0. -1.
        -13    1    3    3    0    0  0.60945067837E+02 -0.21333270077E+02  0.18024360790E+03  0.19146061709E+03  0.00000000000E+00 0.  1.
         22    1    1    2    0    0 -0.33506556465E+03 -0.54602671026E+02 -0.47267253116E+01  0.33951837392E+03  0.00000000000E+00 0. -1.
<mgrwt>
<rscale>  0 0.10853606E+04</rscale>
<asrwt>0</asrwt>
<pdfrwt beam="1">  1        1 0.30037137E-01 0.10853606E+04</pdfrwt>
<pdfrwt beam="2">  1       -1 0.23206138E+00 0.10853606E+04</pdfrwt>
<totfact> 0.14046160E+01</totfact>
</mgrwt>
</event>
<event>
 6    1  0.2238133E-007  0.4302862E+04  0.7818608E-02  0.7946089E-01
          2   -1    0    0  501    0  0.00000000000E+00  0.00000000000E+00  0.23363421356E+04  0.23363421356E+04  0.00000000000E+00 0. -1.
         -2   -1    0    0    0  501 -0.00000000000E+00 -0.00000000000E+00 -0.19811543328E+04  0.19811543328E+04  0.00000000000E+00 0.  1.
         23    2    1    2    0    0 -0.21210505691E+04 -0.31765814095E+03  0.21586490741E+02  0.21470006618E+04  0.96869262408E+02 0.  0.
         11    1    3    3    0    0 -0.11036055261E+04 -0.20708848578E+03  0.36420911820E+02  0.11234577344E+04  0.00000000000E+00 0. -1.
        -11    1    3    3    0    0 -0.10174450430E+04 -0.11056965517E+03 -0.14834421079E+02  0.10235429274E+04  0.00000000000E+00 0.  1.
         22    1    1    2    0    0  0.21210505691E+04  0.31765814095E+03  0.33360131202E+03  0.21704958066E+04  0.00000000000E+00 0. -1.
<mgrwt>
<rscale>  0 0.43028615E+04</rscale>
<asrwt>0</asrwt>
<pdfrwt beam="1">  1        2 0.35943725E+00 0.43028615E+04</pdfrwt>
<pdfrwt beam="2">  1       -2 0.30479297E+00 0.43028615E+04</pdfrwt>
<totfact> 0.98859552E-02</totfact>
</mgrwt>
</event>
<event>
 6    1  0.2238133E-007  0.2183828E+04  0.7818608E-02  0.8525189E-01
         -2   -1    0    0    0  501 -0.00000000000E+00  0.00000000000E+00  0.61423450080E+03  0.61423450080E+03  0.00000000000E+00 0.  1.
          2   -1    0    0  501    0  0.00000000000E+00 -0.00000000000E+00 -0.19410771200E+04  0.19410771200E+04  0.00000000000E+00 0. -1.
         23    2    1    2    0    0 -0.37015840945E+02  0.19860967658E+03 -0.19179180341E+04  0.19306628218E+04  0.90737919899E+02 0.  0.
         11    1    3    3    0    0  0.17805709011E+02  0.28156096661E+02 -0.14759036627E+03  0.15130342121E+03  0.00000000000E+00 0.  1.
        -11    1    3    3    0    0 -0.54821549956E+02  0.17045357992E+03 -0.17703276678E+04  0.17793594006E+04  0.00000000000E+00 0. -1.
         22    1    1    2    0    0  0.37015840945E+02 -0.19860967658E+03  0.59107541481E+03  0.62464879901E+03  0.00000000000E+00 0.  1.
<mgrwt>
<rscale>  0 0.21838283E+04</rscale>
<asrwt>0</asrwt>
<pdfrwt beam="1">  1        2 0.29862725E+00 0.21838283E+04</pdfrwt>
<pdfrwt beam="2">  1       -2 0.94497615E-01 0.21838283E+04</pdfrwt>
<totfact> 0.62221466E+00</totfact>
</mgrwt>
</event>
<event>
 6    1  0.2238133E-007  0.2800923E+04  0.7818608E-02  0.8302982E-01
         -2   -1    0    0    0  501 -0.00000000000E+00  0.00000000000E+00  0.76098868553E+03  0.76098868553E+03  0.00000000000E+00 0.  1.
          2   -1    0    0  501    0  0.00000000000E+00 -0.00000000000E+00 -0.25772946880E+04  0.25772946880E+04  0.00000000000E+00 0. -1.
         23    2    1    2    0    0 -0.19547523940E+03  0.11245119267E+03 -0.25546942798E+04  0.25662256761E+04  0.90529098607E+02 0.  0.
         13    1    3    3    0    0 -0.20315791311E+03  0.99596710739E+02 -0.24562504285E+04  0.24666493082E+04  0.00000000000E+00 0.  1.
        -13    1    3    3    0    0  0.76826737122E+01  0.12854481931E+02 -0.98443851327E+02  0.99576367905E+02  0.00000000000E+00 0. -1.
         22    1    1    2    0    0  0.19547523940E+03 -0.11245119267E+03  0.73838827734E+03  0.77205769737E+03  0.00000000000E+00 0.  1.
<mgrwt>
<rscale>  0 0.28009228E+04</rscale>
<asrwt>0</asrwt>
<pdfrwt beam="1">  1        2 0.39650687E+00 0.28009228E+04</pdfrwt>
<pdfrwt beam="2">  1       -2 0.11707518E+00 0.28009228E+04</pdfrwt>
<totfact> 0.15405778E+00</totfact>
</mgrwt>
</event>
<event>
 6    1  0.2238133E-007  0.2641557E+04  0.7818608E-02  0.8354221E-01
         -2   -1    0    0    0  501 -0.00000000000E+00  0.00000000000E+00  0.10923571088E+04  0.10923571088E+04  0.00000000000E+00 0.  1.
          2   -1    0    0  501    0  0.00000000000E+00 -0.00000000000E+00 -0.15969649475E+04  0.15969649475E+04  0.00000000000E+00 0. -1.
         23    2    1    2    0    0 -0.88661659774E+03 -0.49278436355E+03  0.60610085062E+03  0.11851281815E+04  0.90802780995E+02 0.  0.
         11    1    3    3    0    0 -0.31945345932E+03 -0.16266504532E+03  0.26296785909E+03  0.44459253767E+03  0.00000000000E+00 0.  1.
        -11    1    3    3    0    0 -0.56716313842E+03 -0.33011931823E+03  0.34313299153E+03  0.74053564379E+03  0.00000000000E+00 0. -1.
         22    1    1    2    0    0  0.88661659774E+03  0.49278436355E+03 -0.11107086894E+04  0.15041938748E+04  0.00000000000E+00 0. -1.
<mgrwt>
<rscale>  0 0.26415571E+04</rscale>
<asrwt>0</asrwt>
<pdfrwt beam="1">  1        2 0.24568691E+00 0.26415571E+04</pdfrwt>
<pdfrwt beam="2">  1       -2 0.16805494E+00 0.26415571E+04</pdfrwt>
<totfact> 0.21722432E+00</totfact>
</mgrwt>
</event>
<event>
 6    1  0.2238133E-007  0.1365453E+04  0.7818608E-02  0.8979212E-01
          2   -1    0    0  501    0  0.00000000000E+00  0.00000000000E+00  0.27116580700E+03  0.27116580700E+03  0.00000000000E+00 0. -1.
         -2   -1    0    0    0  501 -0.00000000000E+00 -0.00000000000E+00 -0.17189320593E+04  0.17189320593E+04  0.00000000000E+00 0.  1.
         23    2    1    2    0    0  0.54485800617E+03  0.15097428279E+03 -0.17709862941E+03  0.59932121680E+03  0.90324500676E+02 0.  0.
         13    1    3    3    0    0  0.16600584808E+03  0.81867662633E+02 -0.32284050886E+02  0.18788963708E+03  0.00000000000E+00 0. -1.
        -13    1    3    3    0    0  0.37885215809E+03  0.69106620155E+02 -0.14481457852E+03  0.41143157972E+03  0.00000000000E+00 0.  1.
         22    1    1    2    0    0 -0.54485800617E+03 -0.15097428279E+03 -0.12706676229E+04  0.13907766495E+04  0.00000000000E+00 0.  1.
<mgrwt>
<rscale>  0 0.13654532E+04</rscale>
<asrwt>0</asrwt>
<pdfrwt beam="1">  1        2 0.41717816E-01 0.13654532E+04</pdfrwt>
<pdfrwt beam="2">  1       -2 0.26445109E+00 0.13654532E+04</pdfrwt>
<totfact> 0.62987563E+00</totfact>
</mgrwt>
</event>
<event>
 6    1  0.2238133E-007  0.2564207E+04  0.7818608E-02  0.8380462E-01
         -2   -1    0    0    0  501 -0.00000000000E+00  0.00000000000E+00  0.15130105484E+04  0.15130105484E+04  0.00000000000E+00 0.  1.
          2   -1    0    0  501    0  0.00000000000E+00 -0.00000000000E+00 -0.10864364407E+04  0.10864364407E+04  0.00000000000E+00 0. -1.
         23    2    1    2    0    0 -0.70797215132E+03  0.10564723057E+04  0.62033860505E+02  0.12764776427E+04  0.90491284281E+02 0.  0.
         13    1    3    3    0    0 -0.49819385532E+03  0.70738759975E+03  0.79330461023E+02  0.86884271062E+03  0.00000000000E+00 0. -1.
        -13    1    3    3    0    0 -0.20977829599E+03  0.34908470600E+03 -0.17296600518E+02  0.40763493204E+03  0.00000000000E+00 0.  1.
         22    1    1    2    0    0  0.70797215132E+03 -0.10564723057E+04  0.36454024717E+03  0.13229693465E+04  0.00000000000E+00 0. -1.
<mgrwt>
<rscale>  0 0.25642073E+04</rscale>
<asrwt>0</asrwt>
<pdfrwt beam="1">  1        2 0.16714407E+00 0.25642073E+04</pdfrwt>
<pdfrwt beam="2">  1       -2 0.23277085E+00 0.25642073E+04</pdfrwt>
<totfact> 0.16187630E+00</totfact>
</mgrwt>
</event>
<event>
 6    1  0.2238133E-007  0.1122276E+04  0.7818608E-02  0.9183748E-01
          2   -1    0    0  501    0  0.00000000000E+00  0.00000000000E+00  0.12292463447E+04  0.12292463447E+04  0.00000000000E+00 0. -1.
         -2   -1    0    0    0  501 -0.00000000000E+00 -0.00000000000E+00 -0.25615357396E+03  0.25615357396E+03  0.00000000000E+00 0.  1.
         23    2    1    2    0    0  0.60373275982E+02  0.33655811899E+03 -0.92999473571E+02  0.36581563273E+03  0.90861846522E+02 0.  0.
         13    1    3    3    0    0  0.58903509545E+02  0.15306720461E+03 -0.96989284317E+01  0.16429626221E+03  0.00000000000E+00 0. -1.
        -13    1    3    3    0    0  0.14697664370E+01  0.18349091438E+03 -0.83300545139E+02  0.20151937052E+03  0.00000000000E+00 0.  1.
         22    1    1    2    0    0 -0.60373275982E+02 -0.33655811899E+03  0.10660922443E+04  0.11195842859E+04  0.00000000000E+00 0. -1.
<mgrwt>
<rscale>  0 0.11222760E+04</rscale>
<asrwt>0</asrwt>
<pdfrwt beam="1">  1        2 0.18911482E+00 0.11222760E+04</pdfrwt>
<pdfrwt beam="2">  1       -2 0.39408243E-01 0.11222760E+04</pdfrwt>
<totfact> 0.10977672E+02</totfact>
</mgrwt>
</event>
<event>
 6    1  0.2238133E-007  0.9714833E+03  0.7818608E-02  0.9340386E-01
          2   -1    0    0  501    0  0.00000000000E+00  0.00000000000E+00  0.53920058003E+03  0.53920058003E+03  0.00000000000E+00 0. -1.
         -2   -1    0    0    0  501 -0.00000000000E+00 -0.00000000000E+00 -0.43758293168E+03  0.43758293168E+03  0.00000000000E+00 0.  1.
         23    2    1    2    0    0  0.16556552854E+03 -0.37386254037E+03 -0.20434632587E+03  0.46609858257E+03  0.91133552750E+02 0.  0.
         11    1    3    3    0    0  0.14846663010E+03 -0.35790457071E+03 -0.21175655169E+03  0.44156410539E+03  0.00000000000E+00 0. -1.
        -11    1    3    3    0    0  0.17098898437E+02 -0.15957969666E+02  0.74102258140E+01  0.24534477175E+02  0.00000000000E+00 0.  1.
         22    1    1    2    0    0 -0.16556552854E+03  0.37386254037E+03  0.30596397423E+03  0.51068492915E+03  0.00000000000E+00 0. -1.
<mgrwt>
<rscale>  0 0.97148334E+03</rscale>
<asrwt>0</asrwt>
<pdfrwt beam="1">  1        2 0.82953936E-01 0.97148334E+03</pdfrwt>
<pdfrwt beam="2">  1       -2 0.67320451E-01 0.97148334E+03</pdfrwt>
<totfact> 0.11413464E+02</totfact>
</mgrwt>
</event>
<event>
 6    1  0.2238133E-007  0.2200189E+04  0.7818608E-02  0.8518349E-01
         -2   -1    0    0    0  501 -0.00000000000E+00  0.00000000000E+00  0.61340476479E+03  0.61340476479E+03  0.00000000000E+00 0.  1.
          2   -1    0    0  501    0  0.00000000000E+00 -0.00000000000E+00 -0.19729360029E+04  0.19729360029E+04  0.00000000000E+00 0. -1.
         23    2    1    2    0    0  0.99993275667E+02 -0.63537538531E+03  0.36543044937E+03  0.74536457048E+03  0.91260035922E+02 0.  0.
         11    1    3    3    0    0  0.39049005685E+02 -0.13526087705E+03  0.11982085778E+03  0.18487121913E+03  0.00000000000E+00 0. -1.
        -11    1    3    3    0    0  0.60944269982E+02 -0.50011450826E+03  0.24560959159E+03  0.56049335134E+03  0.00000000000E+00 0.  1.
         22    1    1    2    0    0 -0.99993275667E+02  0.63537538531E+03 -0.17249616875E+04  0.18409761972E+04  0.00000000000E+00 0. -1.
<mgrwt>
<rscale>  0 0.22001894E+04</rscale>
<asrwt>0</asrwt>
<pdfrwt beam="1">  1        2 0.30352861E+00 0.22001894E+04</pdfrwt>
<pdfrwt beam="2">  1       -2 0.94369965E-01 0.22001894E+04</pdfrwt>
<totfact> 0.59842999E+00</totfact>
</mgrwt>
</event>
<event>
 6    1  0.2238133E-007  0.1773179E+04  0.7818608E-02  0.8720694E-01
         -2   -1    0    0    0  501 -0.00000000000E+00  0.00000000000E+00  0.24048239714E+03  0.24048239714E+03  0.00000000000E+00 0.  1.
          2   -1    0    0  501    0  0.00000000000E+00 -0.00000000000E+00 -0.32686008625E+04  0.32686008625E+04  0.00000000000E+00 0. -1.
         23    2    1    2    0    0 -0.58734862043E+03  0.94431806536E+02 -0.28128332828E+04  0.28764352708E+04  0.89179717734E+02 0.  0.
         11    1    3    3    0    0 -0.30516783208E+02  0.11824744636E+02 -0.27372124631E+03  0.27567085323E+03  0.00000000000E+00 0.  1.
        -11    1    3    3    0    0 -0.55683183722E+03  0.82607061899E+02 -0.25391120365E+04  0.26007644175E+04  0.00000000000E+00 0. -1.
         22    1    1    2    0    0  0.58734862043E+03 -0.94431806536E+02 -0.21528518257E+03  0.63264798889E+03  0.00000000000E+00 0.  1.
<mgrwt>
<rscale>  0 0.17731790E+04</rscale>
<asrwt>0</asrwt>
<pdfrwt beam="1">  1        2 0.50286165E+00 0.17731790E+04</pdfrwt>
<pdfrwt beam="2">  1       -2 0.36997294E-01 0.17731790E+04</pdfrwt>
<totfact> 0.76610195E+00</totfact>
</mgrwt>
</event>
<event>
 6    1  0.2238133E-007  0.4518035E+04  0.7818608E-02  0.7907487E-01
         -2   -1    0    0    0  501 -0.00000000000E+00  0.00000000000E+00  0.17499296856E+04  0.17499296856E+04  0.00000000000E+00 0.  1.
          2   -1    0    0  501    0  0.00000000000E+00 -0.00000000000E+00 -0.29162081162E+04  0.29162081162E+04  0.00000000000E+00 0. -1.
         23    2    1    2    0    0  0.19654804433E+04  0.80897526493E+03  0.20411843443E+03  0.21371969326E+04  0.91608083988E+02 0.  0.
         13    1    3    3    0    0  0.88741108665E+03  0.39759293949E+03  0.58728055348E+02  0.97418045902E+03  0.00000000000E+00 0. -1.
        -13    1    3    3    0    0  0.10780693567E+04  0.41138232544E+03  0.14539037908E+03  0.11630164736E+04  0.00000000000E+00 0.  1.
         22    1    1    2    0    0 -0.19654804433E+04 -0.80897526493E+03 -0.13703968650E+04  0.25289408692E+04  0.00000000000E+00 0.  1.
<mgrwt>
<rscale>  0 0.45180346E+04</rscale>
<asrwt>0</asrwt>
<pdfrwt beam="1">  1        2 0.44864740E+00 0.45180346E+04</pdfrwt>
<pdfrwt beam="2">  1       -2 0.26921995E+00 0.45180346E+04</pdfrwt>
<totfact> 0.72762747E-02</totfact>
</mgrwt>
</event>
<event>
 6    1  0.2238133E-007  0.2284745E+04  0.7818608E-02  0.8483960E-01
         -2   -1    0    0    0  501 -0.00000000000E+00  0.00000000000E+00  0.62454050150E+03  0.62454050150E+03  0.00000000000E+00 0.  1.
          2   -1    0    0  501    0  0.00000000000E+00 -0.00000000000E+00 -0.20895594025E+04  0.20895594025E+04  0.00000000000E+00 0. -1.
         23    2    1    2    0    0 -0.44505294811E+03 -0.65761068893E+03 -0.17062734518E+04  0.18842037038E+04  0.91271903341E+02 0.  0.
         13    1    3    3    0    0 -0.42601278979E+03 -0.62667680045E+03 -0.16643365788E+04  0.18287227665E+04  0.00000000000E+00 0.  1.
        -13    1    3    3    0    0 -0.19040158319E+02 -0.30933888481E+02 -0.41936873002E+02  0.55480937290E+02  0.00000000000E+00 0. -1.
         22    1    1    2    0    0  0.44505294811E+03  0.65761068893E+03  0.24125455079E+03  0.82989620019E+03  0.00000000000E+00 0.  1.
<mgrwt>
<rscale>  0 0.22847446E+04</rscale>
<asrwt>0</asrwt>
<pdfrwt beam="1">  1        2 0.32147067E+00 0.22847446E+04</pdfrwt>
<pdfrwt beam="2">  1       -2 0.96083155E-01 0.22847446E+04</pdfrwt>
<totfact> 0.49058341E+00</totfact>
</mgrwt>
</event>
<event>
 6    1  0.2238133E-007  0.1443938E+04  0.7818608E-02  0.8922614E-01
          1   -1    0    0  501    0  0.00000000000E+00  0.00000000000E+00  0.30742911008E+03  0.30742911008E+03  0.00000000000E+00 0. -1.
         -1   -1    0    0    0  501 -0.00000000000E+00 -0.00000000000E+00 -0.16954768341E+04  0.16954768341E+04  0.00000000000E+00 0.  1.
         23    2    1    2    0    0  0.44192167086E+03  0.47247568582E+03 -0.11318474828E+04  0.13070851336E+04  0.94152988706E+02 0.  0.
         13    1    3    3    0    0  0.23353533074E+03  0.22150405077E+03 -0.64809793625E+03  0.72362540737E+03  0.00000000000E+00 0. -1.
        -13    1    3    3    0    0  0.20838634012E+03  0.25097163505E+03 -0.48374954655E+03  0.58345972623E+03  0.00000000000E+00 0.  1.
         22    1    1    2    0    0 -0.44192167086E+03 -0.47247568582E+03 -0.25620024126E+03  0.69582081062E+03  0.00000000000E+00 0. -1.
<mgrwt>
<rscale>  0 0.14439376E+04</rscale>
<asrwt>0</asrwt>
<pdfrwt beam="1">  1        1 0.47296785E-01 0.14439376E+04</pdfrwt>
<pdfrwt beam="2">  1       -1 0.26084259E+00 0.14439376E+04</pdfrwt>
<totfact> 0.48947260E+00</totfact>
</mgrwt>
</event>
<event>
 6    1  0.2238133E-007  0.2708421E+04  0.7818608E-02  0.8332278E-01
         -2   -1    0    0    0  501 -0.00000000000E+00  0.00000000000E+00  0.10208937451E+04  0.10208937451E+04  0.00000000000E+00 0.  1.
          2   -1    0    0  501    0  0.00000000000E+00 -0.00000000000E+00 -0.17963533038E+04  0.17963533038E+04  0.00000000000E+00 0. -1.
         23    2    1    2    0    0  0.71213259029E+02  0.13482100614E+04 -0.47524991615E+03  0.14341825068E+04  0.90968578585E+02 0.  0.
         13    1    3    3    0    0  0.25518784704E+02  0.90159545446E+03 -0.35597989092E+03  0.96966347493E+03  0.00000000000E+00 0.  1.
        -13    1    3    3    0    0  0.45694474325E+02  0.44661460691E+03 -0.11927002523E+03  0.46451903192E+03  0.00000000000E+00 0. -1.
         22    1    1    2    0    0 -0.71213259029E+02 -0.13482100614E+04 -0.30020964259E+03  0.13830645420E+04  0.00000000000E+00 0. -1.
<mgrwt>
<rscale>  0 0.27084208E+04</rscale>
<asrwt>0</asrwt>
<pdfrwt beam="1">  1        2 0.27636205E+00 0.27084208E+04</pdfrwt>
<pdfrwt beam="2">  1       -2 0.15706058E+00 0.27084208E+04</pdfrwt>
<totfact> 0.20136225E+00</totfact>
</mgrwt>
</event>
<event>
 6    1  0.2238133E-007  0.9477650E+03  0.7818608E-02  0.9367767E-01
         -2   -1    0    0    0  501 -0.00000000000E+00  0.00000000000E+00  0.15805447370E+03  0.15805447370E+03  0.00000000000E+00 0.  1.
          2   -1    0    0  501    0  0.00000000000E+00 -0.00000000000E+00 -0.14208052432E+04  0.14208052432E+04  0.00000000000E+00 0. -1.
         23    2    1    2    0    0 -0.14799093805E+03  0.31249123738E+03 -0.10662637303E+03  0.37213865912E+03  0.86982222327E+02 0.  0.
         11    1    3    3    0    0 -0.10886501348E+03  0.14310840756E+03 -0.77810373819E+02  0.19592361202E+03  0.00000000000E+00 0.  1.
        -11    1    3    3    0    0 -0.39125924566E+02  0.16938282983E+03 -0.28815999208E+02  0.17621504710E+03  0.00000000000E+00 0. -1.
         22    1    1    2    0    0  0.14799093805E+03 -0.31249123738E+03 -0.11561243965E+04  0.12067210578E+04  0.00000000000E+00 0. -1.
<mgrwt>
<rscale>  0 0.94776500E+03</rscale>
<asrwt>0</asrwt>
<pdfrwt beam="1">  1        2 0.21858544E+00 0.94776500E+03</pdfrwt>
<pdfrwt beam="2">  1       -2 0.24316071E-01 0.94776500E+03</pdfrwt>
<totfact> 0.21235173E+02</totfact>
</mgrwt>
</event>
<event>
 6    1  0.2238133E-007  0.3785150E+04  0.7818608E-02  0.8049349E-01
         -2   -1    0    0    0  501 -0.00000000000E+00  0.00000000000E+00  0.15111978261E+04  0.15111978261E+04  0.00000000000E+00 0.  1.
          2   -1    0    0  501    0  0.00000000000E+00 -0.00000000000E+00 -0.23701991092E+04  0.23701991092E+04  0.00000000000E+00 0. -1.
         23    2    1    2    0    0  0.57542974994E+03 -0.10511379666E+04 -0.19304088066E+04  0.22739379146E+04  0.91132084280E+02 0.  0.
         11    1    3    3    0    0  0.15301885855E+03 -0.33754082198E+03 -0.53770883444E+03  0.65305387849E+03  0.00000000000E+00 0.  1.
        -11    1    3    3    0    0  0.42241089138E+03 -0.71359714464E+03 -0.13926999722E+04  0.16208840361E+04  0.00000000000E+00 0. -1.
         22    1    1    2    0    0 -0.57542974994E+03  0.10511379666E+04  0.10714075235E+04  0.16074590208E+04  0.00000000000E+00 0.  1.
<mgrwt>
<rscale>  0 0.37851498E+04</rscale>
<asrwt>0</asrwt>
<pdfrwt beam="1">  1        2 0.36464602E+00 0.37851498E+04</pdfrwt>
<pdfrwt beam="2">  1       -2 0.23249197E+00 0.37851498E+04</pdfrwt>
<totfact> 0.27380466E-01</totfact>
</mgrwt>
</event>
<event>
 6    1  0.2238133E-007  0.1782719E+04  0.7818608E-02  0.8715544E-01
         -1   -1    0    0    0  501 -0.00000000000E+00  0.00000000000E+00  0.44129487821E+03  0.44129487821E+03  0.00000000000E+00 0.  1.
          1   -1    0    0  501    0  0.00000000000E+00 -0.00000000000E+00 -0.18004319754E+04  0.18004319754E+04  0.00000000000E+00 0. -1.
         23    2    1    2    0    0  0.59440670971E+02  0.34609780599E+03  0.34551151898E+03  0.50128329254E+03  0.92681416470E+02 0.  0.
         11    1    3    3    0    0  0.37456403811E+02  0.30459627643E+03  0.25378238386E+03  0.39823030040E+03  0.00000000000E+00 0.  1.
        -11    1    3    3    0    0  0.21984267159E+02  0.41501529551E+02  0.91729135126E+02  0.10305299214E+03  0.00000000000E+00 0. -1.
         22    1    1    2    0    0 -0.59440670971E+02 -0.34609780599E+03 -0.17046486161E+04  0.17404435610E+04  0.00000000000E+00 0. -1.
<mgrwt>
<rscale>  0 0.17827186E+04</rscale>
<asrwt>0</asrwt>
<pdfrwt beam="1">  1        1 0.27698953E+00 0.17827186E+04</pdfrwt>
<pdfrwt beam="2">  1       -1 0.67891520E-01 0.17827186E+04</pdfrwt>
<totfact> 0.84512132E+00</totfact>
</mgrwt>
</event>
<event>
 6    1  0.2238133E-007  0.9895037E+03  0.7818608E-02  0.9320132E-01
         -2   -1    0    0    0  501 -0.00000000000E+00  0.00000000000E+00  0.23257736329E+03  0.23257736329E+03  0.00000000000E+00 0.  1.
          2   -1    0    0  501    0  0.00000000000E+00 -0.00000000000E+00 -0.10524644704E+04  0.10524644704E+04  0.00000000000E+00 0. -1.
         23    2    1    2    0    0  0.35872142956E+03 -0.15593966075E+03 -0.79750161834E+03  0.89325190031E+03  0.94296788551E+02 0.  0.
         11    1    3    3    0    0  0.26254396067E+03 -0.12623404833E+03 -0.67158371658E+03  0.73204443487E+03  0.00000000000E+00 0. -1.
        -11    1    3    3    0    0  0.96177468887E+02 -0.29705612413E+02 -0.12591790176E+03  0.16120746544E+03  0.00000000000E+00 0.  1.
         22    1    1    2    0    0 -0.35872142956E+03  0.15593966075E+03 -0.22385488794E+02  0.39178993342E+03  0.00000000000E+00 0.  1.
<mgrwt>
<rscale>  0 0.98950374E+03</rscale>
<asrwt>0</asrwt>
<pdfrwt beam="1">  1        2 0.16191762E+00 0.98950374E+03</pdfrwt>
<pdfrwt beam="2">  1       -2 0.35781132E-01 0.98950374E+03</pdfrwt>
<totfact> 0.17087875E+02</totfact>
</mgrwt>
</event>
<event>
 6    1  0.2238133E-007  0.1241338E+04  0.7818608E-02  0.9077423E-01
          2   -1    0    0  501    0  0.00000000000E+00  0.00000000000E+00  0.84208935003E+03  0.84208935003E+03  0.00000000000E+00 0. -1.
         -2   -1    0    0    0  501 -0.00000000000E+00 -0.00000000000E+00 -0.45746935277E+03  0.45746935277E+03  0.00000000000E+00 0.  1.
         23    2    1    2    0    0 -0.47764224892E+03  0.33298242962E+03 -0.11620763090E+02  0.59526745867E+03  0.12324321005E+03 0.  0.
         11    1    3    3    0    0 -0.91886370755E+02  0.97347859470E+02 -0.46949210810E+02  0.14185887096E+03  0.00000000000E+00 0.  1.
        -11    1    3    3    0    0 -0.38575587817E+03  0.23563457015E+03  0.35328447720E+02  0.45340858771E+03  0.00000000000E+00 0. -1.
         22    1    1    2    0    0  0.47764224892E+03 -0.33298242962E+03  0.39624076035E+03  0.70429124413E+03  0.00000000000E+00 0.  1.
<mgrwt>
<rscale>  0 0.12413381E+04</rscale>
<asrwt>0</asrwt>
<pdfrwt beam="1">  1        2 0.12955221E+00 0.12413381E+04</pdfrwt>
<pdfrwt beam="2">  1       -2 0.70379900E-01 0.12413381E+04</pdfrwt>
<totfact> 0.58136518E+01</totfact>
</mgrwt>
</event>
<event>
 6    1  0.2238133E-007  0.1141798E+04  0.7818608E-02  0.9165384E-01
          2   -1    0    0  501    0  0.00000000000E+00  0.00000000000E+00  0.24324531182E+04  0.24324531182E+04  0.00000000000E+00 0. -1.
         -2   -1    0    0    0  501 -0.00000000000E+00 -0.00000000000E+00 -0.13399043679E+03  0.13399043679E+03  0.00000000000E+00 0.  1.
         23    2    1    2    0    0  0.32155797582E+03 -0.26175623957E+03  0.20259764229E+04  0.20702937573E+04  0.98081161294E+02 0.  0.
         13    1    3    3    0    0  0.43251947654E+02 -0.87613657022E+02  0.47986879691E+03  0.48971516836E+03  0.00000000000E+00 0.  1.
        -13    1    3    3    0    0  0.27830602816E+03 -0.17414258255E+03  0.15461076260E+04  0.15805785889E+04  0.00000000000E+00 0. -1.
         22    1    1    2    0    0 -0.32155797582E+03  0.26175623957E+03  0.27248625849E+03  0.49614979777E+03  0.00000000000E+00 0.  1.
<mgrwt>
<rscale>  0 0.11417976E+04</rscale>
<asrwt>0</asrwt>
<pdfrwt beam="1">  1        2 0.37422352E+00 0.11417976E+04</pdfrwt>
<pdfrwt beam="2">  1       -2 0.20613915E-01 0.11417976E+04</pdfrwt>
<totfact> 0.76950638E+01</totfact>
</mgrwt>
</event>
<event>
 6    1  0.2238133E-007  0.1147445E+04  0.7818608E-02  0.9160144E-01
          2   -1    0    0  501    0  0.00000000000E+00  0.00000000000E+00  0.10951875569E+04  0.10951875569E+04  0.00000000000E+00 0. -1.
         -2   -1    0    0    0  501 -0.00000000000E+00 -0.00000000000E+00 -0.30054907739E+03  0.30054907739E+03  0.00000000000E+00 0.  1.
         23    2    1    2    0    0  0.16233869813E+02 -0.55087698586E+03  0.22187445252E+03  0.60088594222E+03  0.90036941285E+02 0.  0.
         11    1    3    3    0    0 -0.34703088314E+02 -0.26242249536E+03  0.89305476577E+02  0.27936595812E+03  0.00000000000E+00 0.  1.
        -11    1    3    3    0    0  0.50936958126E+02 -0.28845449050E+03  0.13256897594E+03  0.32151998410E+03  0.00000000000E+00 0. -1.
         22    1    1    2    0    0 -0.16233869813E+02  0.55087698586E+03  0.57276402700E+03  0.79485069208E+03  0.00000000000E+00 0.  1.
<mgrwt>
<rscale>  0 0.11474452E+04</rscale>
<asrwt>0</asrwt>
<pdfrwt beam="1">  1        2 0.16849039E+00 0.11474452E+04</pdfrwt>
<pdfrwt beam="2">  1       -2 0.46238320E-01 0.11474452E+04</pdfrwt>
<totfact> 0.96270172E+01</totfact>
</mgrwt>
</event>
<event>
 6    1  0.2238133E-007  0.3165522E+04  0.7818608E-02  0.8197982E-01
         -2   -1    0    0    0  501 -0.00000000000E+00  0.00000000000E+00  0.17354651005E+04  0.17354651005E+04  0.00000000000E+00 0.  1.
          2   -1    0    0  501    0  0.00000000000E+00 -0.00000000000E+00 -0.14434936192E+04  0.14434936192E+04  0.00000000000E+00 0. -1.
         23    2    1    2    0    0 -0.76586749474E+03 -0.13812613353E+04  0.65371999724E+02  0.15834076484E+04  0.92034703139E+02 0.  0.
         13    1    3    3    0    0 -0.59670321321E+03 -0.11259927347E+04  0.79890103495E+02  0.12768307609E+04  0.00000000000E+00 0. -1.
        -13    1    3    3    0    0 -0.16916428153E+03 -0.25526860061E+03 -0.14518103772E+02  0.30657688749E+03  0.00000000000E+00 0.  1.
         22    1    1    2    0    0  0.76586749474E+03  0.13812613353E+04  0.22659948154E+03  0.15955510713E+04  0.00000000000E+00 0.  1.
<mgrwt>
<rscale>  0 0.31655223E+04</rscale>
<asrwt>0</asrwt>
<pdfrwt beam="1">  1        2 0.22207594E+00 0.31655223E+04</pdfrwt>
<pdfrwt beam="2">  1       -2 0.26699463E+00 0.31655223E+04</pdfrwt>
<totfact> 0.58348244E-01</totfact>
</mgrwt>
</event>
<event>
 6    1  0.2238133E-007  0.1786639E+04  0.7818608E-02  0.8713437E-01
         -2   -1    0    0    0  501 -0.00000000000E+00  0.00000000000E+00  0.45116869290E+03  0.45116869290E+03  0.00000000000E+00 0.  1.
          2   -1    0    0  501    0  0.00000000000E+00 -0.00000000000E+00 -0.17687840838E+04  0.17687840838E+04  0.00000000000E+00 0. -1.
         23    2    1    2    0    0  0.81742273952E+02 -0.84342925868E+03 -0.10026042211E+04  0.13159136454E+04  0.91426387705E+02 0.  0.
         13    1    3    3    0    0  0.79821471733E+02 -0.52110344945E+03 -0.56979863245E+03  0.77626719235E+03  0.00000000000E+00 0.  1.
        -13    1    3    3    0    0  0.19208022188E+01 -0.32232580922E+03 -0.43280558864E+03  0.53964645309E+03  0.00000000000E+00 0. -1.
         22    1    1    2    0    0 -0.81742273952E+02  0.84342925868E+03 -0.31501116980E+03  0.90403913126E+03  0.00000000000E+00 0.  1.
<mgrwt>
<rscale>  0 0.17866393E+04</rscale>
<asrwt>0</asrwt>
<pdfrwt beam="1">  1        2 0.27212062E+00 0.17866393E+04</pdfrwt>
<pdfrwt beam="2">  1       -2 0.69410570E-01 0.17866393E+04</pdfrwt>
<totfact> 0.16068982E+01</totfact>
</mgrwt>
</event>
<event>
 6    1  0.2238133E-007  0.1640824E+04  0.7818608E-02  0.8795853E-01
          2   -1    0    0  501    0  0.00000000000E+00  0.00000000000E+00  0.10143321356E+04  0.10143321356E+04  0.00000000000E+00 0. -1.
         -2   -1    0    0    0  501 -0.00000000000E+00 -0.00000000000E+00 -0.66356576622E+03  0.66356576622E+03  0.00000000000E+00 0.  1.
         23    2    1    2    0    0  0.32273254439E+03 -0.21715863344E+03  0.91164750522E+03  0.99532789376E+03  0.90897057376E+02 0.  0.
         11    1    3    3    0    0  0.23438152707E+03 -0.12278811917E+03  0.68619663706E+03  0.73544370767E+03  0.00000000000E+00 0.  1.
        -11    1    3    3    0    0  0.88351017323E+02 -0.94370514273E+02  0.22545086815E+03  0.25988418609E+03  0.00000000000E+00 0. -1.
         22    1    1    2    0    0 -0.32273254439E+03  0.21715863344E+03 -0.56088113587E+03  0.68257000803E+03  0.00000000000E+00 0.  1.
<mgrwt>
<rscale>  0 0.16408243E+04</rscale>
<asrwt>0</asrwt>
<pdfrwt beam="1">  1        2 0.15605110E+00 0.16408243E+04</pdfrwt>
<pdfrwt beam="2">  1       -2 0.10208704E+00 0.16408243E+04</pdfrwt>
<totfact> 0.18540533E+01</totfact>
</mgrwt>
</event>
<event>
 6    1  0.2238133E-007  0.2042527E+04  0.7818608E-02  0.8586992E-01
         -2   -1    0    0    0  501 -0.00000000000E+00  0.00000000000E+00  0.84018775246E+03  0.84018775246E+03  0.00000000000E+00 0.  1.
          2   -1    0    0  501    0  0.00000000000E+00 -0.00000000000E+00 -0.12413643314E+04  0.12413643314E+04  0.00000000000E+00 0. -1.
         23    2    1    2    0    0 -0.25658222678E+02  0.82754291055E+03 -0.80681227885E+03  0.11595835734E+04  0.90567086812E+02 0.  0.
         13    1    3    3    0    0 -0.49059591980E+02  0.75020803381E+03 -0.73706655965E+03  0.10528466417E+04  0.00000000000E+00 0. -1.
        -13    1    3    3    0    0  0.23401369302E+02  0.77334876740E+02 -0.69745719197E+02  0.10673693171E+03  0.00000000000E+00 0.  1.
         22    1    1    2    0    0  0.25658222678E+02 -0.82754291055E+03  0.40563569993E+03  0.92196851044E+03  0.00000000000E+00 0.  1.
<mgrwt>
<rscale>  0 0.20425270E+04</rscale>
<asrwt>0</asrwt>
<pdfrwt beam="1">  1        2 0.19097913E+00 0.20425270E+04</pdfrwt>
<pdfrwt beam="2">  1       -2 0.12925966E+00 0.20425270E+04</pdfrwt>
<totfact> 0.73024379E+00</totfact>
</mgrwt>
</event>
<event>
 6    1  0.2238133E-007  0.6835329E+03  0.7818608E-02  0.9745815E-01
          2   -1    0    0  501    0  0.00000000000E+00  0.00000000000E+00  0.19097634144E+03  0.19097634144E+03  0.00000000000E+00 0. -1.
         -2   -1    0    0    0  501 -0.00000000000E+00 -0.00000000000E+00 -0.61161666508E+03  0.61161666508E+03  0.00000000000E+00 0.  1.
         23    2    1    2    0    0  0.70346676147E+02 -0.20721723868E+03 -0.51303004925E+03  0.56505669298E+03  0.90562663367E+02 0.  0.
         11    1    3    3    0    0  0.46034590857E+02 -0.40877079348E+02 -0.83029597000E+02  0.10336359683E+03  0.00000000000E+00 0.  1.
        -11    1    3    3    0    0  0.24312085289E+02 -0.16634015933E+03 -0.43000045225E+03  0.46169309615E+03  0.00000000000E+00 0. -1.
         22    1    1    2    0    0 -0.70346676147E+02  0.20721723868E+03  0.92389725617E+02  0.23753631354E+03  0.00000000000E+00 0. -1.
<mgrwt>
<rscale>  0 0.68353292E+03</rscale>
<asrwt>0</asrwt>
<pdfrwt beam="1">  1        2 0.29380975E-01 0.68353292E+03</pdfrwt>
<pdfrwt beam="2">  1       -2 0.94094874E-01 0.68353292E+03</pdfrwt>
<totfact> 0.17551339E+02</totfact>
</mgrwt>
</event>
<event>
 6    1  0.2238133E-007  0.3546905E+04  0.7818608E-02  0.8102763E-01
          2   -1    0    0  501    0  0.00000000000E+00  0.00000000000E+00  0.16020044192E+04  0.16020044192E+04  0.00000000000E+00 0. -1.
         -2   -1    0    0    0  501 -0.00000000000E+00 -0.00000000000E+00 -0.19632493223E+04  0.19632493223E+04  0.00000000000E+00 0.  1.
         23    2    1    2    0    0 -0.12819753575E+04  0.88612008202E+03  0.66756797265E+03  0.16978690595E+04  0.91884318708E+02 0.  0.
         13    1    3    3    0    0 -0.49689058649E+03  0.34703218090E+03  0.21125858574E+03  0.64184248813E+03  0.00000000000E+00 0. -1.
        -13    1    3    3    0    0 -0.78508477106E+03  0.53908790111E+03  0.45630938691E+03  0.10560265714E+04  0.00000000000E+00 0.  1.
         22    1    1    2    0    0  0.12819753575E+04 -0.88612008202E+03 -0.10288128758E+04  0.18673846820E+04  0.00000000000E+00 0.  1.
<mgrwt>
<rscale>  0 0.35469052E+04</rscale>
<asrwt>0</asrwt>
<pdfrwt beam="1">  1        2 0.24646222E+00 0.35469052E+04</pdfrwt>
<pdfrwt beam="2">  1       -2 0.30203836E+00 0.35469052E+04</pdfrwt>
<totfact> 0.28116583E-01</totfact>
</mgrwt>
</event>
<event>
 6    1  0.2238133E-007  0.3417911E+04  0.7818608E-02  0.8133524E-01
          2   -1    0    0  501    0  0.00000000000E+00  0.00000000000E+00  0.20720266491E+04  0.20720266491E+04  0.00000000000E+00 0. -1.
         -2   -1    0    0    0  501 -0.00000000000E+00 -0.00000000000E+00 -0.14095037897E+04  0.14095037897E+04  0.00000000000E+00 0.  1.
         23    2    1    2    0    0 -0.20425841499E+03 -0.11646235471E+04  0.15866059016E+04  0.19808642616E+04  0.91844593950E+02 0.  0.
         13    1    3    3    0    0 -0.10641074308E+03 -0.83966166195E+03  0.11155133405E+04  0.14002588923E+04  0.00000000000E+00 0.  1.
        -13    1    3    3    0    0 -0.97847671915E+02 -0.32496188516E+03  0.47109256114E+03  0.58060536930E+03  0.00000000000E+00 0. -1.
         22    1    1    2    0    0  0.20425841499E+03  0.11646235471E+04 -0.92408304214E+03  0.15006661772E+04  0.00000000000E+00 0.  1.
<mgrwt>
<rscale>  0 0.34179113E+04</rscale>
<asrwt>0</asrwt>
<pdfrwt beam="1">  1        2 0.31877333E+00 0.34179113E+04</pdfrwt>
<pdfrwt beam="2">  1       -2 0.21684674E+00 0.34179113E+04</pdfrwt>
<totfact> 0.52156511E-01</totfact>
</mgrwt>
</event>
<event>
 6    1  0.2238133E-007  0.4157678E+04  0.7818608E-02  0.7973472E-01
          2   -1    0    0  501    0  0.00000000000E+00  0.00000000000E+00  0.28739813055E+04  0.28739813055E+04  0.00000000000E+00 0. -1.
         -2   -1    0    0    0  501 -0.00000000000E+00 -0.00000000000E+00 -0.15036881213E+04  0.15036881213E+04  0.00000000000E+00 0.  1.
         23    2    1    2    0    0  0.18169424187E+04 -0.87600906164E+03  0.12107086997E+04  0.23542715825E+04  0.90041655539E+02 0.  0.
         13    1    3    3    0    0  0.15302243684E+04 -0.77350175461E+03  0.10289576703E+04  0.19996613387E+04  0.00000000000E+00 0. -1.
        -13    1    3    3    0    0  0.28671805022E+03 -0.10250730703E+03  0.18175102938E+03  0.35461024379E+03  0.00000000000E+00 0.  1.
         22    1    1    2    0    0 -0.18169424187E+04  0.87600906164E+03  0.15958448451E+03  0.20233978443E+04  0.00000000000E+00 0.  1.
<mgrwt>
<rscale>  0 0.41576780E+04</rscale>
<asrwt>0</asrwt>
<pdfrwt beam="1">  1        2 0.44215097E+00 0.41576780E+04</pdfrwt>
<pdfrwt beam="2">  1       -2 0.23133664E+00 0.41576780E+04</pdfrwt>
<totfact> 0.13611774E-01</totfact>
</mgrwt>
</event>
<event>
 6    1  0.2238133E-007  0.5304507E+04  0.7818608E-02  0.7783177E-01
         -2   -1    0    0    0  501 -0.00000000000E+00  0.00000000000E+00  0.24296383683E+04  0.24296383683E+04  0.00000000000E+00 0.  1.
          2   -1    0    0  501    0  0.00000000000E+00 -0.00000000000E+00 -0.28952654821E+04  0.28952654821E+04  0.00000000000E+00 0. -1.
         23    2    1    2    0    0  0.93748707280E+03  0.24723530998E+04 -0.43056044457E+03  0.26805435246E+04  0.92300753312E+02 0.  0.
         13    1    3    3    0    0  0.71403076090E+03  0.19414084004E+04 -0.30425422473E+03  0.20908077717E+04  0.00000000000E+00 0. -1.
        -13    1    3    3    0    0  0.22345631190E+03  0.53094469933E+03 -0.12630621984E+03  0.58973575290E+03  0.00000000000E+00 0.  1.
         22    1    1    2    0    0 -0.93748707280E+03 -0.24723530998E+04 -0.35066669189E+02  0.26443603258E+04  0.00000000000E+00 0.  1.
<mgrwt>
<rscale>  0 0.53045068E+04</rscale>
<asrwt>0</asrwt>
<pdfrwt beam="1">  1        2 0.44542546E+00 0.53045068E+04</pdfrwt>
<pdfrwt beam="2">  1       -2 0.37379052E+00 0.53045068E+04</pdfrwt>
<totfact> 0.15781127E-02</totfact>
</mgrwt>
</event>
<event>
 6    1  0.2238133E-007  0.2281037E+04  0.7818608E-02  0.8485436E-01
          2   -1    0    0  501    0  0.00000000000E+00  0.00000000000E+00  0.29979580195E+04  0.29979580195E+04  0.00000000000E+00 0. -1.
         -2   -1    0    0    0  501 -0.00000000000E+00 -0.00000000000E+00 -0.43388933778E+03  0.43388933778E+03  0.00000000000E+00 0.  1.
         23    2    1    2    0    0  0.61957380863E+01  0.49678772174E+03 -0.26051354775E+03  0.56390363422E+03  0.57302464903E+02 0.  0.
         13    1    3    3    0    0 -0.20829103757E+01  0.18410997261E+03 -0.12778549587E+03  0.22412039953E+03  0.00000000000E+00 0.  1.
        -13    1    3    3    0    0  0.82786484620E+01  0.31267774913E+03 -0.13272805187E+03  0.33978323469E+03  0.00000000000E+00 0. -1.
         22    1    1    2    0    0 -0.61957380863E+01 -0.49678772174E+03  0.28245822294E+04  0.28679437230E+04  0.00000000000E+00 0. -1.
<mgrwt>
<rscale>  0 0.22810366E+04</rscale>
<asrwt>0</asrwt>
<pdfrwt beam="1">  1        2 0.46122430E+00 0.22810366E+04</pdfrwt>
<pdfrwt beam="2">  1       -2 0.66752208E-01 0.22810366E+04</pdfrwt>
<totfact> 0.32714461E+00</totfact>
</mgrwt>
</event>
<event>
 6    1  0.2238133E-007  0.1623062E+04  0.7818608E-02  0.8806504E-01
          2   -1    0    0  501    0  0.00000000000E+00  0.00000000000E+00  0.18394568391E+04  0.18394568391E+04  0.00000000000E+00 0. -1.
         -2   -1    0    0    0  501 -0.00000000000E+00 -0.00000000000E+00 -0.35803117537E+03  0.35803117537E+03  0.00000000000E+00 0.  1.
         23    2    1    2    0    0  0.49513288397E+03  0.10799127593E+03 -0.11172371128E+03  0.52567952676E+03  0.83893317514E+02 0.  0.
         11    1    3    3    0    0  0.28196800107E+03  0.63899331078E+02 -0.10596939215E+03  0.30792627399E+03  0.00000000000E+00 0.  1.
        -11    1    3    3    0    0  0.21316488290E+03  0.44091944851E+02 -0.57543191326E+01  0.21775325277E+03  0.00000000000E+00 0. -1.
         22    1    1    2    0    0 -0.49513288397E+03 -0.10799127593E+03  0.15931493750E+04  0.16718084877E+04  0.00000000000E+00 0. -1.
<mgrwt>
<rscale>  0 0.16230624E+04</rscale>
<asrwt>0</asrwt>
<pdfrwt beam="1">  1        2 0.28299335E+00 0.16230624E+04</pdfrwt>
<pdfrwt beam="2">  1       -2 0.55081721E-01 0.16230624E+04</pdfrwt>
<totfact> 0.24340444E+01</totfact>
</mgrwt>
</event>
<event>
 6    1  0.2238133E-007  0.2351085E+04  0.7818608E-02  0.8458047E-01
          2   -1    0    0  501    0  0.00000000000E+00  0.00000000000E+00  0.18961798567E+04  0.18961798567E+04  0.00000000000E+00 0. -1.
         -2   -1    0    0    0  501 -0.00000000000E+00 -0.00000000000E+00 -0.72878089960E+03  0.72878089960E+03  0.00000000000E+00 0.  1.
         23    2    1    2    0    0 -0.35003276777E+03 -0.77685539503E+03  0.14858421061E+04  0.17153271584E+04  0.92699798097E+02 0.  0.
         11    1    3    3    0    0 -0.16362905699E+03 -0.43082663150E+03  0.72762037832E+03  0.86128826164E+03  0.00000000000E+00 0. -1.
        -11    1    3    3    0    0 -0.18640371078E+03 -0.34602876353E+03  0.75822172783E+03  0.85403889673E+03  0.00000000000E+00 0.  1.
         22    1    1    2    0    0  0.35003276777E+03  0.77685539503E+03 -0.31844314904E+03  0.90963359792E+03  0.00000000000E+00 0.  1.
<mgrwt>
<rscale>  0 0.23510846E+04</rscale>
<asrwt>0</asrwt>
<pdfrwt beam="1">  1        2 0.29171998E+00 0.23510846E+04</pdfrwt>
<pdfrwt beam="2">  1       -2 0.11212014E+00 0.23510846E+04</pdfrwt>
<totfact> 0.43213860E+00</totfact>
</mgrwt>
</event>
<event>
 6    1  0.2238133E-007  0.3557227E+04  0.7818608E-02  0.8100360E-01
          1   -1    0    0  501    0  0.00000000000E+00  0.00000000000E+00  0.21229977496E+04  0.21229977496E+04  0.00000000000E+00 0. -1.
         -1   -1    0    0    0  501 -0.00000000000E+00 -0.00000000000E+00 -0.14900940942E+04  0.14900940942E+04  0.00000000000E+00 0.  1.
         23    2    1    2    0    0  0.98875409604E+03 -0.41340236545E+03 -0.11236035244E+04  0.15554588224E+04  0.91820966708E+02 0.  0.
         11    1    3    3    0    0  0.19986431380E+03 -0.53190954097E+02 -0.25048343575E+03  0.32483376227E+03  0.00000000000E+00 0.  1.
        -11    1    3    3    0    0  0.78888978224E+03 -0.36021141135E+03 -0.87312008862E+03  0.12306250601E+04  0.00000000000E+00 0. -1.
         22    1    1    2    0    0 -0.98875409604E+03  0.41340236545E+03  0.17565071798E+04  0.20576330214E+04  0.00000000000E+00 0. -1.
<mgrwt>
<rscale>  0 0.35572272E+04</rscale>
<asrwt>0</asrwt>
<pdfrwt beam="1">  1        1 0.32661504E+00 0.35572272E+04</pdfrwt>
<pdfrwt beam="2">  1       -1 0.22924525E+00 0.35572272E+04</pdfrwt>
<totfact> 0.19060759E-01</totfact>
</mgrwt>
</event>
<event>
 6    1  0.2238133E-007  0.3386145E+04  0.7818608E-02  0.8141315E-01
          2   -1    0    0  501    0  0.00000000000E+00  0.00000000000E+00  0.16046128895E+04  0.16046128895E+04  0.00000000000E+00 0. -1.
         -2   -1    0    0    0  501 -0.00000000000E+00 -0.00000000000E+00 -0.17864084724E+04  0.17864084724E+04  0.00000000000E+00 0.  1.
         23    2    1    2    0    0 -0.50475384596E+03 -0.13729284258E+04 -0.94223776833E+03  0.17423912564E+04  0.91686263391E+02 0.  0.
         11    1    3    3    0    0 -0.24476941948E+03 -0.57218082915E+03 -0.43841837831E+03  0.76125793553E+03  0.00000000000E+00 0. -1.
        -11    1    3    3    0    0 -0.25998442649E+03 -0.80074759664E+03 -0.50381939002E+03  0.98113332086E+03  0.00000000000E+00 0.  1.
         22    1    1    2    0    0  0.50475384596E+03  0.13729284258E+04  0.76044218538E+03  0.16486301055E+04  0.00000000000E+00 0. -1.
<mgrwt>
<rscale>  0 0.33861447E+04</rscale>
<asrwt>0</asrwt>
<pdfrwt beam="1">  1        2 0.24686352E+00 0.33861447E+04</pdfrwt>
<pdfrwt beam="2">  1       -2 0.27483207E+00 0.33861447E+04</pdfrwt>
<totfact> 0.41634332E-01</totfact>
</mgrwt>
</event>
<event>
 6    1  0.2238133E-007  0.2547644E+04  0.7818608E-02  0.8386206E-01
         -1   -1    0    0    0  501 -0.00000000000E+00  0.00000000000E+00  0.12018556963E+04  0.12018556963E+04  0.00000000000E+00 0.  1.
          1   -1    0    0  501    0  0.00000000000E+00 -0.00000000000E+00 -0.13500979265E+04  0.13500979265E+04  0.00000000000E+00 0. -1.
         23    2    1    2    0    0 -0.11919399080E+04  0.14718649295E+03  0.34613752594E+03  0.12531865339E+04  0.90998318539E+02 0.  0.
         11    1    3    3    0    0 -0.77914268969E+03  0.56638416243E+02  0.20529163890E+03  0.80772266162E+03  0.00000000000E+00 0.  1.
        -11    1    3    3    0    0 -0.41279721828E+03  0.90548076708E+02  0.14084588703E+03  0.44546387229E+03  0.00000000000E+00 0. -1.
         22    1    1    2    0    0  0.11919399080E+04 -0.14718649295E+03 -0.49437975609E+03  0.12987670889E+04  0.00000000000E+00 0. -1.
<mgrwt>
<rscale>  0 0.25476443E+04</rscale>
<asrwt>0</asrwt>
<pdfrwt beam="1">  1        1 0.20770737E+00 0.25476443E+04</pdfrwt>
<pdfrwt beam="2">  1       -1 0.18490088E+00 0.25476443E+04</pdfrwt>
<totfact> 0.14153407E+00</totfact>
</mgrwt>
</event>
<event>
 6    1  0.2238133E-007  0.2539403E+04  0.7818608E-02  0.8389081E-01
         -1   -1    0    0    0  501 -0.00000000000E+00  0.00000000000E+00  0.10954185471E+04  0.10954185471E+04  0.00000000000E+00 0.  1.
          1   -1    0    0  501    0  0.00000000000E+00 -0.00000000000E+00 -0.14717133356E+04  0.14717133356E+04  0.00000000000E+00 0. -1.
         23    2    1    2    0    0 -0.59413708610E+03  0.30461384861E+03  0.90152127698E+03  0.11253959945E+04  0.89370340741E+02 0.  0.
         13    1    3    3    0    0 -0.19031606204E+03  0.55345306483E+02  0.29213762535E+03  0.35302648423E+03  0.00000000000E+00 0.  1.
        -13    1    3    3    0    0 -0.40382102406E+03  0.24926854213E+03  0.60938365163E+03  0.77236951030E+03  0.00000000000E+00 0. -1.
         22    1    1    2    0    0  0.59413708610E+03 -0.30461384861E+03 -0.12778160656E+04  0.14417358882E+04  0.00000000000E+00 0. -1.
<mgrwt>
<rscale>  0 0.25394031E+04</rscale>
<asrwt>0</asrwt>
<pdfrwt beam="1">  1        1 0.22641744E+00 0.25394031E+04</pdfrwt>
<pdfrwt beam="2">  1       -1 0.16852593E+00 0.25394031E+04</pdfrwt>
<totfact> 0.15290509E+00</totfact>
</mgrwt>
</event>
<event>
 6    1  0.2238133E-007  0.2523431E+04  0.7818608E-02  0.8394686E-01
         -2   -1    0    0    0  501 -0.00000000000E+00  0.00000000000E+00  0.70907056927E+03  0.70907056927E+03  0.00000000000E+00 0.  1.
          2   -1    0    0  501    0  0.00000000000E+00 -0.00000000000E+00 -0.22450875853E+04  0.22450875853E+04  0.00000000000E+00 0. -1.
         23    2    1    2    0    0  0.96987741400E+03 -0.77535223818E+03 -0.52226358224E+03  0.13511830094E+04  0.10537069881E+03 0.  0.
         11    1    3    3    0    0  0.55531704252E+03 -0.50917787421E+03 -0.32393564807E+03  0.82010574281E+03  0.00000000000E+00 0. -1.
        -11    1    3    3    0    0  0.41456037148E+03 -0.26617436397E+03 -0.19832793417E+03  0.53107726661E+03  0.00000000000E+00 0.  1.
         22    1    1    2    0    0 -0.96987741400E+03  0.77535223818E+03 -0.10137534338E+04  0.16029751452E+04  0.00000000000E+00 0. -1.
<mgrwt>
<rscale>  0 0.25234306E+04</rscale>
<asrwt>0</asrwt>
<pdfrwt beam="1">  1        2 0.34539809E+00 0.25234306E+04</pdfrwt>
<pdfrwt beam="2">  1       -2 0.10908778E+00 0.25234306E+04</pdfrwt>
<totfact> 0.29059589E+00</totfact>
</mgrwt>
</event>
<event>
 6    1  0.2238133E-007  0.3314864E+04  0.7818608E-02  0.8159123E-01
         -2   -1    0    0    0  501 -0.00000000000E+00  0.00000000000E+00  0.11984818034E+04  0.11984818034E+04  0.00000000000E+00 0.  1.
          2   -1    0    0  501    0  0.00000000000E+00 -0.00000000000E+00 -0.22921343004E+04  0.22921343004E+04  0.00000000000E+00 0. -1.
         23    2    1    2    0    0 -0.13826453721E+04 -0.88686813112E+03 -0.32543372722E+03  0.16772205636E+04  0.94437286252E+02 0.  0.
         11    1    3    3    0    0 -0.38268520726E+03 -0.26115862471E+03 -0.13317108876E+03  0.48206465748E+03  0.00000000000E+00 0.  1.
        -11    1    3    3    0    0 -0.99996016483E+03 -0.62570950641E+03 -0.19226263846E+03  0.11951559061E+04  0.00000000000E+00 0. -1.
         22    1    1    2    0    0  0.13826453721E+04  0.88686813112E+03 -0.76821876984E+03  0.18133955402E+04  0.00000000000E+00 0. -1.
<mgrwt>
<rscale>  0 0.33148643E+04</rscale>
<asrwt>0</asrwt>
<pdfrwt beam="1">  1        2 0.35263604E+00 0.33148643E+04</pdfrwt>
<pdfrwt beam="2">  1       -2 0.18438182E+00 0.33148643E+04</pdfrwt>
<totfact> 0.64644106E-01</totfact>
</mgrwt>
</event>
<event>
 6    1  0.2238133E-007  0.1303396E+04  0.7818608E-02  0.9026876E-01
          1   -1    0    0  501    0  0.00000000000E+00  0.00000000000E+00  0.18250951096E+04  0.18250951096E+04  0.00000000000E+00 0. -1.
         -1   -1    0    0    0  501 -0.00000000000E+00 -0.00000000000E+00 -0.23270584754E+03  0.23270584754E+03  0.00000000000E+00 0.  1.
         23    2    1    2    0    0  0.54287204490E+03  0.35509390224E+03  0.79907480468E+03  0.10330329030E+04  0.88513832915E+02 0.  0.
         11    1    3    3    0    0  0.41027789122E+03  0.29417018865E+03  0.66458351489E+03  0.83458690151E+03  0.00000000000E+00 0. -1.
        -11    1    3    3    0    0  0.13259415368E+03  0.60923713596E+02  0.13449128979E+03  0.19844600146E+03  0.00000000000E+00 0.  1.
         22    1    1    2    0    0 -0.54287204490E+03 -0.35509390224E+03  0.79331445740E+03  0.10247680542E+04  0.00000000000E+00 0. -1.
<mgrwt>
<rscale>  0 0.13033960E+04</rscale>
<asrwt>0</asrwt>
<pdfrwt beam="1">  1        1 0.28078385E+00 0.13033960E+04</pdfrwt>
<pdfrwt beam="2">  1       -1 0.35800901E-01 0.13033960E+04</pdfrwt>
<totfact> 0.28682840E+01</totfact>
</mgrwt>
</event>
<event>
 6    1  0.2238133E-007  0.2341142E+04  0.7818608E-02  0.8461874E-01
          2   -1    0    0  501    0  0.00000000000E+00  0.00000000000E+00  0.16522713279E+04  0.16522713279E+04  0.00000000000E+00 0. -1.
         -2   -1    0    0    0  501 -0.00000000000E+00 -0.00000000000E+00 -0.82930477961E+03  0.82930477961E+03  0.00000000000E+00 0.  1.
         23    2    1    2    0    0  0.70477484726E+03  0.93179410319E+03  0.38467573269E+03  0.12337593441E+04  0.96119008355E+02 0.  0.
         13    1    3    3    0    0  0.35849368032E+03  0.54232641395E+03  0.23885251231E+03  0.69259380645E+03  0.00000000000E+00 0. -1.
        -13    1    3    3    0    0  0.34628116693E+03  0.38946768924E+03  0.14582322038E+03  0.54116553765E+03  0.00000000000E+00 0.  1.
         22    1    1    2    0    0 -0.70477484726E+03 -0.93179410319E+03  0.43829081563E+03  0.12478167634E+04  0.00000000000E+00 0.  1.
<mgrwt>
<rscale>  0 0.23411420E+04</rscale>
<asrwt>0</asrwt>
<pdfrwt beam="1">  1        2 0.25419559E+00 0.23411420E+04</pdfrwt>
<pdfrwt beam="2">  1       -2 0.12758535E+00 0.23411420E+04</pdfrwt>
<totfact> 0.42908533E+00</totfact>
</mgrwt>
</event>
<event>
 6    1  0.2238133E-007  0.6525061E+04  0.7818608E-02  0.7628504E-01
          2   -1    0    0  501    0  0.00000000000E+00  0.00000000000E+00  0.33118147042E+04  0.33118147042E+04  0.00000000000E+00 0. -1.
         -2   -1    0    0    0  501 -0.00000000000E+00 -0.00000000000E+00 -0.32139792938E+04  0.32139792938E+04  0.00000000000E+00 0.  1.
         23    2    1    2    0    0 -0.18480857957E+04 -0.21628126682E+04  0.16449627551E+04  0.32874637543E+04  0.91300188700E+02 0.  0.
         13    1    3    3    0    0 -0.79984434724E+03 -0.93835029753E+03  0.76528216196E+03  0.14511750577E+04  0.00000000000E+00 0. -1.
        -13    1    3    3    0    0 -0.10482414485E+04 -0.12244623706E+04  0.87968059312E+03  0.18362886966E+04  0.00000000000E+00 0.  1.
         22    1    1    2    0    0  0.18480857957E+04  0.21628126682E+04 -0.15471273447E+04  0.32383302436E+04  0.00000000000E+00 0.  1.
<mgrwt>
<rscale>  0 0.65250606E+04</rscale>
<asrwt>0</asrwt>
<pdfrwt beam="1">  1        2 0.50950996E+00 0.65250606E+04</pdfrwt>
<pdfrwt beam="2">  1       -2 0.49445835E+00 0.65250606E+04</pdfrwt>
<totfact> 0.12772133E-03</totfact>
</mgrwt>
</event>
<event>
 6    1  0.2238133E-007  0.3374101E+04  0.7818608E-02  0.8144292E-01
         -1   -1    0    0    0  501 -0.00000000000E+00  0.00000000000E+00  0.21842110936E+04  0.21842110936E+04  0.00000000000E+00 0.  1.
          1   -1    0    0  501    0  0.00000000000E+00 -0.00000000000E+00 -0.13030515283E+04  0.13030515283E+04  0.00000000000E+00 0. -1.
         23    2    1    2    0    0  0.12476610401E+04  0.11330933646E+04  0.40063011310E+03  0.17347024380E+04  0.90163281098E+02 0.  0.
         11    1    3    3    0    0  0.96469246811E+03  0.83898310112E+03  0.33141848285E+03  0.13207431290E+04  0.00000000000E+00 0. -1.
        -11    1    3    3    0    0  0.28296857196E+03  0.29411026347E+03  0.69211630248E+02  0.41395930906E+03  0.00000000000E+00 0.  1.
         22    1    1    2    0    0 -0.12476610401E+04 -0.11330933646E+04  0.48052945215E+03  0.17525601839E+04  0.00000000000E+00 0. -1.
<mgrwt>
<rscale>  0 0.33741011E+04</rscale>
<asrwt>0</asrwt>
<pdfrwt beam="1">  1        1 0.20046947E+00 0.33741011E+04</pdfrwt>
<pdfrwt beam="2">  1       -1 0.33603247E+00 0.33741011E+04</pdfrwt>
<totfact> 0.14254332E-01</totfact>
</mgrwt>
</event>
<event>
 6    1  0.2238133E-007  0.3166435E+04  0.7818608E-02  0.8197738E-01
         -2   -1    0    0    0  501 -0.00000000000E+00  0.00000000000E+00  0.89724434875E+03  0.89724434875E+03  0.00000000000E+00 0.  1.
          2   -1    0    0  501    0  0.00000000000E+00 -0.00000000000E+00 -0.27936405873E+04  0.27936405873E+04  0.00000000000E+00 0. -1.
         23    2    1    2    0    0 -0.53622864980E+03 -0.14178265662E+04 -0.42188149381E+03  0.15761823401E+04  0.92700797201E+02 0.  0.
         13    1    3    3    0    0 -0.24123674117E+03 -0.64782158680E+03 -0.24024011825E+03  0.73183556078E+03  0.00000000000E+00 0. -1.
        -13    1    3    3    0    0 -0.29499190863E+03 -0.77000497942E+03 -0.18164137556E+03  0.84434677935E+03  0.00000000000E+00 0.  1.
         22    1    1    2    0    0  0.53622864980E+03  0.14178265662E+04 -0.14745147448E+04  0.21147025960E+04  0.00000000000E+00 0.  1.
<mgrwt>
<rscale>  0 0.31664354E+04</rscale>
<asrwt>0</asrwt>
<pdfrwt beam="1">  1        2 0.42979085E+00 0.31664354E+04</pdfrwt>
<pdfrwt beam="2">  1       -2 0.13803759E+00 0.31664354E+04</pdfrwt>
<totfact> 0.73359423E-01</totfact>
</mgrwt>
</event>
<event>
 6    1  0.2238133E-007  0.3582319E+04  0.7818608E-02  0.8094554E-01
          2   -1    0    0  501    0  0.00000000000E+00  0.00000000000E+00  0.25342322134E+04  0.25342322134E+04  0.00000000000E+00 0. -1.
         -2   -1    0    0    0  501 -0.00000000000E+00 -0.00000000000E+00 -0.12659664394E+04  0.12659664394E+04  0.00000000000E+00 0.  1.
         23    2    1    2    0    0 -0.73763225907E+03 -0.74419350791E+03  0.21740903241E+04  0.24151197950E+04  0.90606621387E+02 0.  0.
         13    1    3    3    0    0 -0.51578878290E+03 -0.45975831088E+03  0.14163014708E+04  0.15758571094E+04  0.00000000000E+00 0. -1.
        -13    1    3    3    0    0 -0.22184347617E+03 -0.28443519703E+03  0.75778885330E+03  0.83926268559E+03  0.00000000000E+00 0.  1.
         22    1    1    2    0    0  0.73763225907E+03  0.74419350791E+03 -0.90582455009E+03  0.13850788578E+04  0.00000000000E+00 0.  1.
<mgrwt>
<rscale>  0 0.35823193E+04</rscale>
<asrwt>0</asrwt>
<pdfrwt beam="1">  1        2 0.38988188E+00 0.35823193E+04</pdfrwt>
<pdfrwt beam="2">  1       -2 0.19476407E+00 0.35823193E+04</pdfrwt>
<totfact> 0.39088057E-01</totfact>
</mgrwt>
</event>
<event>
 6    1  0.2238133E-007  0.3598436E+04  0.7818608E-02  0.8090850E-01
         -2   -1    0    0    0  501 -0.00000000000E+00  0.00000000000E+00  0.16191056543E+04  0.16191056543E+04  0.00000000000E+00 0.  1.
          2   -1    0    0  501    0  0.00000000000E+00 -0.00000000000E+00 -0.19993666965E+04  0.19993666965E+04  0.00000000000E+00 0. -1.
         23    2    1    2    0    0  0.10979896528E+04 -0.48995356495E+03 -0.15346779808E+04  0.19516447528E+04  0.89693718387E+02 0.  0.
         11    1    3    3    0    0  0.60187627838E+03 -0.31389053571E+03 -0.89070220420E+03  0.11198806809E+04  0.00000000000E+00 0. -1.
        -11    1    3    3    0    0  0.49611337441E+03 -0.17606302924E+03 -0.64397577659E+03  0.83176407194E+03  0.00000000000E+00 0.  1.
         22    1    1    2    0    0 -0.10979896528E+04  0.48995356495E+03  0.11544169385E+04  0.16668275980E+04  0.00000000000E+00 0.  1.
<mgrwt>
<rscale>  0 0.35984363E+04</rscale>
<asrwt>0</asrwt>
<pdfrwt beam="1">  1        2 0.30759488E+00 0.35984363E+04</pdfrwt>
<pdfrwt beam="2">  1       -2 0.24909318E+00 0.35984363E+04</pdfrwt>
<totfact> 0.35481635E-01</totfact>
</mgrwt>
</event>
<event>
 6    1  0.2238133E-007  0.3845795E+04  0.7818608E-02  0.8036398E-01
         -2   -1    0    0    0  501 -0.00000000000E+00  0.00000000000E+00  0.16830476815E+04  0.16830476815E+04  0.00000000000E+00 0.  1.
          2   -1    0    0  501    0  0.00000000000E+00 -0.00000000000E+00 -0.21969281760E+04  0.21969281760E+04  0.00000000000E+00 0. -1.
         23    2    1    2    0    0 -0.32216403759E+03  0.18892982292E+04 -0.11352672287E+03  0.19220380116E+04  0.90024080966E+02 0.  0.
         13    1    3    3    0    0 -0.13002923314E+03  0.84002695847E+03 -0.93219578995E+02  0.85512734861E+03  0.00000000000E+00 0. -1.
        -13    1    3    3    0    0 -0.19213480445E+03  0.10492712707E+04 -0.20307143879E+02  0.10669106630E+04  0.00000000000E+00 0.  1.
         22    1    1    2    0    0  0.32216403759E+03 -0.18892982292E+04 -0.40035377165E+03  0.19579378459E+04  0.00000000000E+00 0.  1.
<mgrwt>
<rscale>  0 0.38457950E+04</rscale>
<asrwt>0</asrwt>
<pdfrwt beam="1">  1        2 0.33798895E+00 0.38457950E+04</pdfrwt>
<pdfrwt beam="2">  1       -2 0.25893041E+00 0.38457950E+04</pdfrwt>
<totfact> 0.23458681E-01</totfact>
</mgrwt>
</event>
<event>
 6    1  0.2238133E-007  0.2376931E+04  0.7818608E-02  0.8448191E-01
         -2   -1    0    0    0  501 -0.00000000000E+00  0.00000000000E+00  0.70023210220E+03  0.70023210220E+03  0.00000000000E+00 0.  1.
          2   -1    0    0  501    0  0.00000000000E+00 -0.00000000000E+00 -0.20171169718E+04  0.20171169718E+04  0.00000000000E+00 0. -1.
         23    2    1    2    0    0 -0.69590166630E+03 -0.89218198783E+03 -0.25055085486E+03  0.11625706140E+04  0.92341069649E+02 0.  0.
         13    1    3    3    0    0 -0.41512702726E+03 -0.45748419322E+03 -0.13796787015E+03  0.63297501452E+03  0.00000000000E+00 0. -1.
        -13    1    3    3    0    0 -0.28077463903E+03 -0.43469779461E+03 -0.11258298471E+03  0.52959559950E+03  0.00000000000E+00 0.  1.
         22    1    1    2    0    0  0.69590166630E+03  0.89218198783E+03 -0.10663340147E+04  0.15547784599E+04  0.00000000000E+00 0. -1.
<mgrwt>
<rscale>  0 0.23769308E+04</rscale>
<asrwt>0</asrwt>
<pdfrwt beam="1">  1        2 0.31032569E+00 0.23769308E+04</pdfrwt>
<pdfrwt beam="2">  1       -2 0.10772802E+00 0.23769308E+04</pdfrwt>
<totfact> 0.40691218E+00</totfact>
</mgrwt>
</event>
<event>
 6    1  0.2238133E-007  0.4061874E+04  0.7818608E-02  0.7992180E-01
          2   -1    0    0  501    0  0.00000000000E+00  0.00000000000E+00  0.29183989649E+04  0.29183989649E+04  0.00000000000E+00 0. -1.
         -2   -1    0    0    0  501 -0.00000000000E+00 -0.00000000000E+00 -0.14133454042E+04  0.14133454042E+04  0.00000000000E+00 0.  1.
         23    2    1    2    0    0  0.14872909852E+03 -0.13555364345E+04 -0.85065804373E+03  0.16098008478E+04  0.90776056758E+02 0.  0.
         13    1    3    3    0    0  0.61768791177E+02 -0.36499386751E+03 -0.27156663836E+03  0.45911256349E+03  0.00000000000E+00 0. -1.
        -13    1    3    3    0    0  0.86960307343E+02 -0.99054256694E+03 -0.57909140537E+03  0.11506882844E+04  0.00000000000E+00 0.  1.
         22    1    1    2    0    0 -0.14872909852E+03  0.13555364345E+04  0.23557116044E+04  0.27219435213E+04  0.00000000000E+00 0. -1.
<mgrwt>
<rscale>  0 0.40618743E+04</rscale>
<asrwt>0</asrwt>
<pdfrwt beam="1">  1        2 0.44898446E+00 0.40618743E+04</pdfrwt>
<pdfrwt beam="2">  1       -2 0.21743775E+00 0.40618743E+04</pdfrwt>
<totfact> 0.15757361E-01</totfact>
</mgrwt>
</event>
<event>
 6    1  0.2238133E-007  0.3807856E+04  0.7818608E-02  0.8044471E-01
          2   -1    0    0  501    0  0.00000000000E+00  0.00000000000E+00  0.39577580700E+04  0.39577580700E+04  0.00000000000E+00 0. -1.
         -2   -1    0    0    0  501 -0.00000000000E+00 -0.00000000000E+00 -0.91590792449E+03  0.91590792449E+03  0.00000000000E+00 0.  1.
         23    2    1    2    0    0 -0.78290316456E+03 -0.54081742748E+03  0.36308582108E+04  0.37545809414E+04  0.91246060861E+02 0.  0.
         13    1    3    3    0    0 -0.28176435848E+03 -0.22827020334E+03  0.12477554791E+04  0.12993814586E+04  0.00000000000E+00 0.  1.
        -13    1    3    3    0    0 -0.50113880608E+03 -0.31254722414E+03  0.23831027317E+04  0.24551994828E+04  0.00000000000E+00 0. -1.
         22    1    1    2    0    0  0.78290316456E+03  0.54081742748E+03 -0.58900806533E+03  0.11190850531E+04  0.00000000000E+00 0.  1.
<mgrwt>
<rscale>  0 0.38078561E+04</rscale>
<asrwt>0</asrwt>
<pdfrwt beam="1">  1        2 0.60888585E+00 0.38078561E+04</pdfrwt>
<pdfrwt beam="2">  1       -2 0.14090891E+00 0.38078561E+04</pdfrwt>
<totfact> 0.10436280E-01</totfact>
</mgrwt>
</event>
<event>
 6    1  0.2238133E-007  0.1819533E+04  0.7818608E-02  0.8695981E-01
         -1   -1    0    0    0  501 -0.00000000000E+00  0.00000000000E+00  0.48761380953E+03  0.48761380953E+03  0.00000000000E+00 0.  1.
          1   -1    0    0  501    0  0.00000000000E+00 -0.00000000000E+00 -0.16973981671E+04  0.16973981671E+04  0.00000000000E+00 0. -1.
         23    2    1    2    0    0 -0.77474969172E+02 -0.23878104023E+03 -0.16536396964E+04  0.16750842191E+04  0.91455669457E+02 0.  0.
         13    1    3    3    0    0 -0.52842370720E+02 -0.23350779527E+03 -0.14140871056E+04  0.14342107756E+04  0.00000000000E+00 0.  1.
        -13    1    3    3    0    0 -0.24632598452E+02 -0.52732449621E+01 -0.23955259088E+03  0.24087344356E+03  0.00000000000E+00 0. -1.
         22    1    1    2    0    0  0.77474969172E+02  0.23878104023E+03  0.44385533888E+03  0.50992775750E+03  0.00000000000E+00 0.  1.
<mgrwt>
<rscale>  0 0.18195327E+04</rscale>
<asrwt>0</asrwt>
<pdfrwt beam="1">  1        1 0.26113818E+00 0.18195327E+04</pdfrwt>
<pdfrwt beam="2">  1       -1 0.75017510E-01 0.18195327E+04</pdfrwt>
<totfact> 0.80555958E+00</totfact>
</mgrwt>
</event>
<event>
 6    1  0.2238133E-007  0.1787845E+04  0.7818608E-02  0.8712790E-01
         -2   -1    0    0    0  501 -0.00000000000E+00  0.00000000000E+00  0.53372717279E+03  0.53372717279E+03  0.00000000000E+00 0.  1.
          2   -1    0    0  501    0  0.00000000000E+00 -0.00000000000E+00 -0.14972013123E+04  0.14972013123E+04  0.00000000000E+00 0. -1.
         23    2    1    2    0    0  0.80252922650E+02 -0.88618193866E+03 -0.42010383124E+03  0.98833064703E+03  0.92473124928E+02 0.  0.
         13    1    3    3    0    0  0.19855418762E+02 -0.28925587806E+03 -0.90232917685E+02  0.30365305874E+03  0.00000000000E+00 0. -1.
        -13    1    3    3    0    0  0.60397503888E+02 -0.59692606059E+03 -0.32987091356E+03  0.68467758829E+03  0.00000000000E+00 0.  1.
         22    1    1    2    0    0 -0.80252922650E+02  0.88618193866E+03 -0.54337030822E+03  0.10425978380E+04  0.00000000000E+00 0. -1.
<mgrwt>
<rscale>  0 0.17878445E+04</rscale>
<asrwt>0</asrwt>
<pdfrwt beam="1">  1        2 0.23033866E+00 0.17878445E+04</pdfrwt>
<pdfrwt beam="2">  1       -2 0.82111873E-01 0.17878445E+04</pdfrwt>
<totfact> 0.15691115E+01</totfact>
</mgrwt>
</event>
<event>
 6    1  0.2238133E-007  0.2830943E+04  0.7818608E-02  0.8293726E-01
         -2   -1    0    0    0  501 -0.00000000000E+00  0.00000000000E+00  0.81185720442E+03  0.81185720442E+03  0.00000000000E+00 0.  1.
          2   -1    0    0  501    0  0.00000000000E+00 -0.00000000000E+00 -0.24678712187E+04  0.24678712187E+04  0.00000000000E+00 0. -1.
         23    2    1    2    0    0 -0.61304347237E+03 -0.12165735035E+04 -0.12678441792E+04  0.18632012581E+04  0.90645886988E+02 0.  0.
         11    1    3    3    0    0 -0.75601583919E+02 -0.22622977154E+03 -0.21843411840E+03  0.32343310453E+03  0.00000000000E+00 0.  1.
        -11    1    3    3    0    0 -0.53744188845E+03 -0.99034373198E+03 -0.10494100608E+04  0.15397681535E+04  0.00000000000E+00 0. -1.
         22    1    1    2    0    0  0.61304347237E+03  0.12165735035E+04 -0.38816983506E+03  0.14165271651E+04  0.00000000000E+00 0.  1.
<mgrwt>
<rscale>  0 0.28309426E+04</rscale>
<asrwt>0</asrwt>
<pdfrwt beam="1">  1        2 0.37967250E+00 0.28309426E+04</pdfrwt>
<pdfrwt beam="2">  1       -2 0.12490111E+00 0.28309426E+04</pdfrwt>
<totfact> 0.15148283E+00</totfact>
</mgrwt>
</event>
<event>
 6    1  0.2238133E-007  0.1658082E+04  0.7818608E-02  0.8785640E-01
         -2   -1    0    0    0  501 -0.00000000000E+00  0.00000000000E+00  0.50341207151E+03  0.50341207151E+03  0.00000000000E+00 0.  1.
          2   -1    0    0  501    0  0.00000000000E+00 -0.00000000000E+00 -0.13653008436E+04  0.13653008436E+04  0.00000000000E+00 0. -1.
         23    2    1    2    0    0  0.73717541811E+03  0.35094122336E+03 -0.28722686591E+03  0.87030235539E+03  0.91321289829E+02 0.  0.
         11    1    3    3    0    0  0.38803265138E+03  0.15210064250E+03 -0.10927690376E+03  0.43086585579E+03  0.00000000000E+00 0.  1.
        -11    1    3    3    0    0  0.34914276674E+03  0.19884058085E+03 -0.17794996214E+03  0.43943649960E+03  0.00000000000E+00 0. -1.
         22    1    1    2    0    0 -0.73717541811E+03 -0.35094122336E+03 -0.57466190617E+03  0.99841055970E+03  0.00000000000E+00 0. -1.
<mgrwt>
<rscale>  0 0.16580819E+04</rscale>
<asrwt>0</asrwt>
<pdfrwt beam="1">  1        2 0.21004629E+00 0.16580819E+04</pdfrwt>
<pdfrwt beam="2">  1       -2 0.77448010E-01 0.16580819E+04</pdfrwt>
<totfact> 0.21501876E+01</totfact>
</mgrwt>
</event>
<event>
 6    1  0.2238133E-007  0.5619562E+04  0.7818608E-02  0.7739448E-01
          2   -1    0    0  501    0  0.00000000000E+00  0.00000000000E+00  0.44101528589E+04  0.44101528589E+04  0.00000000000E+00 0. -1.
         -2   -1    0    0    0  501 -0.00000000000E+00 -0.00000000000E+00 -0.17901576638E+04  0.17901576638E+04  0.00000000000E+00 0.  1.
         23    2    1    2    0    0 -0.80485200770E+03 -0.97357827726E+03 -0.14579595764E+04  0.19311939239E+04  0.90677611252E+02 0.  0.
         13    1    3    3    0    0 -0.24658705936E+03 -0.36303896965E+03 -0.52465975740E+03  0.68401047679E+03  0.00000000000E+00 0. -1.
        -13    1    3    3    0    0 -0.55826494834E+03 -0.61053930762E+03 -0.93329981898E+03  0.12471834471E+04  0.00000000000E+00 0.  1.
         22    1    1    2    0    0  0.80485200770E+03  0.97357827726E+03  0.40779547714E+04  0.42691165988E+04  0.00000000000E+00 0. -1.
<mgrwt>
<rscale>  0 0.56195619E+04</rscale>
<asrwt>0</asrwt>
<pdfrwt beam="1">  1        2 0.67848505E+00 0.56195619E+04</pdfrwt>
<pdfrwt beam="2">  1       -2 0.27540887E+00 0.56195619E+04</pdfrwt>
<totfact> 0.46296201E-03</totfact>
</mgrwt>
</event>
<event>
 6    1  0.2238133E-007  0.4190450E+04  0.7818608E-02  0.7967191E-01
         -2   -1    0    0    0  501 -0.00000000000E+00  0.00000000000E+00  0.16320466559E+04  0.16320466559E+04  0.00000000000E+00 0.  1.
          2   -1    0    0  501    0  0.00000000000E+00 -0.00000000000E+00 -0.26898544664E+04  0.26898544664E+04  0.00000000000E+00 0. -1.
         23    2    1    2    0    0 -0.15022931268E+04  0.22719727677E+03  0.95738467874E+03  0.17981134906E+04  0.90130242370E+02 0.  0.
         11    1    3    3    0    0 -0.52623650372E+03  0.12189389653E+03  0.32748330805E+03  0.63168686618E+03  0.00000000000E+00 0. -1.
        -11    1    3    3    0    0 -0.97605662310E+03  0.10530338024E+03  0.62990137069E+03  0.11664266244E+04  0.00000000000E+00 0.  1.
         22    1    1    2    0    0  0.15022931268E+04 -0.22719727677E+03 -0.20151924892E+04  0.25237876317E+04  0.00000000000E+00 0. -1.
<mgrwt>
<rscale>  0 0.41904501E+04</rscale>
<asrwt>0</asrwt>
<pdfrwt beam="1">  1        2 0.41382376E+00 0.41904501E+04</pdfrwt>
<pdfrwt beam="2">  1       -2 0.25108410E+00 0.41904501E+04</pdfrwt>
<totfact> 0.13236196E-01</totfact>
</mgrwt>
</event>
<event>
 6    1  0.2238133E-007  0.2007005E+04  0.7818608E-02  0.8603352E-01
          2   -1    0    0  501    0  0.00000000000E+00  0.00000000000E+00  0.21830978931E+04  0.21830978931E+04  0.00000000000E+00 0. -1.
         -2   -1    0    0    0  501 -0.00000000000E+00 -0.00000000000E+00 -0.46127923703E+03  0.46127923703E+03  0.00000000000E+00 0.  1.
         23    2    1    2    0    0  0.74163061860E+03 -0.66586535197E+03  0.99081516602E+03  0.14083517486E+04  0.91363630848E+02 0.  0.
         11    1    3    3    0    0  0.36432662769E+03 -0.36732089337E+03  0.56181037787E+03  0.76373387448E+03  0.00000000000E+00 0.  1.
        -11    1    3    3    0    0  0.37730399091E+03 -0.29854445860E+03  0.42900478816E+03  0.64461787408E+03  0.00000000000E+00 0. -1.
         22    1    1    2    0    0 -0.74163061860E+03  0.66586535197E+03  0.73100349003E+03  0.12360253815E+04  0.00000000000E+00 0.  1.
<mgrwt>
<rscale>  0 0.20070055E+04</rscale>
<asrwt>0</asrwt>
<pdfrwt beam="1">  1        2 0.33586121E+00 0.20070055E+04</pdfrwt>
<pdfrwt beam="2">  1       -2 0.70966038E-01 0.20070055E+04</pdfrwt>
<totfact> 0.88410994E+00</totfact>
</mgrwt>
</event>
<event>
 6    1  0.2238133E-007  0.4061406E+04  0.7818608E-02  0.7992272E-01
          2   -1    0    0  501    0  0.00000000000E+00  0.00000000000E+00  0.38010236238E+04  0.38010236238E+04  0.00000000000E+00 0. -1.
         -2   -1    0    0    0  501 -0.00000000000E+00 -0.00000000000E+00 -0.10849065531E+04  0.10849065531E+04  0.00000000000E+00 0.  1.
         23    2    1    2    0    0 -0.16490624531E+04  0.90244783186E+03  0.22795040239E+04  0.29560467566E+04  0.90855758750E+02 0.  0.
         11    1    3    3    0    0 -0.11728666202E+04  0.68744825393E+03  0.16350127589E+04  0.21263743632E+04  0.00000000000E+00 0. -1.
        -11    1    3    3    0    0 -0.47619583286E+03  0.21499957793E+03  0.64449126505E+03  0.82967239346E+03  0.00000000000E+00 0.  1.
         22    1    1    2    0    0  0.16490624531E+04 -0.90244783186E+03  0.43661304676E+03  0.19298834203E+04  0.00000000000E+00 0.  1.
<mgrwt>
<rscale>  0 0.40614064E+04</rscale>
<asrwt>0</asrwt>
<pdfrwt beam="1">  1        2 0.58477286E+00 0.40614064E+04</pdfrwt>
<pdfrwt beam="2">  1       -2 0.16690870E+00 0.40614064E+04</pdfrwt>
<totfact> 0.86060826E-02</totfact>
</mgrwt>
</event>
<event>
 6    1  0.2278060E-007  0.2986490E+04  0.7818608E-02  0.8247599E-01
          2   -1    0    0  501    0  0.00000000000E+00  0.00000000000E+00  0.21157006593E+04  0.21157006593E+04  0.00000000000E+00 0. -1.
         -2   -1    0    0    0  501 -0.00000000000E+00 -0.00000000000E+00 -0.10539204806E+04  0.10539204806E+04  0.00000000000E+00 0.  1.
         23    2    1    2    0    0 -0.93607696921E+03 -0.86483937436E+03  0.13540857987E+04  0.18620930097E+04  0.98258795942E+02 0.  0.
         11    1    3    3    0    0 -0.50387902554E+03 -0.50143562245E+03  0.69448687832E+03  0.99380268665E+03  0.00000000000E+00 0. -1.
        -11    1    3    3    0    0 -0.43219794367E+03 -0.36340375192E+03  0.65959892035E+03  0.86829032308E+03  0.00000000000E+00 0.  1.
         22    1    1    2    0    0  0.93607696921E+03  0.86483937436E+03 -0.29230561995E+03  0.13075281302E+04  0.00000000000E+00 0.  1.
<mgrwt>
<rscale>  0 0.29864897E+04</rscale>
<asrwt>0</asrwt>
<pdfrwt beam="1">  1        2 0.32549241E+00 0.29864897E+04</pdfrwt>
<pdfrwt beam="2">  1       -2 0.16214161E+00 0.29864897E+04</pdfrwt>
<totfact> 0.11986723E+00</totfact>
</mgrwt>
</event>
<event>
 6    1  0.2238133E-007  0.1068464E+04  0.7818608E-02  0.9236486E-01
         -2   -1    0    0    0  501 -0.00000000000E+00  0.00000000000E+00  0.10673311277E+04  0.10673311277E+04  0.00000000000E+00 0.  1.
          2   -1    0    0  501    0  0.00000000000E+00 -0.00000000000E+00 -0.26739975131E+03  0.26739975131E+03  0.00000000000E+00 0. -1.
         23    2    1    2    0    0 -0.33094985790E+03  0.40731547985E+03  0.30648580894E+03  0.61436830600E+03  0.89895248869E+02 0.  0.
         13    1    3    3    0    0 -0.11611851097E+03  0.12172108730E+03  0.14545764842E+03  0.22239033065E+03  0.00000000000E+00 0.  1.
        -13    1    3    3    0    0 -0.21483134693E+03  0.28559439255E+03  0.16102816052E+03  0.39197797535E+03  0.00000000000E+00 0. -1.
         22    1    1    2    0    0  0.33094985790E+03 -0.40731547985E+03  0.49344556748E+03  0.72036257304E+03  0.00000000000E+00 0.  1.
<mgrwt>
<rscale>  0 0.10684645E+04</rscale>
<asrwt>0</asrwt>
<pdfrwt beam="1">  1        2 0.41138424E-01 0.10684645E+04</pdfrwt>
<pdfrwt beam="2">  1       -2 0.16420479E+00 0.10684645E+04</pdfrwt>
<totfact> 0.29102561E+01</totfact>
</mgrwt>
</event>
<event>
 6    1  0.2238133E-007  0.3264065E+04  0.7818608E-02  0.8172100E-01
          2   -1    0    0  501    0  0.00000000000E+00  0.00000000000E+00  0.24964529249E+04  0.24964529249E+04  0.00000000000E+00 0. -1.
         -2   -1    0    0    0  501 -0.00000000000E+00 -0.00000000000E+00 -0.10669260557E+04  0.10669260557E+04  0.00000000000E+00 0.  1.
         23    2    1    2    0    0  0.25242332861E+03 -0.33372664793E+03 -0.10053370280E+04  0.10928217134E+04  0.92009483687E+02 0.  0.
         11    1    3    3    0    0  0.12782855535E+03 -0.16659564322E+03 -0.38712817374E+03  0.44041170603E+03  0.00000000000E+00 0.  1.
        -11    1    3    3    0    0  0.12459477325E+03 -0.16713100471E+03 -0.61820885426E+03  0.65241000739E+03  0.00000000000E+00 0. -1.
         22    1    1    2    0    0 -0.25242332861E+03  0.33372664793E+03  0.24348638972E+04  0.24705572672E+04  0.00000000000E+00 0. -1.
<mgrwt>
<rscale>  0 0.32640654E+04</rscale>
<asrwt>0</asrwt>
<pdfrwt beam="1">  1        2 0.38406968E+00 0.32640654E+04</pdfrwt>
<pdfrwt beam="2">  1       -2 0.16414247E+00 0.32640654E+04</pdfrwt>
<totfact> 0.68798583E-01</totfact>
</mgrwt>
</event>
<event>
 6    1  0.2238133E-007  0.5518595E+04  0.7818608E-02  0.7753136E-01
          2   -1    0    0  501    0  0.00000000000E+00  0.00000000000E+00  0.14996923396E+04  0.14996923396E+04  0.00000000000E+00 0. -1.
         -2   -1    0    0    0  501 -0.00000000000E+00 -0.00000000000E+00 -0.50768567996E+04  0.50768567996E+04  0.00000000000E+00 0.  1.
         23    2    1    2    0    0  0.13650386203E+04 -0.19020167163E+04 -0.35278441736E+04  0.42348765501E+04  0.86584397822E+02 0.  0.
         13    1    3    3    0    0  0.50197434010E+03 -0.72628431526E+03 -0.12603877866E+04  0.15388451895E+04  0.00000000000E+00 0. -1.
        -13    1    3    3    0    0  0.86306428018E+03 -0.11757324010E+04 -0.22674563870E+04  0.26960313606E+04  0.00000000000E+00 0.  1.
         22    1    1    2    0    0 -0.13650386203E+04  0.19020167163E+04 -0.49320286469E+02  0.23416725891E+04  0.00000000000E+00 0. -1.
<mgrwt>
<rscale>  0 0.55185952E+04</rscale>
<asrwt>0</asrwt>
<pdfrwt beam="1">  1        2 0.23072189E+00 0.55185952E+04</pdfrwt>
<pdfrwt beam="2">  1       -2 0.78105491E+00 0.55185952E+04</pdfrwt>
<totfact> 0.89813345E-04</totfact>
</mgrwt>
</event>
<event>
 6    1  0.2238133E-007  0.1582040E+04  0.7818608E-02  0.8831658E-01
         -2   -1    0    0    0  501 -0.00000000000E+00  0.00000000000E+00  0.43928793944E+03  0.43928793944E+03  0.00000000000E+00 0.  1.
          2   -1    0    0  501    0  0.00000000000E+00 -0.00000000000E+00 -0.14243784629E+04  0.14243784629E+04  0.00000000000E+00 0. -1.
         23    2    1    2    0    0 -0.94429382746E+02  0.39115667047E+03 -0.12929833214E+04  0.13569925188E+04  0.87763189144E+02 0.  0.
         11    1    3    3    0    0 -0.18641584702E+02  0.17227678381E+03 -0.43365672927E+03  0.46699567210E+03  0.00000000000E+00 0.  1.
        -11    1    3    3    0    0 -0.75787798043E+02  0.21887988666E+03 -0.85932659217E+03  0.88999684669E+03  0.00000000000E+00 0. -1.
         22    1    1    2    0    0  0.94429382746E+02 -0.39115667047E+03  0.30789279800E+03  0.50667388352E+03  0.00000000000E+00 0.  1.
<mgrwt>
<rscale>  0 0.15820395E+04</rscale>
<asrwt>0</asrwt>
<pdfrwt beam="1">  1        2 0.21913515E+00 0.15820395E+04</pdfrwt>
<pdfrwt beam="2">  1       -2 0.67582760E-01 0.15820395E+04</pdfrwt>
<totfact> 0.27002841E+01</totfact>
</mgrwt>
</event>
<event>
 6    1  0.2238133E-007  0.4595833E+03  0.7818608E-02  0.1024902E+00
          2   -1    0    0  501    0  0.00000000000E+00  0.00000000000E+00  0.44837914348E+03  0.44837914348E+03  0.00000000000E+00 0. -1.
         -2   -1    0    0    0  501 -0.00000000000E+00 -0.00000000000E+00 -0.11776687752E+03  0.11776687752E+03  0.00000000000E+00 0.  1.
         23    2    1    2    0    0 -0.98060273947E+02  0.48298192027E+02 -0.63695136667E+02  0.15696774635E+03  0.92915393124E+02 0.  0.
         11    1    3    3    0    0 -0.97234186112E+02  0.51305404800E+02 -0.18284062709E+02  0.11144971269E+03  0.00000000000E+00 0.  1.
        -11    1    3    3    0    0 -0.82608783474E+00 -0.30072127737E+01 -0.45411073958E+02  0.45518033655E+02  0.00000000000E+00 0. -1.
         22    1    1    2    0    0  0.98060273947E+02 -0.48298192027E+02  0.39430740263E+03  0.40917827465E+03  0.00000000000E+00 0. -1.
<mgrwt>
<rscale>  0 0.45958334E+03</rscale>
<asrwt>0</asrwt>
<pdfrwt beam="1">  1        2 0.68981405E-01 0.45958334E+03</pdfrwt>
<pdfrwt beam="2">  1       -2 0.18117981E-01 0.45958334E+03</pdfrwt>
<totfact> 0.17628752E+03</totfact>
</mgrwt>
</event>
<event>
 6    1  0.2238133E-007  0.2422379E+04  0.7818608E-02  0.8431172E-01
         -2   -1    0    0    0  501 -0.00000000000E+00  0.00000000000E+00  0.11942083970E+04  0.11942083970E+04  0.00000000000E+00 0.  1.
          2   -1    0    0  501    0  0.00000000000E+00 -0.00000000000E+00 -0.12284122231E+04  0.12284122231E+04  0.00000000000E+00 0. -1.
         23    2    1    2    0    0  0.68043992108E+03 -0.49066287390E+03 -0.88851787249E+03  0.12252898254E+04  0.90125493506E+02 0.  0.
         11    1    3    3    0    0  0.17839220065E+03 -0.10746327729E+03 -0.17159384746E+03  0.26984547746E+03  0.00000000000E+00 0.  1.
        -11    1    3    3    0    0  0.50204772043E+03 -0.38319959661E+03 -0.71692402503E+03  0.95544434799E+03  0.00000000000E+00 0. -1.
         22    1    1    2    0    0 -0.68043992108E+03  0.49066287390E+03  0.85431404642E+03  0.11973307947E+04  0.00000000000E+00 0.  1.
<mgrwt>
<rscale>  0 0.24223792E+04</rscale>
<asrwt>0</asrwt>
<pdfrwt beam="1">  1        2 0.18898650E+00 0.24223792E+04</pdfrwt>
<pdfrwt beam="2">  1       -2 0.18372437E+00 0.24223792E+04</pdfrwt>
<totfact> 0.27950815E+00</totfact>
</mgrwt>
</event>
<event>
 6    1  0.2238133E-007  0.4489529E+04  0.7818608E-02  0.7912473E-01
         -2   -1    0    0    0  501 -0.00000000000E+00  0.00000000000E+00  0.12440267043E+04  0.12440267043E+04  0.00000000000E+00 0.  1.
          2   -1    0    0  501    0  0.00000000000E+00 -0.00000000000E+00 -0.40505294171E+04  0.40505294171E+04  0.00000000000E+00 0. -1.
         23    2    1    2    0    0 -0.42330406503E+03  0.20042961310E+04 -0.32417076535E+03  0.20761153172E+04  0.93695321559E+02 0.  0.
         13    1    3    3    0    0 -0.22846792554E+03  0.88001640081E+03 -0.12280583312E+03  0.91744630978E+03  0.00000000000E+00 0.  1.
        -13    1    3    3    0    0 -0.19483613949E+03  0.11242797301E+04 -0.20136493223E+03  0.11586690074E+04  0.00000000000E+00 0. -1.
         22    1    1    2    0    0  0.42330406503E+03 -0.20042961310E+04 -0.24823319475E+04  0.32184408041E+04  0.00000000000E+00 0. -1.
<mgrwt>
<rscale>  0 0.44895286E+04</rscale>
<asrwt>0</asrwt>
<pdfrwt beam="1">  1        2 0.62315838E+00 0.44895286E+04</pdfrwt>
<pdfrwt beam="2">  1       -2 0.19138872E+00 0.44895286E+04</pdfrwt>
<totfact> 0.35629912E-02</totfact>
</mgrwt>
</event>
<event>
 6    1  0.2683170E-007  0.3385817E+04  0.7818608E-02  0.8141396E-01
         -2   -1    0    0    0  501 -0.00000000000E+00  0.00000000000E+00  0.14877193428E+04  0.14877193428E+04  0.00000000000E+00 0.  1.
          2   -1    0    0  501    0  0.00000000000E+00 -0.00000000000E+00 -0.19263982235E+04  0.19263982235E+04  0.00000000000E+00 0. -1.
         23    2    1    2    0    0 -0.57769961686E+01  0.84663970268E+03  0.12571169974E+04  0.15187136991E+04  0.96519402372E+02 0.  0.
         11    1    3    3    0    0 -0.40177599774E+02  0.39892073851E+03  0.53915092539E+03  0.67188966020E+03  0.00000000000E+00 0. -1.
        -11    1    3    3    0    0  0.34400603605E+02  0.44771896417E+03  0.71796607197E+03  0.84682403893E+03  0.00000000000E+00 0.  1.
         22    1    1    2    0    0  0.57769961686E+01 -0.84663970268E+03 -0.16957958780E+04  0.18954038672E+04  0.00000000000E+00 0. -1.
<mgrwt>
<rscale>  0 0.33858174E+04</rscale>
<asrwt>0</asrwt>
<pdfrwt beam="1">  1        2 0.29636896E+00 0.33858174E+04</pdfrwt>
<pdfrwt beam="2">  1       -2 0.22887990E+00 0.33858174E+04</pdfrwt>
<totfact> 0.52911703E-01</totfact>
</mgrwt>
</event>
<event>
 6    1  0.2238133E-007  0.2304160E+04  0.7818608E-02  0.8476283E-01
         -2   -1    0    0    0  501 -0.00000000000E+00  0.00000000000E+00  0.80901987089E+03  0.80901987089E+03  0.00000000000E+00 0.  1.
          2   -1    0    0  501    0  0.00000000000E+00 -0.00000000000E+00 -0.16406121353E+04  0.16406121353E+04  0.00000000000E+00 0. -1.
         23    2    1    2    0    0  0.89273168746E+03  0.28558810090E+03 -0.11252919120E+04  0.14673948087E+04  0.91843388589E+02 0.  0.
         13    1    3    3    0    0  0.30680718837E+03  0.11586406961E+03 -0.45781912190E+03  0.56316381439E+03  0.00000000000E+00 0. -1.
        -13    1    3    3    0    0  0.58592449909E+03  0.16972403129E+03 -0.66747279015E+03  0.90423099428E+03  0.00000000000E+00 0.  1.
         22    1    1    2    0    0 -0.89273168746E+03 -0.28558810090E+03  0.29369964764E+03  0.98223719752E+03  0.00000000000E+00 0.  1.
<mgrwt>
<rscale>  0 0.23041596E+04</rscale>
<asrwt>0</asrwt>
<pdfrwt beam="1">  1        2 0.25240186E+00 0.23041596E+04</pdfrwt>
<pdfrwt beam="2">  1       -2 0.12446460E+00 0.23041596E+04</pdfrwt>
<totfact> 0.46497497E+00</totfact>
</mgrwt>
</event>
<event>
 6    1  0.2238133E-007  0.2243428E+04  0.7818608E-02  0.8500567E-01
          2   -1    0    0  501    0  0.00000000000E+00  0.00000000000E+00  0.12601889597E+04  0.12601889597E+04  0.00000000000E+00 0. -1.
         -2   -1    0    0    0  501 -0.00000000000E+00 -0.00000000000E+00 -0.99845518905E+03  0.99845518905E+03  0.00000000000E+00 0.  1.
         23    2    1    2    0    0 -0.10342733732E+04 -0.79061248211E+01  0.56335329367E+03  0.11812592343E+04  0.90678154170E+02 0.  0.
         11    1    3    3    0    0 -0.31430736097E+03 -0.13061217558E+02  0.12617341423E+03  0.33893870098E+03  0.00000000000E+00 0.  1.
        -11    1    3    3    0    0 -0.71996601227E+03  0.51550927370E+01  0.43717987944E+03  0.84232053328E+03  0.00000000000E+00 0. -1.
         22    1    1    2    0    0  0.10342733732E+04  0.79061248211E+01 -0.30161952298E+03  0.10773849145E+04  0.00000000000E+00 0. -1.
<mgrwt>
<rscale>  0 0.22434279E+04</rscale>
<asrwt>0</asrwt>
<pdfrwt beam="1">  1        2 0.19387522E+00 0.22434279E+04</pdfrwt>
<pdfrwt beam="2">  1       -2 0.15360849E+00 0.22434279E+04</pdfrwt>
<totfact> 0.44688868E+00</totfact>
</mgrwt>
</event>
<event>
 6    1  0.2238133E-007  0.1393911E+04  0.7818608E-02  0.8958238E-01
          2   -1    0    0  501    0  0.00000000000E+00  0.00000000000E+00  0.58471165139E+03  0.58471165139E+03  0.00000000000E+00 0. -1.
         -2   -1    0    0    0  501 -0.00000000000E+00 -0.00000000000E+00 -0.83074610212E+03  0.83074610212E+03  0.00000000000E+00 0.  1.
         23    2    1    2    0    0  0.11143509987E+03  0.16744280646E+03 -0.79800681844E+03  0.82798148196E+03  0.91014159745E+02 0.  0.
         13    1    3    3    0    0  0.31764038612E+02 -0.22498979364E+01 -0.15330890358E+03  0.15658108477E+03  0.00000000000E+00 0. -1.
        -13    1    3    3    0    0  0.79671061255E+02  0.16969270440E+03 -0.64469791486E+03  0.67140039719E+03  0.00000000000E+00 0.  1.
         22    1    1    2    0    0 -0.11143509987E+03 -0.16744280646E+03  0.55197236771E+03  0.58747627155E+03  0.00000000000E+00 0. -1.
<mgrwt>
<rscale>  0 0.13939109E+04</rscale>
<asrwt>0</asrwt>
<pdfrwt beam="1">  1        2 0.89955639E-01 0.13939109E+04</pdfrwt>
<pdfrwt beam="2">  1       -2 0.12780709E+00 0.13939109E+04</pdfrwt>
<totfact> 0.22581247E+01</totfact>
</mgrwt>
</event>
<event>
 6    1  0.3398751E-007  0.2940126E+04  0.7818608E-02  0.8261038E-01
         -2   -1    0    0    0  501 -0.00000000000E+00  0.00000000000E+00  0.12581068894E+04  0.12581068894E+04  0.00000000000E+00 0.  1.
          2   -1    0    0  501    0  0.00000000000E+00 -0.00000000000E+00 -0.17177274382E+04  0.17177274382E+04  0.00000000000E+00 0. -1.
         23    2    1    2    0    0  0.50251131728E+03  0.17879474208E+03  0.11548920863E+04  0.12755001744E+04  0.92950418006E+02 0.  0.
         11    1    3    3    0    0  0.37376727087E+03  0.13771466572E+03  0.94913842403E+03  0.10293352466E+04  0.00000000000E+00 0. -1.
        -11    1    3    3    0    0  0.12874404641E+03  0.41080076359E+02  0.20575366227E+03  0.24616492784E+03  0.00000000000E+00 0.  1.
         22    1    1    2    0    0 -0.50251131728E+03 -0.17879474208E+03 -0.16145126351E+04  0.17003341532E+04  0.00000000000E+00 0. -1.
<mgrwt>
<rscale>  0 0.29401257E+04</rscale>
<asrwt>0</asrwt>
<pdfrwt beam="1">  1        2 0.26426576E+00 0.29401257E+04</pdfrwt>
<pdfrwt beam="2">  1       -2 0.19355491E+00 0.29401257E+04</pdfrwt>
<totfact> 0.12102379E+00</totfact>
</mgrwt>
</event>
<event>
 6    1  0.2238133E-007  0.4712281E+03  0.7818608E-02  0.1021574E+00
          2   -1    0    0  501    0  0.00000000000E+00  0.00000000000E+00  0.80279756516E+02  0.80279756516E+02  0.00000000000E+00 0. -1.
         -2   -1    0    0    0  501 -0.00000000000E+00 -0.00000000000E+00 -0.69150669267E+03  0.69150669267E+03  0.00000000000E+00 0.  1.
         23    2    1    2    0    0 -0.19093973193E+02  0.22478520355E+03 -0.28777588299E+03  0.37743438397E+03  0.93534955085E+02 0.  0.
         11    1    3    3    0    0 -0.54128381571E+02  0.17340337510E+03 -0.20508435493E+03  0.27396752512E+03  0.00000000000E+00 0.  1.
        -11    1    3    3    0    0  0.35034408378E+02  0.51381828454E+02 -0.82691528061E+02  0.10346685884E+03  0.00000000000E+00 0. -1.
         22    1    1    2    0    0  0.19093973193E+02 -0.22478520355E+03 -0.32345105316E+03  0.39435206522E+03  0.00000000000E+00 0. -1.
<mgrwt>
<rscale>  0 0.47122814E+03</rscale>
<asrwt>0</asrwt>
<pdfrwt beam="1">  1        2 0.12350732E-01 0.47122814E+03</pdfrwt>
<pdfrwt beam="2">  1       -2 0.10638564E+00 0.47122814E+03</pdfrwt>
<totfact> 0.36692360E+02</totfact>
</mgrwt>
</event>
<event>
 6    1  0.2238133E-007  0.2773703E+04  0.7818608E-02  0.8311479E-01
         -2   -1    0    0    0  501 -0.00000000000E+00  0.00000000000E+00  0.11040911401E+04  0.11040911401E+04  0.00000000000E+00 0.  1.
          2   -1    0    0  501    0  0.00000000000E+00 -0.00000000000E+00 -0.17420277991E+04  0.17420277991E+04  0.00000000000E+00 0. -1.
         23    2    1    2    0    0  0.72228677075E+03  0.67646267426E+03  0.67536495370E+03  0.12017159914E+04  0.93292950131E+02 0.  0.
         13    1    3    3    0    0  0.42897422897E+03  0.43189450114E+03  0.36644886162E+03  0.71051848493E+03  0.00000000000E+00 0. -1.
        -13    1    3    3    0    0  0.29331254178E+03  0.24456817312E+03  0.30891609207E+03  0.49119750652E+03  0.00000000000E+00 0.  1.
         22    1    1    2    0    0 -0.72228677075E+03 -0.67646267426E+03 -0.13133016127E+04  0.16444029478E+04  0.00000000000E+00 0. -1.
<mgrwt>
<rscale>  0 0.27737033E+04</rscale>
<asrwt>0</asrwt>
<pdfrwt beam="1">  1        2 0.26800428E+00 0.27737033E+04</pdfrwt>
<pdfrwt beam="2">  1       -2 0.16986018E+00 0.27737033E+04</pdfrwt>
<totfact> 0.17314033E+00</totfact>
</mgrwt>
</event>
<event>
 6    1  0.2238133E-007  0.3991961E+04  0.7818608E-02  0.8006170E-01
          2   -1    0    0  501    0  0.00000000000E+00  0.00000000000E+00  0.17411329149E+04  0.17411329149E+04  0.00000000000E+00 0. -1.
         -2   -1    0    0    0  501 -0.00000000000E+00 -0.00000000000E+00 -0.22881293884E+04  0.22881293884E+04  0.00000000000E+00 0.  1.
         23    2    1    2    0    0 -0.11115310367E+04  0.10458155460E+04 -0.15705145721E+04  0.21916495313E+04  0.87064601752E+02 0.  0.
         13    1    3    3    0    0 -0.33944247611E+03  0.37245480860E+03 -0.53715179832E+03  0.73652958764E+03  0.00000000000E+00 0. -1.
        -13    1    3    3    0    0 -0.77208856057E+03  0.67336073737E+03 -0.10333627738E+04  0.14551199436E+04  0.00000000000E+00 0.  1.
         22    1    1    2    0    0  0.11115310367E+04 -0.10458155460E+04  0.10235180987E+04  0.18376127721E+04  0.00000000000E+00 0.  1.
<mgrwt>
<rscale>  0 0.39919606E+04</rscale>
<asrwt>0</asrwt>
<pdfrwt beam="1">  1        2 0.26786660E+00 0.39919606E+04</pdfrwt>
<pdfrwt beam="2">  1       -2 0.35201991E+00 0.39919606E+04</pdfrwt>
<totfact> 0.11092665E-01</totfact>
</mgrwt>
</event>
<event>
 6    1  0.2238133E-007  0.9604996E+03  0.7818608E-02  0.9352962E-01
         -2   -1    0    0    0  501 -0.00000000000E+00  0.00000000000E+00  0.80164657268E+02  0.80164657268E+02  0.00000000000E+00 0.  1.
          2   -1    0    0  501    0  0.00000000000E+00 -0.00000000000E+00 -0.28770769282E+04  0.28770769282E+04  0.00000000000E+00 0. -1.
         23    2    1    2    0    0 -0.30643031702E+03  0.30197097977E+03 -0.20379228524E+04  0.20848019318E+04  0.90462869468E+02 0.  0.
         11    1    3    3    0    0 -0.14469128001E+02  0.12480893129E+02 -0.22647170039E+03  0.22727639437E+03  0.00000000000E+00 0. -1.
        -11    1    3    3    0    0 -0.29196118902E+03  0.28949008664E+03 -0.18114511520E+04  0.18575255375E+04  0.00000000000E+00 0.  1.
         22    1    1    2    0    0  0.30643031702E+03 -0.30197097977E+03 -0.75898941848E+03  0.87243965360E+03  0.00000000000E+00 0.  1.
<mgrwt>
<rscale>  0 0.96049963E+03</rscale>
<asrwt>0</asrwt>
<pdfrwt beam="1">  1        2 0.44262714E+00 0.96049963E+03</pdfrwt>
<pdfrwt beam="2">  1       -2 0.12333026E-01 0.96049963E+03</pdfrwt>
<totfact> 0.10362478E+02</totfact>
</mgrwt>
</event>
<event>
 6    1  0.2238133E-007  0.1437561E+04  0.7818608E-02  0.8927070E-01
          2   -1    0    0  501    0  0.00000000000E+00  0.00000000000E+00  0.12472705681E+04  0.12472705681E+04  0.00000000000E+00 0. -1.
         -2   -1    0    0    0  501 -0.00000000000E+00 -0.00000000000E+00 -0.41422086711E+03  0.41422086711E+03  0.00000000000E+00 0.  1.
         23    2    1    2    0    0  0.86908870793E+02  0.26732602054E+03  0.11791251881E+04  0.12156387736E+04  0.91788156663E+02 0.  0.
         13    1    3    3    0    0  0.67364901625E+02  0.20559878676E+03  0.71492699992E+03  0.74694678948E+03  0.00000000000E+00 0.  1.
        -13    1    3    3    0    0  0.19543969168E+02  0.61727233777E+02  0.46419818815E+03  0.46869198415E+03  0.00000000000E+00 0. -1.
         22    1    1    2    0    0 -0.86908870793E+02 -0.26732602054E+03 -0.34607548708E+03  0.44585266158E+03  0.00000000000E+00 0.  1.
<mgrwt>
<rscale>  0 0.14375611E+04</rscale>
<asrwt>0</asrwt>
<pdfrwt beam="1">  1        2 0.19188778E+00 0.14375611E+04</pdfrwt>
<pdfrwt beam="2">  1       -2 0.63726287E-01 0.14375611E+04</pdfrwt>
<totfact> 0.39255401E+01</totfact>
</mgrwt>
</event>
<event>
 6    1  0.2238133E-007  0.1161841E+04  0.7818608E-02  0.9146928E-01
          2   -1    0    0  501    0  0.00000000000E+00  0.00000000000E+00  0.23714837409E+04  0.23714837409E+04  0.00000000000E+00 0. -1.
         -2   -1    0    0    0  501 -0.00000000000E+00 -0.00000000000E+00 -0.14230281987E+03  0.14230281987E+03  0.00000000000E+00 0.  1.
         23    2    1    2    0    0  0.49957279480E+03  0.25199300241E+03  0.81152005680E+03  0.98970133464E+03  0.88715718062E+02 0.  0.
         11    1    3    3    0    0  0.14043924386E+03  0.11699134490E+03  0.25488212781E+03  0.31364797955E+03  0.00000000000E+00 0. -1.
        -11    1    3    3    0    0  0.35913355093E+03  0.13500165751E+03  0.55663792899E+03  0.67605335509E+03  0.00000000000E+00 0.  1.
         22    1    1    2    0    0 -0.49957279480E+03 -0.25199300241E+03  0.14176608642E+04  0.15240852261E+04  0.00000000000E+00 0.  1.
<mgrwt>
<rscale>  0 0.11618413E+04</rscale>
<asrwt>0</asrwt>
<pdfrwt beam="1">  1        2 0.36484362E+00 0.11618413E+04</pdfrwt>
<pdfrwt beam="2">  1       -2 0.21892743E-01 0.11618413E+04</pdfrwt>
<totfact> 0.74772418E+01</totfact>
</mgrwt>
</event>
<event>
 6    1  0.2238133E-007  0.2649553E+04  0.7818608E-02  0.8351561E-01
          2   -1    0    0  501    0  0.00000000000E+00  0.00000000000E+00  0.13468893838E+04  0.13468893838E+04  0.00000000000E+00 0. -1.
         -2   -1    0    0    0  501 -0.00000000000E+00 -0.00000000000E+00 -0.13030266826E+04  0.13030266826E+04  0.00000000000E+00 0.  1.
         23    2    1    2    0    0 -0.90213717262E+03  0.14074255776E+03 -0.93588759679E+03  0.13106735222E+04  0.91211524451E+02 0.  0.
         13    1    3    3    0    0 -0.46488437179E+03  0.10233346128E+03 -0.43712915836E+03  0.64627510978E+03  0.00000000000E+00 0.  1.
        -13    1    3    3    0    0 -0.43725280082E+03  0.38409096477E+02 -0.49875843843E+03  0.66439841242E+03  0.00000000000E+00 0. -1.
         22    1    1    2    0    0  0.90213717262E+03 -0.14074255776E+03  0.97975029803E+03  0.13392425442E+04  0.00000000000E+00 0. -1.
<mgrwt>
<rscale>  0 0.26495530E+04</rscale>
<asrwt>0</asrwt>
<pdfrwt beam="1">  1        2 0.20721375E+00 0.26495530E+04</pdfrwt>
<pdfrwt beam="2">  1       -2 0.20046564E+00 0.26495530E+04</pdfrwt>
<totfact> 0.18064763E+00</totfact>
</mgrwt>
</event>
<event>
 6    1  0.2238133E-007  0.4090802E+04  0.7818608E-02  0.7986475E-01
          2   -1    0    0  501    0  0.00000000000E+00  0.00000000000E+00  0.20625881603E+04  0.20625881603E+04  0.00000000000E+00 0. -1.
         -2   -1    0    0    0  501 -0.00000000000E+00 -0.00000000000E+00 -0.20283569081E+04  0.20283569081E+04  0.00000000000E+00 0.  1.
         23    2    1    2    0    0 -0.11364934983E+04  0.54048689978E+03 -0.15940949375E+04  0.20329874059E+04  0.90308151943E+02 0.  0.
         11    1    3    3    0    0 -0.38023674451E+03  0.19042752692E+03 -0.60729559650E+03  0.74138422320E+03  0.00000000000E+00 0. -1.
        -11    1    3    3    0    0 -0.75625675377E+03  0.35005937286E+03 -0.98679934098E+03  0.12916031827E+04  0.00000000000E+00 0.  1.
         22    1    1    2    0    0  0.11364934983E+04 -0.54048689978E+03  0.16283261898E+04  0.20579576625E+04  0.00000000000E+00 0. -1.
<mgrwt>
<rscale>  0 0.40908018E+04</rscale>
<asrwt>0</asrwt>
<pdfrwt beam="1">  1        2 0.31732126E+00 0.40908018E+04</pdfrwt>
<pdfrwt beam="2">  1       -2 0.31205491E+00 0.40908018E+04</pdfrwt>
<totfact> 0.12941790E-01</totfact>
</mgrwt>
</event>
<event>
 6    1  0.2238133E-007  0.9238416E+03  0.7818608E-02  0.9396259E-01
         -2   -1    0    0    0  501 -0.00000000000E+00  0.00000000000E+00  0.10117446969E+03  0.10117446969E+03  0.00000000000E+00 0.  1.
          2   -1    0    0  501    0  0.00000000000E+00 -0.00000000000E+00 -0.21089394158E+04  0.21089394158E+04  0.00000000000E+00 0. -1.
         23    2    1    2    0    0  0.62329855148E+02  0.28503108274E+03 -0.18565634064E+04  0.18814961219E+04  0.89845676801E+02 0.  0.
         13    1    3    3    0    0  0.13736921919E+02  0.22579687562E+03 -0.12756789217E+04  0.12955808131E+04  0.00000000000E+00 0. -1.
        -13    1    3    3    0    0  0.48592933229E+02  0.59234207122E+02 -0.58088448475E+03  0.58591530879E+03  0.00000000000E+00 0.  1.
         22    1    1    2    0    0 -0.62329855148E+02 -0.28503108274E+03 -0.15120153973E+03  0.32861776365E+03  0.00000000000E+00 0.  1.
<mgrwt>
<rscale>  0 0.92384160E+03</rscale>
<asrwt>0</asrwt>
<pdfrwt beam="1">  1        2 0.32445223E+00 0.92384160E+03</pdfrwt>
<pdfrwt beam="2">  1       -2 0.15565302E-01 0.92384160E+03</pdfrwt>
<totfact> 0.19340001E+02</totfact>
</mgrwt>
</event>
<event>
 6    1  0.2238133E-007  0.3000637E+04  0.7818608E-02  0.8243549E-01
         -2   -1    0    0    0  501 -0.00000000000E+00  0.00000000000E+00  0.23281579124E+04  0.23281579124E+04  0.00000000000E+00 0.  1.
          2   -1    0    0  501    0  0.00000000000E+00 -0.00000000000E+00 -0.96683946679E+03  0.96683946679E+03  0.00000000000E+00 0. -1.
         23    2    1    2    0    0 -0.45796542289E+03  0.96414299879E+03 -0.47425114722E+03  0.11716463058E+04  0.92395154491E+02 0.  0.
         13    1    3    3    0    0 -0.35730224455E+03  0.80812583437E+03 -0.36340952596E+03  0.95540501448E+03  0.00000000000E+00 0. -1.
        -13    1    3    3    0    0 -0.10066317835E+03  0.15601716442E+03 -0.11084162125E+03  0.21624129132E+03  0.00000000000E+00 0.  1.
         22    1    1    2    0    0  0.45796542289E+03 -0.96414299879E+03  0.18355695928E+04  0.21233510733E+04  0.00000000000E+00 0.  1.
<mgrwt>
<rscale>  0 0.30006366E+04</rscale>
<asrwt>0</asrwt>
<pdfrwt beam="1">  1        2 0.14874453E+00 0.30006366E+04</pdfrwt>
<pdfrwt beam="2">  1       -2 0.35817814E+00 0.30006366E+04</pdfrwt>
<totfact> 0.31279003E-01</totfact>
</mgrwt>
</event>
<event>
 6    1  0.2238133E-007  0.1597487E+04  0.7818608E-02  0.8822094E-01
          1   -1    0    0  501    0  0.00000000000E+00  0.00000000000E+00  0.61901494525E+03  0.61901494525E+03  0.00000000000E+00 0. -1.
         -1   -1    0    0    0  501 -0.00000000000E+00 -0.00000000000E+00 -0.10306548947E+04  0.10306548947E+04  0.00000000000E+00 0.  1.
         23    2    1    2    0    0 -0.41288327760E+03  0.54982614982E+03  0.20791653814E+03  0.72412587165E+03  0.91365175106E+02 0.  0.
         13    1    3    3    0    0 -0.20457332973E+03  0.20338961236E+03  0.10499485664E+03  0.30698778733E+03  0.00000000000E+00 0.  1.
        -13    1    3    3    0    0 -0.20830994787E+03  0.34643653745E+03  0.10292168151E+03  0.41713808432E+03  0.00000000000E+00 0. -1.
         22    1    1    2    0    0  0.41288327760E+03 -0.54982614982E+03 -0.61955648758E+03  0.92554396829E+03  0.00000000000E+00 0.  1.
<mgrwt>
<rscale>  0 0.15974865E+04</rscale>
<asrwt>0</asrwt>
<pdfrwt beam="1">  1        1 0.95233071E-01 0.15974865E+04</pdfrwt>
<pdfrwt beam="2">  1       -1 0.15856229E+00 0.15974865E+04</pdfrwt>
<totfact> 0.94133380E+00</totfact>
</mgrwt>
</event>
<event>
 6    1  0.2238133E-007  0.3979339E+04  0.7818608E-02  0.8008728E-01
         -1   -1    0    0    0  501 -0.00000000000E+00  0.00000000000E+00  0.29162309662E+04  0.29162309662E+04  0.00000000000E+00 0.  1.
          1   -1    0    0  501    0  0.00000000000E+00 -0.00000000000E+00 -0.13575002013E+04  0.13575002013E+04  0.00000000000E+00 0. -1.
         23    2    1    2    0    0 -0.10968562121E+02 -0.13000417535E+04 -0.83636501226E+03  0.15485316056E+04  0.90635697733E+02 0.  0.
         11    1    3    3    0    0 -0.21281209303E+02 -0.10699946246E+04 -0.64862397894E+03  0.12514209734E+04  0.00000000000E+00 0.  1.
        -11    1    3    3    0    0  0.10312647181E+02 -0.23004712888E+03 -0.18774103331E+03  0.29711063223E+03  0.00000000000E+00 0. -1.
         22    1    1    2    0    0  0.10968562121E+02  0.13000417535E+04  0.23950957772E+04  0.27251995619E+04  0.00000000000E+00 0. -1.
<mgrwt>
<rscale>  0 0.39793387E+04</rscale>
<asrwt>0</asrwt>
<pdfrwt beam="1">  1        1 0.20884619E+00 0.39793387E+04</pdfrwt>
<pdfrwt beam="2">  1       -1 0.44865092E+00 0.39793387E+04</pdfrwt>
<totfact> 0.21331815E-02</totfact>
</mgrwt>
</event>
<event>
 6    1  0.2238133E-007  0.1914888E+04  0.7818608E-02  0.8647481E-01
          2   -1    0    0  501    0  0.00000000000E+00  0.00000000000E+00  0.14977591266E+04  0.14977591266E+04  0.00000000000E+00 0. -1.
         -2   -1    0    0    0  501 -0.00000000000E+00 -0.00000000000E+00 -0.61204712086E+03  0.61204712086E+03  0.00000000000E+00 0.  1.
         23    2    1    2    0    0  0.65104154914E+03  0.56079173841E+03 -0.16206218601E+02  0.86409401906E+03  0.89740513026E+02 0.  0.
         11    1    3    3    0    0  0.43030241753E+03  0.41016700031E+03  0.17589498235E+02  0.59473231720E+03  0.00000000000E+00 0.  1.
        -11    1    3    3    0    0  0.22073913161E+03  0.15062473810E+03 -0.33795716836E+02  0.26936170186E+03  0.00000000000E+00 0. -1.
         22    1    1    2    0    0 -0.65104154914E+03 -0.56079173841E+03  0.90191822434E+03  0.12457122284E+04  0.00000000000E+00 0. -1.
<mgrwt>
<rscale>  0 0.19148882E+04</rscale>
<asrwt>0</asrwt>
<pdfrwt beam="1">  1        2 0.23042448E+00 0.19148882E+04</pdfrwt>
<pdfrwt beam="2">  1       -2 0.94161096E-01 0.19148882E+04</pdfrwt>
<totfact> 0.11332695E+01</totfact>
</mgrwt>
</event>
<event>
 6    1  0.2238133E-007  0.1878961E+04  0.7818608E-02  0.8665400E-01
         -2   -1    0    0    0  501 -0.00000000000E+00  0.00000000000E+00  0.72855636227E+03  0.72855636227E+03  0.00000000000E+00 0.  1.
          2   -1    0    0  501    0  0.00000000000E+00 -0.00000000000E+00 -0.12114691000E+04  0.12114691000E+04  0.00000000000E+00 0. -1.
         23    2    1    2    0    0 -0.19951490334E+02 -0.36245706177E+03 -0.11344293388E+04  0.11942057353E+04  0.86163971498E+02 0.  0.
         13    1    3    3    0    0 -0.39189707005E+02 -0.16490376388E+03 -0.62190497719E+03  0.64458892725E+03  0.00000000000E+00 0. -1.
        -13    1    3    3    0    0  0.19238216671E+02 -0.19755329789E+03 -0.51252436159E+03  0.54961680807E+03  0.00000000000E+00 0.  1.
         22    1    1    2    0    0  0.19951490334E+02  0.36245706177E+03  0.65151660108E+03  0.74581972693E+03  0.00000000000E+00 0.  1.
<mgrwt>
<rscale>  0 0.18789609E+04</rscale>
<asrwt>0</asrwt>
<pdfrwt beam="1">  1        2 0.18637986E+00 0.18789609E+04</pdfrwt>
<pdfrwt beam="2">  1       -2 0.11208559E+00 0.18789609E+04</pdfrwt>
<totfact> 0.10981475E+01</totfact>
</mgrwt>
</event>
<event>
 6    1  0.2238133E-007  0.6309580E+04  0.7818608E-02  0.7653159E-01
         -2   -1    0    0    0  501 -0.00000000000E+00  0.00000000000E+00  0.25055544589E+04  0.25055544589E+04  0.00000000000E+00 0.  1.
          2   -1    0    0  501    0  0.00000000000E+00 -0.00000000000E+00 -0.39722550241E+04  0.39722550241E+04  0.00000000000E+00 0. -1.
         23    2    1    2    0    0  0.89195427009E+03 -0.29536753250E+03 -0.38247004055E+04  0.39395053944E+04  0.92440039896E+02 0.  0.
         13    1    3    3    0    0  0.67661104453E+03 -0.23532024876E+03 -0.27477874219E+04  0.28396326948E+04  0.00000000000E+00 0.  1.
        -13    1    3    3    0    0  0.21534322556E+03 -0.60047283737E+02 -0.10769129836E+04  0.10998726996E+04  0.00000000000E+00 0. -1.
         22    1    1    2    0    0 -0.89195427009E+03  0.29536753250E+03  0.23579998403E+04  0.25383040886E+04  0.00000000000E+00 0.  1.
<mgrwt>
<rscale>  0 0.63095804E+04</rscale>
<asrwt>0</asrwt>
<pdfrwt beam="1">  1        2 0.61111616E+00 0.63095804E+04</pdfrwt>
<pdfrwt beam="2">  1       -2 0.38546992E+00 0.63095804E+04</pdfrwt>
<totfact> 0.21752547E-03</totfact>
</mgrwt>
</event>
<event>
 6    1  0.2238133E-007  0.2053096E+04  0.7818608E-02  0.8582191E-01
          2   -1    0    0  501    0  0.00000000000E+00  0.00000000000E+00  0.11029767954E+04  0.11029767954E+04  0.00000000000E+00 0. -1.
         -2   -1    0    0    0  501 -0.00000000000E+00 -0.00000000000E+00 -0.95541541265E+03  0.95541541265E+03  0.00000000000E+00 0.  1.
         23    2    1    2    0    0  0.83344742671E+02 -0.10021411810E+04 -0.12375414655E+03  0.10168330838E+04  0.86029870460E+02 0.  0.
         13    1    3    3    0    0  0.61517179027E+02 -0.73559708799E+03 -0.12896497172E+03  0.74934598358E+03  0.00000000000E+00 0. -1.
        -13    1    3    3    0    0  0.21827563644E+02 -0.26654409305E+03  0.52108251693E+01  0.26748710020E+03  0.00000000000E+00 0.  1.
         22    1    1    2    0    0 -0.83344742671E+02  0.10021411810E+04  0.27131552929E+03  0.10415591242E+04  0.00000000000E+00 0. -1.
<mgrwt>
<rscale>  0 0.20530962E+04</rscale>
<asrwt>0</asrwt>
<pdfrwt beam="1">  1        2 0.16968874E+00 0.20530962E+04</pdfrwt>
<pdfrwt beam="2">  1       -2 0.14698699E+00 0.20530962E+04</pdfrwt>
<totfact> 0.63446643E+00</totfact>
</mgrwt>
</event>
<event>
 6    1  0.2238133E-007  0.3909734E+04  0.7818608E-02  0.8023008E-01
          4   -1    0    0  501    0  0.00000000000E+00  0.00000000000E+00  0.32585900895E+04  0.32585900895E+04  0.00000000000E+00 0. -1.
         -4   -1    0    0    0  501 -0.00000000000E+00 -0.00000000000E+00 -0.11727481789E+04  0.11727481789E+04  0.00000000000E+00 0.  1.
         23    2    1    2    0    0  0.12330467278E+04 -0.26821680858E+02  0.27608965088E+04  0.30253431240E+04  0.95014999930E+02 0.  0.
         13    1    3    3    0    0  0.81229547001E+03  0.22549336121E+01  0.17163568059E+04  0.18988706381E+04  0.00000000000E+00 0.  1.
        -13    1    3    3    0    0  0.42075125783E+03 -0.29076614470E+02  0.10445397030E+04  0.11264724859E+04  0.00000000000E+00 0. -1.
         22    1    1    2    0    0 -0.12330467278E+04  0.26821680858E+02 -0.67505459817E+03  0.14059951444E+04  0.00000000000E+00 0.  1.
<mgrwt>
<rscale>  0 0.39097343E+04</rscale>
<asrwt>0</asrwt>
<pdfrwt beam="1">  1        4 0.50132155E+00 0.39097343E+04</pdfrwt>
<pdfrwt beam="2">  1       -4 0.18042280E+00 0.39097343E+04</pdfrwt>
<totfact> 0.32715480E-04</totfact>
</mgrwt>
</event>
<event>
 6    1  0.2238133E-007  0.1864493E+04  0.7818608E-02  0.8672735E-01
          2   -1    0    0  501    0  0.00000000000E+00  0.00000000000E+00  0.30179370836E+04  0.30179370836E+04  0.00000000000E+00 0. -1.
         -2   -1    0    0    0  501 -0.00000000000E+00 -0.00000000000E+00 -0.28797261513E+03  0.28797261513E+03  0.00000000000E+00 0.  1.
         23    2    1    2    0    0 -0.25543243284E+03 -0.63204265688E+03  0.24563853022E+03  0.72974995692E+03  0.86446886762E+02 0.  0.
         11    1    3    3    0    0 -0.19749771924E+03 -0.42712860352E+03  0.20339624989E+03  0.51265410124E+03  0.00000000000E+00 0. -1.
        -11    1    3    3    0    0 -0.57934713594E+02 -0.20491405336E+03  0.42242280330E+02  0.21709585568E+03  0.00000000000E+00 0.  1.
         22    1    1    2    0    0  0.25543243284E+03  0.63204265688E+03  0.24843259382E+04  0.25761597418E+04  0.00000000000E+00 0. -1.
<mgrwt>
<rscale>  0 0.18644927E+04</rscale>
<asrwt>0</asrwt>
<pdfrwt beam="1">  1        2 0.46429799E+00 0.18644927E+04</pdfrwt>
<pdfrwt beam="2">  1       -2 0.44303481E-01 0.18644927E+04</pdfrwt>
<totfact> 0.77252711E+00</totfact>
</mgrwt>
</event>
<event>
 6    1  0.2238133E-007  0.1137760E+04  0.7818608E-02  0.9169150E-01
          1   -1    0    0  501    0  0.00000000000E+00  0.00000000000E+00  0.89080577215E+03  0.89080577215E+03  0.00000000000E+00 0. -1.
         -1   -1    0    0    0  501 -0.00000000000E+00 -0.00000000000E+00 -0.36329415433E+03  0.36329415433E+03  0.00000000000E+00 0.  1.
         23    2    1    2    0    0  0.18579811825E+03  0.32126410780E+03 -0.20444038099E+03  0.43343842729E+03  0.91331446715E+02 0.  0.
         11    1    3    3    0    0  0.12357446132E+03  0.28382708504E+03 -0.16712914682E+03  0.35179626691E+03  0.00000000000E+00 0. -1.
        -11    1    3    3    0    0  0.62223656936E+02  0.37437022758E+02 -0.37311234171E+02  0.81642160376E+02  0.00000000000E+00 0.  1.
         22    1    1    2    0    0 -0.18579811825E+03 -0.32126410780E+03  0.73195199881E+03  0.82066149920E+03  0.00000000000E+00 0. -1.
<mgrwt>
<rscale>  0 0.11377601E+04</rscale>
<asrwt>0</asrwt>
<pdfrwt beam="1">  1        1 0.13704704E+00 0.11377601E+04</pdfrwt>
<pdfrwt beam="2">  1       -1 0.55891409E-01 0.11377601E+04</pdfrwt>
<totfact> 0.59593543E+01</totfact>
</mgrwt>
</event>
<event>
 6    1  0.2238133E-007  0.2920441E+04  0.7818608E-02  0.8266822E-01
         -2   -1    0    0    0  501 -0.00000000000E+00  0.00000000000E+00  0.11277582287E+04  0.11277582287E+04  0.00000000000E+00 0.  1.
          2   -1    0    0  501    0  0.00000000000E+00 -0.00000000000E+00 -0.18906919231E+04  0.18906919231E+04  0.00000000000E+00 0. -1.
         23    2    1    2    0    0 -0.28811042364E+03  0.10346234509E+04  0.63878184393E+03  0.12525906580E+04  0.86532139348E+02 0.  0.
         11    1    3    3    0    0 -0.12466297300E+02  0.15558043453E+03  0.85407539553E+02  0.17791888036E+03  0.00000000000E+00 0.  1.
        -11    1    3    3    0    0 -0.27564412634E+03  0.87904301633E+03  0.55337430438E+03  0.10746717777E+04  0.00000000000E+00 0. -1.
         22    1    1    2    0    0  0.28811042364E+03 -0.10346234509E+04 -0.14017155384E+04  0.17658594938E+04  0.00000000000E+00 0. -1.
<mgrwt>
<rscale>  0 0.29204406E+04</rscale>
<asrwt>0</asrwt>
<pdfrwt beam="1">  1        2 0.29087568E+00 0.29204406E+04</pdfrwt>
<pdfrwt beam="2">  1       -2 0.17350127E+00 0.29204406E+04</pdfrwt>
<totfact> 0.13330471E+00</totfact>
</mgrwt>
</event>
<event>
 6    1  0.2238133E-007  0.1092087E+04  0.7818608E-02  0.9212939E-01
         -2   -1    0    0    0  501 -0.00000000000E+00  0.00000000000E+00  0.20056742465E+03  0.20056742465E+03  0.00000000000E+00 0.  1.
          2   -1    0    0  501    0  0.00000000000E+00 -0.00000000000E+00 -0.14865994707E+04  0.14865994707E+04  0.00000000000E+00 0. -1.
         23    2    1    2    0    0  0.47330431984E+03  0.38703451555E+02 -0.24594881109E+03  0.54379990616E+03  0.98552442507E+02 0.  0.
         11    1    3    3    0    0  0.31081195275E+03  0.61998123155E+02 -0.19411809774E+03  0.37165800559E+03  0.00000000000E+00 0. -1.
        -11    1    3    3    0    0  0.16249236709E+03 -0.23294671599E+02 -0.51830713352E+02  0.17214190057E+03  0.00000000000E+00 0.  1.
         22    1    1    2    0    0 -0.47330431984E+03 -0.38703451555E+02 -0.10400832349E+04  0.11433669892E+04  0.00000000000E+00 0. -1.
<mgrwt>
<rscale>  0 0.10920869E+04</rscale>
<asrwt>0</asrwt>
<pdfrwt beam="1">  1        2 0.22870761E+00 0.10920869E+04</pdfrwt>
<pdfrwt beam="2">  1       -2 0.30856526E-01 0.10920869E+04</pdfrwt>
<totfact> 0.12471940E+02</totfact>
</mgrwt>
</event>
<event>
 6    1  0.2238133E-007  0.2202071E+04  0.7818608E-02  0.8517566E-01
         -4   -1    0    0    0  501 -0.00000000000E+00  0.00000000000E+00  0.12783210063E+04  0.12783210063E+04  0.00000000000E+00 0.  1.
          4   -1    0    0  501    0  0.00000000000E+00 -0.00000000000E+00 -0.94833742881E+03  0.94833742881E+03  0.00000000000E+00 0. -1.
         23    2    1    2    0    0  0.19363303916E+03  0.26063045628E+03 -0.89654031764E+03  0.95788625149E+03  0.91321087603E+02 0.  0.
         13    1    3    3    0    0  0.10214777813E+03  0.20175038190E+03 -0.65609632050E+03  0.69397389500E+03  0.00000000000E+00 0.  1.
        -13    1    3    3    0    0  0.91485261027E+02  0.58880074383E+02 -0.24044399714E+03  0.26391235648E+03  0.00000000000E+00 0. -1.
         22    1    1    2    0    0 -0.19363303916E+03 -0.26063045628E+03  0.12265238951E+04  0.12687721836E+04  0.00000000000E+00 0.  1.
<mgrwt>
<rscale>  0 0.22020714E+04</rscale>
<asrwt>0</asrwt>
<pdfrwt beam="1">  1        4 0.14589807E+00 0.22020714E+04</pdfrwt>
<pdfrwt beam="2">  1       -4 0.19666477E+00 0.22020714E+04</pdfrwt>
<totfact> 0.81095127E-02</totfact>
</mgrwt>
</event>
<event>
 6    1  0.2238133E-007  0.1172120E+04  0.7818608E-02  0.9137616E-01
          2   -1    0    0  501    0  0.00000000000E+00  0.00000000000E+00  0.94432770209E+03  0.94432770209E+03  0.00000000000E+00 0. -1.
         -2   -1    0    0    0  501 -0.00000000000E+00 -0.00000000000E+00 -0.36371516651E+03  0.36371516651E+03  0.00000000000E+00 0.  1.
         23    2    1    2    0    0  0.55373397289E+03  0.16414883900E+03  0.20602953188E+03  0.61965447479E+03  0.89203957513E+02 0.  0.
         11    1    3    3    0    0  0.28859054266E+03  0.47534934421E+02  0.76251939950E+02  0.30225557008E+03  0.00000000000E+00 0. -1.
        -11    1    3    3    0    0  0.26514343023E+03  0.11661390458E+03  0.12977759193E+03  0.31739890470E+03  0.00000000000E+00 0.  1.
         22    1    1    2    0    0 -0.55373397289E+03 -0.16414883900E+03  0.37458300370E+03  0.68838839382E+03  0.00000000000E+00 0. -1.
<mgrwt>
<rscale>  0 0.11721200E+04</rscale>
<asrwt>0</asrwt>
<pdfrwt beam="1">  1        2 0.14528118E+00 0.11721200E+04</pdfrwt>
<pdfrwt beam="2">  1       -2 0.55956180E-01 0.11721200E+04</pdfrwt>
<totfact> 0.81195450E+01</totfact>
</mgrwt>
</event>
<event>
 6    1  0.5316838E-007  0.3307202E+04  0.7818608E-02  0.8161065E-01
         -2   -1    0    0    0  501 -0.00000000000E+00  0.00000000000E+00  0.16847147440E+04  0.16847147440E+04  0.00000000000E+00 0.  1.
          2   -1    0    0  501    0  0.00000000000E+00 -0.00000000000E+00 -0.16230622174E+04  0.16230622174E+04  0.00000000000E+00 0. -1.
         23    2    1    2    0    0 -0.52754070561E+03  0.78707303191E+01  0.15970547450E+04  0.16842557521E+04  0.88161416215E+02 0.  0.
         13    1    3    3    0    0 -0.11821186501E+03  0.38798757937E+02  0.37375084775E+03  0.39391507313E+03  0.00000000000E+00 0. -1.
        -13    1    3    3    0    0 -0.40932884061E+03 -0.30928027617E+02  0.12233038973E+04  0.12903406790E+04  0.00000000000E+00 0.  1.
         22    1    1    2    0    0  0.52754070561E+03 -0.78707303191E+01 -0.15354022184E+04  0.16235212092E+04  0.00000000000E+00 0. -1.
<mgrwt>
<rscale>  0 0.33072024E+04</rscale>
<asrwt>0</asrwt>
<pdfrwt beam="1">  1        2 0.24970188E+00 0.33072024E+04</pdfrwt>
<pdfrwt beam="2">  1       -2 0.25918688E+00 0.33072024E+04</pdfrwt>
<totfact> 0.50997833E-01</totfact>
</mgrwt>
</event>
<event>
 6    1  0.2238133E-007  0.2953681E+04  0.7818608E-02  0.8257083E-01
         -2   -1    0    0    0  501 -0.00000000000E+00  0.00000000000E+00  0.20479330127E+04  0.20479330127E+04  0.00000000000E+00 0.  1.
          2   -1    0    0  501    0  0.00000000000E+00 -0.00000000000E+00 -0.10650044065E+04  0.10650044065E+04  0.00000000000E+00 0. -1.
         23    2    1    2    0    0 -0.40751309401E+03 -0.14078964259E+04  0.67177424106E+03  0.16145862231E+04  0.85841557901E+02 0.  0.
         13    1    3    3    0    0 -0.16174655785E+03 -0.45099299643E+03  0.24911276366E+03  0.54001277839E+03  0.00000000000E+00 0.  1.
        -13    1    3    3    0    0 -0.24576653617E+03 -0.95690342950E+03  0.42266147740E+03  0.10745734448E+04  0.00000000000E+00 0. -1.
         22    1    1    2    0    0  0.40751309401E+03  0.14078964259E+04  0.31115436509E+03  0.14983511961E+04  0.00000000000E+00 0. -1.
<mgrwt>
<rscale>  0 0.29536809E+04</rscale>
<asrwt>0</asrwt>
<pdfrwt beam="1">  1        2 0.16384683E+00 0.29536809E+04</pdfrwt>
<pdfrwt beam="2">  1       -2 0.31506662E+00 0.29536809E+04</pdfrwt>
<totfact> 0.50545617E-01</totfact>
</mgrwt>
</event>
<event>
 6    1  0.2238133E-007  0.1740701E+04  0.7818608E-02  0.8738485E-01
          2   -1    0    0  501    0  0.00000000000E+00  0.00000000000E+00  0.74870597396E+03  0.74870597396E+03  0.00000000000E+00 0. -1.
         -2   -1    0    0    0  501 -0.00000000000E+00 -0.00000000000E+00 -0.10117593582E+04  0.10117593582E+04  0.00000000000E+00 0.  1.
         23    2    1    2    0    0  0.33889439942E+03 -0.46450485971E+02  0.67492470352E+03  0.76206162889E+03  0.90595304519E+02 0.  0.
         13    1    3    3    0    0  0.18467261297E+03  0.13946940922E+02  0.40566000282E+03  0.44593556601E+03  0.00000000000E+00 0. -1.
        -13    1    3    3    0    0  0.15422178645E+03 -0.60397426894E+02  0.26926470070E+03  0.31612606288E+03  0.00000000000E+00 0.  1.
         22    1    1    2    0    0 -0.33889439942E+03  0.46450485971E+02 -0.93797808776E+03  0.99840370328E+03  0.00000000000E+00 0.  1.
<mgrwt>
<rscale>  0 0.17407013E+04</rscale>
<asrwt>0</asrwt>
<pdfrwt beam="1">  1        2 0.11518553E+00 0.17407013E+04</pdfrwt>
<pdfrwt beam="2">  1       -2 0.15565529E+00 0.17407013E+04</pdfrwt>
<totfact> 0.96708660E+00</totfact>
</mgrwt>
</event>
<event>
 6    1  0.2238133E-007  0.8153197E+03  0.7818608E-02  0.9538103E-01
         -2   -1    0    0    0  501 -0.00000000000E+00  0.00000000000E+00  0.36803271133E+03  0.36803271133E+03  0.00000000000E+00 0.  1.
          2   -1    0    0  501    0  0.00000000000E+00 -0.00000000000E+00 -0.45155380709E+03  0.45155380709E+03  0.00000000000E+00 0. -1.
         23    2    1    2    0    0 -0.40119657645E+03  0.20942042247E+02 -0.23705802740E+02  0.41341521051E+03  0.94619813486E+02 0.  0.
         13    1    3    3    0    0 -0.37092961669E+03  0.41422730964E+02 -0.35732693020E+02  0.37494192688E+03  0.00000000000E+00 0. -1.
        -13    1    3    3    0    0 -0.30266959762E+02 -0.20480688717E+02  0.12026890280E+02  0.38473283631E+02  0.00000000000E+00 0.  1.
         22    1    1    2    0    0  0.40119657645E+03 -0.20942042247E+02 -0.59815293021E+02  0.40617130791E+03  0.00000000000E+00 0.  1.
<mgrwt>
<rscale>  0 0.81531975E+03</rscale>
<asrwt>0</asrwt>
<pdfrwt beam="1">  1        2 0.69469816E-01 0.81531975E+03</pdfrwt>
<pdfrwt beam="2">  1       -2 0.56620418E-01 0.81531975E+03</pdfrwt>
<totfact> 0.20412667E+02</totfact>
</mgrwt>
</event>
<event>
 6    1  0.2238133E-007  0.2248252E+04  0.7818608E-02  0.8498609E-01
          2   -1    0    0  501    0  0.00000000000E+00  0.00000000000E+00  0.20881080987E+04  0.20881080987E+04  0.00000000000E+00 0. -1.
         -2   -1    0    0    0  501 -0.00000000000E+00 -0.00000000000E+00 -0.60516926845E+03  0.60516926845E+03  0.00000000000E+00 0.  1.
         23    2    1    2    0    0 -0.37303103406E+03 -0.59728608178E+03  0.17895148320E+04  0.19252333185E+04  0.90869031791E+02 0.  0.
         11    1    3    3    0    0 -0.15320123025E+03 -0.18464481040E+03  0.68650198037E+03  0.72722025000E+03  0.00000000000E+00 0.  1.
        -11    1    3    3    0    0 -0.21982980381E+03 -0.41264127137E+03  0.11030128516E+04  0.11980130685E+04  0.00000000000E+00 0. -1.
         22    1    1    2    0    0  0.37303103406E+03  0.59728608178E+03 -0.30657600172E+03  0.76804404866E+03  0.00000000000E+00 0.  1.
<mgrwt>
<rscale>  0 0.22482516E+04</rscale>
<asrwt>0</asrwt>
<pdfrwt beam="1">  1        2 0.32124740E+00 0.22482516E+04</pdfrwt>
<pdfrwt beam="2">  1       -2 0.93102965E-01 0.22482516E+04</pdfrwt>
<totfact> 0.53062412E+00</totfact>
</mgrwt>
</event>
<event>
 6    1  0.2238133E-007  0.4632209E+04  0.7818608E-02  0.7887891E-01
          2   -1    0    0  501    0  0.00000000000E+00  0.00000000000E+00  0.15416180623E+04  0.15416180623E+04  0.00000000000E+00 0. -1.
         -2   -1    0    0    0  501 -0.00000000000E+00 -0.00000000000E+00 -0.34796810546E+04  0.34796810546E+04  0.00000000000E+00 0.  1.
         23    2    1    2    0    0  0.20045446496E+04  0.11388922500E+04 -0.11991254409E+04  0.26002862062E+04  0.91168643907E+02 0.  0.
         11    1    3    3    0    0  0.77456762788E+03  0.39168394032E+03 -0.43602007108E+03  0.97133146848E+03  0.00000000000E+00 0. -1.
        -11    1    3    3    0    0  0.12299770217E+04  0.74720830965E+03 -0.76310536985E+03  0.16289547377E+04  0.00000000000E+00 0.  1.
         22    1    1    2    0    0 -0.20045446496E+04 -0.11388922500E+04 -0.73893755136E+03  0.24210129108E+04  0.00000000000E+00 0.  1.
<mgrwt>
<rscale>  0 0.46322086E+04</rscale>
<asrwt>0</asrwt>
<pdfrwt beam="1">  1        2 0.23717201E+00 0.46322086E+04</pdfrwt>
<pdfrwt beam="2">  1       -2 0.53533555E+00 0.46322086E+04</pdfrwt>
<totfact> 0.92738296E-03</totfact>
</mgrwt>
</event>
<event>
 6    1  0.2238133E-007  0.3356873E+04  0.7818608E-02  0.8148573E-01
          2   -1    0    0  501    0  0.00000000000E+00  0.00000000000E+00  0.25540669289E+04  0.25540669289E+04  0.00000000000E+00 0. -1.
         -2   -1    0    0    0  501 -0.00000000000E+00 -0.00000000000E+00 -0.11030053712E+04  0.11030053712E+04  0.00000000000E+00 0.  1.
         23    2    1    2    0    0  0.31357550571E+03  0.27087458172E+03  0.24966145056E+04  0.25324018579E+04  0.90953522644E+02 0.  0.
         13    1    3    3    0    0  0.96255684204E+02  0.14177408388E+03  0.98207327597E+03  0.99691171474E+03  0.00000000000E+00 0.  1.
        -13    1    3    3    0    0  0.21731982151E+03  0.12910049783E+03  0.15145412297E+04  0.15354901432E+04  0.00000000000E+00 0. -1.
         22    1    1    2    0    0 -0.31357550571E+03 -0.27087458172E+03 -0.10455529480E+04  0.11246704423E+04  0.00000000000E+00 0.  1.
<mgrwt>
<rscale>  0 0.33568733E+04</rscale>
<asrwt>0</asrwt>
<pdfrwt beam="1">  1        2 0.39293337E+00 0.33568733E+04</pdfrwt>
<pdfrwt beam="2">  1       -2 0.16969313E+00 0.33568733E+04</pdfrwt>
<totfact> 0.57647655E-01</totfact>
</mgrwt>
</event>
<event>
 6    1  0.2238133E-007  0.4708386E+04  0.7818608E-02  0.7875137E-01
          2   -1    0    0  501    0  0.00000000000E+00  0.00000000000E+00  0.26159913530E+04  0.26159913530E+04  0.00000000000E+00 0. -1.
         -2   -1    0    0    0  501 -0.00000000000E+00 -0.00000000000E+00 -0.21185940895E+04  0.21185940895E+04  0.00000000000E+00 0.  1.
         23    2    1    2    0    0  0.21188584691E+04 -0.90612755811E+03  0.72828820891E+03  0.24185675253E+04  0.91852031066E+02 0.  0.
         11    1    3    3    0    0  0.85682121997E+03 -0.32397319361E+03  0.26597004077E+03  0.95385601416E+03  0.00000000000E+00 0. -1.
        -11    1    3    3    0    0  0.12620372492E+04 -0.58215436450E+03  0.46231816814E+03  0.14647115112E+04  0.00000000000E+00 0.  1.
         22    1    1    2    0    0 -0.21188584691E+04  0.90612755811E+03 -0.23089094541E+03  0.23160179171E+04  0.00000000000E+00 0.  1.
<mgrwt>
<rscale>  0 0.47083856E+04</rscale>
<asrwt>0</asrwt>
<pdfrwt beam="1">  1        2 0.40246021E+00 0.47083856E+04</pdfrwt>
<pdfrwt beam="2">  1       -2 0.32593755E+00 0.47083856E+04</pdfrwt>
<totfact> 0.48813344E-02</totfact>
</mgrwt>
</event>
<event>
 6    1  0.5052358E-007  0.3187976E+04  0.7818608E-02  0.8192000E-01
         -2   -1    0    0    0  501 -0.00000000000E+00  0.00000000000E+00  0.11985703163E+04  0.11985703163E+04  0.00000000000E+00 0.  1.
          2   -1    0    0  501    0  0.00000000000E+00 -0.00000000000E+00 -0.21198564681E+04  0.21198564681E+04  0.00000000000E+00 0. -1.
         23    2    1    2    0    0 -0.16315231331E+03 -0.68764513723E+03 -0.19467060064E+04  0.20730511823E+04  0.91664697972E+02 0.  0.
         11    1    3    3    0    0 -0.10754160631E+03 -0.33881080285E+03 -0.10853202436E+04  0.11420499063E+04  0.00000000000E+00 0. -1.
        -11    1    3    3    0    0 -0.55610706996E+02 -0.34883433438E+03 -0.86138576278E+03  0.93100127599E+03  0.00000000000E+00 0.  1.
         22    1    1    2    0    0  0.16315231331E+03  0.68764513723E+03  0.10254198546E+04  0.12453756021E+04  0.00000000000E+00 0.  1.
<mgrwt>
<rscale>  0 0.31879756E+04</rscale>
<asrwt>0</asrwt>
<pdfrwt beam="1">  1        2 0.32613176E+00 0.31879756E+04</pdfrwt>
<pdfrwt beam="2">  1       -2 0.18439543E+00 0.31879756E+04</pdfrwt>
<totfact> 0.81662573E-01</totfact>
</mgrwt>
</event>
<event>
 6    1  0.2238133E-007  0.2786890E+04  0.7818608E-02  0.8307350E-01
          2   -1    0    0  501    0  0.00000000000E+00  0.00000000000E+00  0.17085559479E+04  0.17085559479E+04  0.00000000000E+00 0. -1.
         -2   -1    0    0    0  501 -0.00000000000E+00 -0.00000000000E+00 -0.11364499395E+04  0.11364499395E+04  0.00000000000E+00 0.  1.
         23    2    1    2    0    0 -0.12821311272E+04  0.46929959028E+03  0.96618333203E+01  0.13683726279E+04  0.90818306161E+02 0.  0.
         13    1    3    3    0    0 -0.10577268457E+04  0.38455492421E+03 -0.26579605402E+02  0.11257775292E+04  0.00000000000E+00 0. -1.
        -13    1    3    3    0    0 -0.22440428153E+03  0.84744666077E+02  0.36241438722E+02  0.24259509863E+03  0.00000000000E+00 0.  1.
         22    1    1    2    0    0  0.12821311272E+04 -0.46929959028E+03  0.56244417511E+03  0.14766332595E+04  0.00000000000E+00 0. -1.
<mgrwt>
<rscale>  0 0.27868895E+04</rscale>
<asrwt>0</asrwt>
<pdfrwt beam="1">  1        2 0.26285476E+00 0.27868895E+04</pdfrwt>
<pdfrwt beam="2">  1       -2 0.17483845E+00 0.27868895E+04</pdfrwt>
<totfact> 0.16647548E+00</totfact>
</mgrwt>
</event>
<event>
 6    1  0.2238133E-007  0.8366657E+03  0.7818608E-02  0.9508411E-01
         -2   -1    0    0    0  501 -0.00000000000E+00  0.00000000000E+00  0.14359399854E+03  0.14359399854E+03  0.00000000000E+00 0.  1.
          2   -1    0    0  501    0  0.00000000000E+00 -0.00000000000E+00 -0.12187304880E+04  0.12187304880E+04  0.00000000000E+00 0. -1.
         23    2    1    2    0    0  0.39701708094E+03 -0.27077949092E+02 -0.72645578920E+03  0.83323658399E+03  0.90495377472E+02 0.  0.
         11    1    3    3    0    0  0.32983425753E+03 -0.31384397995E+01 -0.53027066477E+03  0.62448976386E+03  0.00000000000E+00 0.  1.
        -11    1    3    3    0    0  0.67182823407E+02 -0.23939509293E+02 -0.19618512443E+03  0.20874682012E+03  0.00000000000E+00 0. -1.
         22    1    1    2    0    0 -0.39701708094E+03  0.27077949092E+02 -0.34868070024E+03  0.52908790253E+03  0.00000000000E+00 0.  1.
<mgrwt>
<rscale>  0 0.83666573E+03</rscale>
<asrwt>0</asrwt>
<pdfrwt beam="1">  1        2 0.18749700E+00 0.83666573E+03</pdfrwt>
<pdfrwt beam="2">  1       -2 0.22091384E-01 0.83666573E+03</pdfrwt>
<totfact> 0.33194729E+02</totfact>
</mgrwt>
</event>
<event>
 6    1  0.2238133E-007  0.9164487E+03  0.7818608E-02  0.9405250E-01
         -1   -1    0    0    0  501 -0.00000000000E+00  0.00000000000E+00  0.26117100216E+04  0.26117100216E+04  0.00000000000E+00 0.  1.
          1   -1    0    0  501    0  0.00000000000E+00 -0.00000000000E+00 -0.80395423574E+02  0.80395423574E+02  0.00000000000E+00 0. -1.
         23    2    1    2    0    0  0.71557503905E+02 -0.37287948875E+03  0.54824515669E+03  0.67301555152E+03  0.90650930805E+02 0.  0.
         11    1    3    3    0    0  0.52335908106E+02 -0.35132212222E+03  0.53256932312E+03  0.64015339159E+03  0.00000000000E+00 0. -1.
        -11    1    3    3    0    0  0.19221595798E+02 -0.21557366533E+02  0.15675833565E+02  0.32862159923E+02  0.00000000000E+00 0.  1.
         22    1    1    2    0    0 -0.71557503905E+02  0.37287948875E+03  0.19830694413E+04  0.20190898936E+04  0.00000000000E+00 0.  1.
<mgrwt>
<rscale>  0 0.91644865E+03</rscale>
<asrwt>0</asrwt>
<pdfrwt beam="1">  1        1 0.12368529E-01 0.91644865E+03</pdfrwt>
<pdfrwt beam="2">  1       -1 0.40180148E+00 0.91644865E+03</pdfrwt>
<totfact> 0.36244014E+00</totfact>
</mgrwt>
</event>
<event>
 6    1  0.2238133E-007  0.3461548E+04  0.7818608E-02  0.8122964E-01
         -1   -1    0    0    0  501 -0.00000000000E+00  0.00000000000E+00  0.20883263089E+04  0.20883263089E+04  0.00000000000E+00 0.  1.
          1   -1    0    0  501    0  0.00000000000E+00 -0.00000000000E+00 -0.14344395695E+04  0.14344395695E+04  0.00000000000E+00 0. -1.
         23    2    1    2    0    0  0.89201916520E+03  0.95635237150E+03 -0.82474558463E+03  0.15487695260E+04  0.90408603816E+02 0.  0.
         13    1    3    3    0    0  0.41503123384E+03  0.42513171975E+03 -0.42548938097E+03  0.73077295893E+03  0.00000000000E+00 0.  1.
        -13    1    3    3    0    0  0.47698793136E+03  0.53122065175E+03 -0.39925620366E+03  0.81799656703E+03  0.00000000000E+00 0. -1.
         22    1    1    2    0    0 -0.89201916520E+03 -0.95635237150E+03  0.14786323240E+04  0.19739963524E+04  0.00000000000E+00 0.  1.
<mgrwt>
<rscale>  0 0.34615476E+04</rscale>
<asrwt>0</asrwt>
<pdfrwt beam="1">  1        1 0.22068301E+00 0.34615476E+04</pdfrwt>
<pdfrwt beam="2">  1       -1 0.32128097E+00 0.34615476E+04</pdfrwt>
<totfact> 0.14276509E-01</totfact>
</mgrwt>
</event>
<event>
 6    1  0.2746493E-007  0.2486730E+04  0.7818608E-02  0.8407728E-01
         -2   -1    0    0    0  501 -0.00000000000E+00  0.00000000000E+00  0.64282108770E+03  0.64282108770E+03  0.00000000000E+00 0.  1.
          2   -1    0    0  501    0  0.00000000000E+00 -0.00000000000E+00 -0.24049553197E+04  0.24049553197E+04  0.00000000000E+00 0. -1.
         23    2    1    2    0    0 -0.65735128282E+03  0.16319312860E+02  0.40863001307E+03  0.77960656440E+03  0.91819816360E+02 0.  0.
         13    1    3    3    0    0 -0.39715577232E+03  0.23026337394E+02  0.19584798316E+03  0.44341780772E+03  0.00000000000E+00 0. -1.
        -13    1    3    3    0    0 -0.26019551051E+03 -0.67070245343E+01  0.21278202990E+03  0.33618875668E+03  0.00000000000E+00 0.  1.
         22    1    1    2    0    0  0.65735128282E+03 -0.16319312860E+02 -0.21707642451E+04  0.22681698430E+04  0.00000000000E+00 0. -1.
<mgrwt>
<rscale>  0 0.24867296E+04</rscale>
<asrwt>0</asrwt>
<pdfrwt beam="1">  1        2 0.36999313E+00 0.24867296E+04</pdfrwt>
<pdfrwt beam="2">  1       -2 0.98895550E-01 0.24867296E+04</pdfrwt>
<totfact> 0.29898709E+00</totfact>
</mgrwt>
</event>
<event>
 6    1  0.2238133E-007  0.1503580E+04  0.7818608E-02  0.8882076E-01
         -2   -1    0    0    0  501 -0.00000000000E+00  0.00000000000E+00  0.59483071071E+03  0.59483071071E+03  0.00000000000E+00 0.  1.
          2   -1    0    0  501    0  0.00000000000E+00 -0.00000000000E+00 -0.95016620597E+03  0.95016620597E+03  0.00000000000E+00 0. -1.
         23    2    1    2    0    0 -0.27807013184E+03  0.69492123554E+03 -0.14894422434E+03  0.76857185363E+03  0.90993353564E+02 0.  0.
         13    1    3    3    0    0 -0.10041395303E+03  0.34555235217E+03 -0.10069130461E+03  0.37366847456E+03  0.00000000000E+00 0.  1.
        -13    1    3    3    0    0 -0.17765617881E+03  0.34936888337E+03 -0.48252919729E+02  0.39490337907E+03  0.00000000000E+00 0. -1.
         22    1    1    2    0    0  0.27807013184E+03 -0.69492123554E+03 -0.20639127092E+03  0.77642506306E+03  0.00000000000E+00 0.  1.
<mgrwt>
<rscale>  0 0.15035798E+04</rscale>
<asrwt>0</asrwt>
<pdfrwt beam="1">  1        2 0.14617942E+00 0.15035798E+04</pdfrwt>
<pdfrwt beam="2">  1       -2 0.91512418E-01 0.15035798E+04</pdfrwt>
<totfact> 0.26666417E+01</totfact>
</mgrwt>
</event>
<event>
 6    1  0.2238133E-007  0.1172000E+04  0.7818608E-02  0.9137725E-01
          1   -1    0    0  501    0  0.00000000000E+00  0.00000000000E+00  0.68287252151E+03  0.68287252151E+03  0.00000000000E+00 0. -1.
         -1   -1    0    0    0  501 -0.00000000000E+00 -0.00000000000E+00 -0.50286948150E+03  0.50286948150E+03  0.00000000000E+00 0.  1.
         23    2    1    2    0    0  0.59786263824E+02  0.57893637728E+03  0.11363732847E+03  0.59995523810E+03  0.91055582043E+02 0.  0.
         13    1    3    3    0    0  0.19849093452E+02  0.33837837524E+03  0.10902044288E+03  0.35606090534E+03  0.00000000000E+00 0. -1.
        -13    1    3    3    0    0  0.39937170372E+02  0.24055800204E+03  0.46168855880E+01  0.24389433276E+03  0.00000000000E+00 0.  1.
         22    1    1    2    0    0 -0.59786263824E+02 -0.57893637728E+03  0.66365711537E+02  0.58578676492E+03  0.00000000000E+00 0.  1.
<mgrwt>
<rscale>  0 0.11719996E+04</rscale>
<asrwt>0</asrwt>
<pdfrwt beam="1">  1        1 0.10505731E+00 0.11719996E+04</pdfrwt>
<pdfrwt beam="2">  1       -1 0.77364535E-01 0.11719996E+04</pdfrwt>
<totfact> 0.47005130E+01</totfact>
</mgrwt>
</event>
<event>
 6    1  0.2238133E-007  0.2950765E+04  0.7818608E-02  0.8257932E-01
          2   -1    0    0  501    0  0.00000000000E+00  0.00000000000E+00  0.23161082857E+04  0.23161082857E+04  0.00000000000E+00 0. -1.
         -2   -1    0    0    0  501 -0.00000000000E+00 -0.00000000000E+00 -0.93983223889E+03  0.93983223889E+03  0.00000000000E+00 0.  1.
         23    2    1    2    0    0 -0.81219657144E+03  0.10882193222E+04  0.56021485872E+02  0.13620142669E+04  0.89776905080E+02 0.  0.
         11    1    3    3    0    0 -0.44819095259E+03  0.57009000743E+03 -0.11058353146E+02  0.72525859783E+03  0.00000000000E+00 0. -1.
        -11    1    3    3    0    0 -0.36400561884E+03  0.51812931474E+03  0.67079839018E+02  0.63675566911E+03  0.00000000000E+00 0.  1.
         22    1    1    2    0    0  0.81219657144E+03 -0.10882193222E+04  0.13202545610E+04  0.18939262577E+04  0.00000000000E+00 0. -1.
<mgrwt>
<rscale>  0 0.29507648E+04</rscale>
<asrwt>0</asrwt>
<pdfrwt beam="1">  1        2 0.35632435E+00 0.29507648E+04</pdfrwt>
<pdfrwt beam="2">  1       -2 0.14458958E+00 0.29507648E+04</pdfrwt>
<totfact> 0.12594033E+00</totfact>
</mgrwt>
</event>
<event>
 6    1  0.2238133E-007  0.2544614E+04  0.7818608E-02  0.8387262E-01
         -1   -1    0    0    0  501 -0.00000000000E+00  0.00000000000E+00  0.27455107282E+04  0.27455107282E+04  0.00000000000E+00 0.  1.
          1   -1    0    0  501    0  0.00000000000E+00 -0.00000000000E+00 -0.58960454474E+03  0.58960454474E+03  0.00000000000E+00 0. -1.
         23    2    1    2    0    0  0.59684572550E+03  0.70934481005E+03  0.22182890440E+04  0.24059831505E+04  0.92486530807E+02 0.  0.
         13    1    3    3    0    0  0.11661822326E+03  0.88263625259E+02  0.37095618713E+03  0.39874649880E+03  0.00000000000E+00 0. -1.
        -13    1    3    3    0    0  0.48022750224E+03  0.62108118479E+03  0.18473328568E+04  0.20072366517E+04  0.00000000000E+00 0.  1.
         22    1    1    2    0    0 -0.59684572550E+03 -0.70934481005E+03 -0.62382860518E+02  0.92913212240E+03  0.00000000000E+00 0. -1.
<mgrwt>
<rscale>  0 0.25446144E+04</rscale>
<asrwt>0</asrwt>
<pdfrwt beam="1">  1        1 0.90708393E-01 0.25446144E+04</pdfrwt>
<pdfrwt beam="2">  1       -1 0.42238626E+00 0.25446144E+04</pdfrwt>
<totfact> 0.15598961E-01</totfact>
</mgrwt>
</event>
<event>
 6    1  0.2238133E-007  0.1692349E+04  0.7818608E-02  0.8765740E-01
         -2   -1    0    0    0  501 -0.00000000000E+00  0.00000000000E+00  0.26592168823E+03  0.26592168823E+03  0.00000000000E+00 0.  1.
          2   -1    0    0  501    0  0.00000000000E+00 -0.00000000000E+00 -0.26925658221E+04  0.26925658221E+04  0.00000000000E+00 0. -1.
         23    2    1    2    0    0  0.11714757945E+03 -0.11718673900E+03 -0.26627515420E+04  0.26700382162E+04  0.10678021508E+03 0.  0.
         13    1    3    3    0    0  0.57569527938E+02 -0.12063761101E+03 -0.15804691045E+04  0.15861116840E+04  0.00000000000E+00 0. -1.
        -13    1    3    3    0    0  0.59578051516E+02  0.34508720097E+01 -0.10822824375E+04  0.10839265322E+04  0.00000000000E+00 0.  1.
         22    1    1    2    0    0 -0.11714757945E+03  0.11718673900E+03  0.23610740808E+03  0.28844929419E+03  0.00000000000E+00 0.  1.
<mgrwt>
<rscale>  0 0.16923494E+04</rscale>
<asrwt>0</asrwt>
<pdfrwt beam="1">  1        2 0.41424092E+00 0.16923494E+04</pdfrwt>
<pdfrwt beam="2">  1       -2 0.40911026E-01 0.16923494E+04</pdfrwt>
<totfact> 0.14492249E+01</totfact>
</mgrwt>
</event>
<event>
 6    1  0.2238133E-007  0.1549960E+04  0.7818608E-02  0.8851893E-01
          2   -1    0    0  501    0  0.00000000000E+00  0.00000000000E+00  0.24044878946E+04  0.24044878946E+04  0.00000000000E+00 0. -1.
         -2   -1    0    0    0  501 -0.00000000000E+00 -0.00000000000E+00 -0.24978044603E+03  0.24978044603E+03  0.00000000000E+00 0.  1.
         23    2    1    2    0    0 -0.64764128366E+03 -0.41639002363E+03  0.98010109191E+03  0.12498040381E+04  0.92693576471E+02 0.  0.
         11    1    3    3    0    0 -0.36103993228E+03 -0.27222065519E+03  0.52314818936E+03  0.69147519539E+03  0.00000000000E+00 0.  1.
        -11    1    3    3    0    0 -0.28660135137E+03 -0.14416936844E+03  0.45695290255E+03  0.55832884267E+03  0.00000000000E+00 0. -1.
         22    1    1    2    0    0  0.64764128366E+03  0.41639002363E+03  0.11746063567E+04  0.14044643026E+04  0.00000000000E+00 0.  1.
<mgrwt>
<rscale>  0 0.15499601E+04</rscale>
<asrwt>0</asrwt>
<pdfrwt beam="1">  1        2 0.36992120E+00 0.15499601E+04</pdfrwt>
<pdfrwt beam="2">  1       -2 0.38427763E-01 0.15499601E+04</pdfrwt>
<totfact> 0.24377464E+01</totfact>
</mgrwt>
</event>
<event>
 6    1  0.2238133E-007  0.7828127E+03  0.7818608E-02  0.9585234E-01
         -2   -1    0    0    0  501 -0.00000000000E+00  0.00000000000E+00  0.31415713043E+03  0.31415713043E+03  0.00000000000E+00 0.  1.
          2   -1    0    0  501    0  0.00000000000E+00 -0.00000000000E+00 -0.48765064337E+03  0.48765064337E+03  0.00000000000E+00 0. -1.
         23    2    1    2    0    0 -0.16114496705E+02  0.25205789133E+03 -0.38688436595E+03  0.47115914800E+03  0.92296113360E+02 0.  0.
         11    1    3    3    0    0 -0.41717289284E+02  0.22441425993E+03 -0.30438909389E+03  0.38046657246E+03  0.00000000000E+00 0. -1.
        -11    1    3    3    0    0  0.25602792579E+02  0.27643631407E+02 -0.82495272065E+02  0.90692575541E+02  0.00000000000E+00 0.  1.
         22    1    1    2    0    0  0.16114496705E+02 -0.25205789133E+03  0.21339085302E+03  0.33064862579E+03  0.00000000000E+00 0.  1.
<mgrwt>
<rscale>  0 0.78281269E+03</rscale>
<asrwt>0</asrwt>
<pdfrwt beam="1">  1        2 0.75023175E-01 0.78281269E+03</pdfrwt>
<pdfrwt beam="2">  1       -2 0.48331866E-01 0.78281269E+03</pdfrwt>
<totfact> 0.25898220E+02</totfact>
</mgrwt>
</event>
<event>
 6    1  0.2238133E-007  0.2103850E+04  0.7818608E-02  0.8559549E-01
          3   -1    0    0  501    0  0.00000000000E+00  0.00000000000E+00  0.11211711408E+04  0.11211711408E+04  0.00000000000E+00 0. -1.
         -3   -1    0    0    0  501 -0.00000000000E+00 -0.00000000000E+00 -0.98695598753E+03  0.98695598753E+03  0.00000000000E+00 0.  1.
         23    2    1    2    0    0 -0.50608327527E+03  0.59325112907E+03  0.77146093533E+03  0.11010772933E+04  0.95666333349E+02 0.  0.
         13    1    3    3    0    0 -0.25333107258E+03  0.26042368395E+03  0.30103780769E+03  0.47182718145E+03  0.00000000000E+00 0. -1.
        -13    1    3    3    0    0 -0.25275220268E+03  0.33282744512E+03  0.47042312764E+03  0.62925011181E+03  0.00000000000E+00 0.  1.
         22    1    1    2    0    0  0.50608327527E+03 -0.59325112907E+03 -0.63724578203E+03  0.10070498351E+04  0.00000000000E+00 0.  1.
<mgrwt>
<rscale>  0 0.21038503E+04</rscale>
<asrwt>0</asrwt>
<pdfrwt beam="1">  1        3 0.17248787E+00 0.21038503E+04</pdfrwt>
<pdfrwt beam="2">  1       -3 0.15183938E+00 0.21038503E+04</pdfrwt>
<totfact> 0.16783460E-01</totfact>
</mgrwt>
</event>
<event>
 6    1  0.2238133E-007  0.1801745E+04  0.7818608E-02  0.8705372E-01
          2   -1    0    0  501    0  0.00000000000E+00  0.00000000000E+00  0.28189858207E+04  0.28189858207E+04  0.00000000000E+00 0. -1.
         -2   -1    0    0    0  501 -0.00000000000E+00 -0.00000000000E+00 -0.28789480815E+03  0.28789480815E+03  0.00000000000E+00 0.  1.
         23    2    1    2    0    0 -0.41243421816E+03 -0.21534635752E+03 -0.57223899507E+02  0.47708023301E+03  0.88628077091E+02 0.  0.
         11    1    3    3    0    0 -0.19090893283E+03 -0.14803316706E+03 -0.17926799209E+02  0.24224245977E+03  0.00000000000E+00 0. -1.
        -11    1    3    3    0    0 -0.22152528533E+03 -0.67313190461E+02 -0.39297100298E+02  0.23483777324E+03  0.00000000000E+00 0.  1.
         22    1    1    2    0    0  0.41243421816E+03  0.21534635752E+03  0.25883149121E+04  0.26298003959E+04  0.00000000000E+00 0. -1.
<mgrwt>
<rscale>  0 0.18017451E+04</rscale>
<asrwt>0</asrwt>
<pdfrwt beam="1">  1        2 0.43369011E+00 0.18017451E+04</pdfrwt>
<pdfrwt beam="2">  1       -2 0.44291511E-01 0.18017451E+04</pdfrwt>
<totfact> 0.10303589E+01</totfact>
</mgrwt>
</event>
<event>
 6    1  0.2238133E-007  0.1972676E+04  0.7818608E-02  0.8619503E-01
          2   -1    0    0  501    0  0.00000000000E+00  0.00000000000E+00  0.48062966405E+04  0.48062966405E+04  0.00000000000E+00 0. -1.
         -2   -1    0    0    0  501 -0.00000000000E+00 -0.00000000000E+00 -0.20241409457E+03  0.20241409457E+03  0.00000000000E+00 0.  1.
         23    2    1    2    0    0  0.91100826554E+03  0.31679872304E+03  0.28038462731E+04  0.29665481376E+04  0.92501021627E+02 0.  0.
         13    1    3    3    0    0  0.49844863362E+03  0.18068002571E+03  0.16791392678E+04  0.17608534842E+04  0.00000000000E+00 0. -1.
        -13    1    3    3    0    0  0.41255963192E+03  0.13611869734E+03  0.11247070053E+04  0.12056946535E+04  0.00000000000E+00 0.  1.
         22    1    1    2    0    0 -0.91100826554E+03 -0.31679872304E+03  0.18000362729E+04  0.20421625974E+04  0.00000000000E+00 0. -1.
<mgrwt>
<rscale>  0 0.19726755E+04</rscale>
<asrwt>0</asrwt>
<pdfrwt beam="1">  1        2 0.73943017E+00 0.19726755E+04</pdfrwt>
<pdfrwt beam="2">  1       -2 0.31140634E-01 0.19726755E+04</pdfrwt>
<totfact> 0.53318191E-01</totfact>
</mgrwt>
</event>
<event>
 6    1  0.2238133E-007  0.2688972E+04  0.7818608E-02  0.8338592E-01
         -2   -1    0    0    0  501 -0.00000000000E+00  0.00000000000E+00  0.13360104160E+04  0.13360104160E+04  0.00000000000E+00 0.  1.
          2   -1    0    0  501    0  0.00000000000E+00 -0.00000000000E+00 -0.13530157656E+04  0.13530157656E+04  0.00000000000E+00 0. -1.
         23    2    1    2    0    0  0.85929737467E+03  0.38180864309E+03 -0.96757663839E+03  0.13519564029E+04  0.86091498280E+02 0.  0.
         11    1    3    3    0    0  0.51130183283E+03  0.18466923596E+03 -0.53254292526E+03  0.76100871099E+03  0.00000000000E+00 0. -1.
        -11    1    3    3    0    0  0.34799554184E+03  0.19713940713E+03 -0.43503371313E+03  0.59094769189E+03  0.00000000000E+00 0.  1.
         22    1    1    2    0    0 -0.85929737467E+03 -0.38180864309E+03  0.95057128882E+03  0.13370697787E+04  0.00000000000E+00 0.  1.
<mgrwt>
<rscale>  0 0.26889724E+04</rscale>
<asrwt>0</asrwt>
<pdfrwt beam="1">  1        2 0.20815627E+00 0.26889724E+04</pdfrwt>
<pdfrwt beam="2">  1       -2 0.20554006E+00 0.26889724E+04</pdfrwt>
<totfact> 0.16548178E+00</totfact>
</mgrwt>
</event>
<event>
 6    1  0.2238133E-007  0.1243314E+04  0.7818608E-02  0.9075766E-01
         -2   -1    0    0    0  501 -0.00000000000E+00  0.00000000000E+00  0.29596591075E+03  0.29596591075E+03  0.00000000000E+00 0.  1.
          2   -1    0    0  501    0  0.00000000000E+00 -0.00000000000E+00 -0.13057503010E+04  0.13057503010E+04  0.00000000000E+00 0. -1.
         23    2    1    2    0    0  0.49418714341E+03 -0.18454302730E+03 -0.92307114977E+03  0.10671170650E+04  0.91659267331E+02 0.  0.
         13    1    3    3    0    0  0.11191277133E+03 -0.34060607605E+01 -0.21125024124E+03  0.23908729381E+03  0.00000000000E+00 0.  1.
        -13    1    3    3    0    0  0.38227437208E+03 -0.18113696654E+03 -0.71182090853E+03  0.82802977122E+03  0.00000000000E+00 0. -1.
         22    1    1    2    0    0 -0.49418714341E+03  0.18454302730E+03 -0.86713240510E+02  0.53459914676E+03  0.00000000000E+00 0.  1.
<mgrwt>
<rscale>  0 0.12433142E+04</rscale>
<asrwt>0</asrwt>
<pdfrwt beam="1">  1        2 0.20088466E+00 0.12433142E+04</pdfrwt>
<pdfrwt beam="2">  1       -2 0.45533218E-01 0.12433142E+04</pdfrwt>
<totfact> 0.73794048E+01</totfact>
</mgrwt>
</event>
<event>
 6    1  0.2238133E-007  0.1846141E+04  0.7818608E-02  0.8682140E-01
          2   -1    0    0  501    0  0.00000000000E+00  0.00000000000E+00  0.18749284907E+04  0.18749284907E+04  0.00000000000E+00 0. -1.
         -2   -1    0    0    0  501 -0.00000000000E+00 -0.00000000000E+00 -0.45444874908E+03  0.45444874908E+03  0.00000000000E+00 0.  1.
         23    2    1    2    0    0  0.65098508153E+03 -0.38338322324E+03  0.13761586005E+04  0.15725888706E+04  0.91972766705E+02 0.  0.
         11    1    3    3    0    0  0.38973894542E+03 -0.21547272176E+03  0.71900052203E+03  0.84574623268E+03  0.00000000000E+00 0. -1.
        -11    1    3    3    0    0  0.26124613611E+03 -0.16791050148E+03  0.65715807849E+03  0.72684263790E+03  0.00000000000E+00 0.  1.
         22    1    1    2    0    0 -0.65098508153E+03  0.38338322324E+03  0.44321141119E+02  0.75678836922E+03  0.00000000000E+00 0.  1.
<mgrwt>
<rscale>  0 0.18461407E+04</rscale>
<asrwt>0</asrwt>
<pdfrwt beam="1">  1        2 0.28845053E+00 0.18461407E+04</pdfrwt>
<pdfrwt beam="2">  1       -2 0.69915193E-01 0.18461407E+04</pdfrwt>
<totfact> 0.13744471E+01</totfact>
</mgrwt>
</event>
<event>
 6    1  0.2238133E-007  0.2724653E+04  0.7818608E-02  0.8327050E-01
         -1   -1    0    0    0  501 -0.00000000000E+00  0.00000000000E+00  0.14010755963E+04  0.14010755963E+04  0.00000000000E+00 0.  1.
          1   -1    0    0  501    0  0.00000000000E+00 -0.00000000000E+00 -0.13246493055E+04  0.13246493055E+04  0.00000000000E+00 0. -1.
         23    2    1    2    0    0  0.98224407946E+03  0.70385175080E+03 -0.58793096233E+03  0.13467465559E+04  0.88615747073E+02 0.  0.
         13    1    3    3    0    0  0.25433841723E+03  0.14658088121E+03 -0.11567982735E+03  0.31552465462E+03  0.00000000000E+00 0.  1.
        -13    1    3    3    0    0  0.72790566223E+03  0.55727086959E+03 -0.47225113498E+03  0.10312219013E+04  0.00000000000E+00 0. -1.
         22    1    1    2    0    0 -0.98224407946E+03 -0.70385175080E+03  0.66435725305E+03  0.13789783459E+04  0.00000000000E+00 0.  1.
<mgrwt>
<rscale>  0 0.27246532E+04</rscale>
<asrwt>0</asrwt>
<pdfrwt beam="1">  1        1 0.20379220E+00 0.27246532E+04</pdfrwt>
<pdfrwt beam="2">  1       -1 0.21555009E+00 0.27246532E+04</pdfrwt>
<totfact> 0.89236922E-01</totfact>
</mgrwt>
</event>
<event>
 6    1  0.2483118E-007  0.3920382E+04  0.7818608E-02  0.8020803E-01
          2   -1    0    0  501    0  0.00000000000E+00  0.00000000000E+00  0.18927142829E+04  0.18927142829E+04  0.00000000000E+00 0. -1.
         -2   -1    0    0    0  501 -0.00000000000E+00 -0.00000000000E+00 -0.20300734238E+04  0.20300734238E+04  0.00000000000E+00 0.  1.
         23    2    1    2    0    0 -0.34828716932E+03 -0.18460436151E+04  0.48745967247E+03  0.19429949068E+04  0.91822079529E+02 0.  0.
         11    1    3    3    0    0 -0.16902587020E+03 -0.11334427188E+04  0.28853374075E+03  0.11817418758E+04  0.00000000000E+00 0. -1.
        -11    1    3    3    0    0 -0.17926129912E+03 -0.71260089635E+03  0.19892593172E+03  0.76125303097E+03  0.00000000000E+00 0.  1.
         22    1    1    2    0    0  0.34828716932E+03  0.18460436151E+04 -0.62481881334E+03  0.19797927999E+04  0.00000000000E+00 0.  1.
<mgrwt>
<rscale>  0 0.39203821E+04</rscale>
<asrwt>0</asrwt>
<pdfrwt beam="1">  1        2 0.29118681E+00 0.39203821E+04</pdfrwt>
<pdfrwt beam="2">  1       -2 0.31231899E+00 0.39203821E+04</pdfrwt>
<totfact> 0.16249133E-01</totfact>
</mgrwt>
</event>
<event>
 6    1  0.2238133E-007  0.2483660E+04  0.7818608E-02  0.8408830E-01
         -2   -1    0    0    0  501 -0.00000000000E+00  0.00000000000E+00  0.92916315415E+03  0.92916315415E+03  0.00000000000E+00 0.  1.
          2   -1    0    0  501    0  0.00000000000E+00 -0.00000000000E+00 -0.16597108592E+04  0.16597108592E+04  0.00000000000E+00 0. -1.
         23    2    1    2    0    0 -0.24188585992E+03 -0.63246062386E+02 -0.16320283449E+04  0.16533655004E+04  0.87132806307E+02 0.  0.
         11    1    3    3    0    0 -0.40386754051E+02 -0.27224789077E+02 -0.54951362298E+03  0.55166792627E+03  0.00000000000E+00 0. -1.
        -11    1    3    3    0    0 -0.20149910587E+03 -0.36021273309E+02 -0.10825147219E+04  0.11016975741E+04  0.00000000000E+00 0.  1.
         22    1    1    2    0    0  0.24188585992E+03  0.63246062386E+02  0.90148063986E+03  0.93550851288E+03  0.00000000000E+00 0.  1.
<mgrwt>
<rscale>  0 0.24836603E+04</rscale>
<asrwt>0</asrwt>
<pdfrwt beam="1">  1        2 0.25534013E+00 0.24836603E+04</pdfrwt>
<pdfrwt beam="2">  1       -2 0.14294818E+00 0.24836603E+04</pdfrwt>
<totfact> 0.31377438E+00</totfact>
</mgrwt>
</event>
<event>
 6    1  0.2238133E-007  0.7576380E+03  0.7818608E-02  0.9623443E-01
          2   -1    0    0  501    0  0.00000000000E+00  0.00000000000E+00  0.89690728674E+03  0.89690728674E+03  0.00000000000E+00 0. -1.
         -2   -1    0    0    0  501 -0.00000000000E+00 -0.00000000000E+00 -0.15999853525E+03  0.15999853525E+03  0.00000000000E+00 0.  1.
         23    2    1    2    0    0 -0.34948859366E+03 -0.53241735303E+02  0.20708013297E+03  0.41996365470E+03  0.92251451578E+02 0.  0.
         11    1    3    3    0    0 -0.19105272160E+03 -0.38858518250E+02  0.61807427658E+02  0.20452697862E+03  0.00000000000E+00 0.  1.
        -11    1    3    3    0    0 -0.15843587206E+03 -0.14383217053E+02  0.14527270531E+03  0.21543667607E+03  0.00000000000E+00 0. -1.
         22    1    1    2    0    0  0.34948859366E+03  0.53241735303E+02  0.52982861852E+03  0.63694216730E+03  0.00000000000E+00 0.  1.
<mgrwt>
<rscale>  0 0.75763805E+03</rscale>
<asrwt>0</asrwt>
<pdfrwt beam="1">  1        2 0.13798573E+00 0.75763805E+03</pdfrwt>
<pdfrwt beam="2">  1       -2 0.24615160E-01 0.75763805E+03</pdfrwt>
<totfact> 0.43669226E+02</totfact>
</mgrwt>
</event>
<event>
 6    1  0.2238133E-007  0.6414212E+03  0.7818608E-02  0.9823011E-01
          2   -1    0    0  501    0  0.00000000000E+00  0.00000000000E+00  0.29457308662E+03  0.29457308662E+03  0.00000000000E+00 0. -1.
         -2   -1    0    0    0  501 -0.00000000000E+00 -0.00000000000E+00 -0.34916727074E+03  0.34916727074E+03  0.00000000000E+00 0.  1.
         23    2    1    2    0    0  0.19285987114E+03  0.26293145375E+02  0.22038176475E+03  0.30684566780E+03  0.87748972775E+02 0.  0.
         11    1    3    3    0    0  0.65418347904E+02  0.30818835649E+01  0.13955923234E+03  0.15416172541E+03  0.00000000000E+00 0. -1.
        -11    1    3    3    0    0  0.12744152324E+03  0.23211261810E+02  0.80822532411E+02  0.15268394240E+03  0.00000000000E+00 0.  1.
         22    1    1    2    0    0 -0.19285987114E+03 -0.26293145375E+02 -0.27497594887E+03  0.33689468955E+03  0.00000000000E+00 0.  1.
<mgrwt>
<rscale>  0 0.64142117E+03</rscale>
<asrwt>0</asrwt>
<pdfrwt beam="1">  1        2 0.45318936E-01 0.64142117E+03</pdfrwt>
<pdfrwt beam="2">  1       -2 0.53718042E-01 0.64142117E+03</pdfrwt>
<totfact> 0.36936196E+02</totfact>
</mgrwt>
</event>
<event>
 6    1  0.2238133E-007  0.2432061E+04  0.7818608E-02  0.8427597E-01
          2   -1    0    0  501    0  0.00000000000E+00  0.00000000000E+00  0.25592557811E+04  0.25592557811E+04  0.00000000000E+00 0. -1.
         -2   -1    0    0    0  501 -0.00000000000E+00 -0.00000000000E+00 -0.57779686828E+03  0.57779686828E+03  0.00000000000E+00 0.  1.
         23    2    1    2    0    0  0.45547549172E+03  0.36946659866E+03 -0.37951096540E+03  0.70432943106E+03  0.89932661049E+02 0.  0.
         11    1    3    3    0    0  0.29147126260E+03  0.27424298638E+03 -0.22104576290E+03  0.45719354960E+03  0.00000000000E+00 0. -1.
        -11    1    3    3    0    0  0.16400422912E+03  0.95223612287E+02 -0.15846520250E+03  0.24713588146E+03  0.00000000000E+00 0.  1.
         22    1    1    2    0    0 -0.45547549172E+03 -0.36946659866E+03  0.23609698782E+04  0.24327232183E+04  0.00000000000E+00 0. -1.
<mgrwt>
<rscale>  0 0.24320608E+04</rscale>
<asrwt>0</asrwt>
<pdfrwt beam="1">  1        2 0.39373165E+00 0.24320608E+04</pdfrwt>
<pdfrwt beam="2">  1       -2 0.88891827E-01 0.24320608E+04</pdfrwt>
<totfact> 0.31354653E+00</totfact>
</mgrwt>
</event>
<event>
 6    1  0.2238133E-007  0.3192067E+04  0.7818608E-02  0.8190915E-01
          2   -1    0    0  501    0  0.00000000000E+00  0.00000000000E+00  0.19214504539E+04  0.19214504539E+04  0.00000000000E+00 0. -1.
         -2   -1    0    0    0  501 -0.00000000000E+00 -0.00000000000E+00 -0.13257289690E+04  0.13257289690E+04  0.00000000000E+00 0.  1.
         23    2    1    2    0    0  0.11335690254E+04  0.44616253460E+03  0.13449865023E+04  0.18169913901E+04  0.91811098862E+02 0.  0.
         11    1    3    3    0    0  0.18604267869E+03  0.11035326746E+03  0.23008398754E+03  0.31579797855E+03  0.00000000000E+00 0. -1.
        -11    1    3    3    0    0  0.94752634675E+03  0.33580926714E+03  0.11149025147E+04  0.15011934116E+04  0.00000000000E+00 0.  1.
         22    1    1    2    0    0 -0.11335690254E+04 -0.44616253460E+03 -0.74926501734E+03  0.14301880327E+04  0.00000000000E+00 0.  1.
<mgrwt>
<rscale>  0 0.31920667E+04</rscale>
<asrwt>0</asrwt>
<pdfrwt beam="1">  1        2 0.29560776E+00 0.31920667E+04</pdfrwt>
<pdfrwt beam="2">  1       -2 0.20395830E+00 0.31920667E+04</pdfrwt>
<totfact> 0.78009103E-01</totfact>
</mgrwt>
</event>
<event>
 6    1  0.2238133E-007  0.1116398E+04  0.7818608E-02  0.9189355E-01
          2   -1    0    0  501    0  0.00000000000E+00  0.00000000000E+00  0.67749296781E+03  0.67749296781E+03  0.00000000000E+00 0. -1.
         -2   -1    0    0    0  501 -0.00000000000E+00 -0.00000000000E+00 -0.45991015253E+03  0.45991015253E+03  0.00000000000E+00 0.  1.
         23    2    1    2    0    0 -0.29546246555E+03  0.29940293061E+02  0.58617168921E+03  0.66406154422E+03  0.95843599585E+02 0.  0.
         11    1    3    3    0    0 -0.12900131235E+03  0.16445382839E+02  0.15903308154E+03  0.20543444265E+03  0.00000000000E+00 0.  1.
        -11    1    3    3    0    0 -0.16646115320E+03  0.13494910221E+02  0.42713860767E+03  0.45862710157E+03  0.00000000000E+00 0. -1.
         22    1    1    2    0    0  0.29546246555E+03 -0.29940293061E+02 -0.36858887393E+03  0.47334157612E+03  0.00000000000E+00 0.  1.
<mgrwt>
<rscale>  0 0.11163976E+04</rscale>
<asrwt>0</asrwt>
<pdfrwt beam="1">  1        2 0.10422969E+00 0.11163976E+04</pdfrwt>
<pdfrwt beam="2">  1       -2 0.70755407E-01 0.11163976E+04</pdfrwt>
<totfact> 0.76946820E+01</totfact>
</mgrwt>
</event>
<event>
 6    1  0.2238133E-007  0.3030034E+04  0.7818608E-02  0.8235206E-01
         -1   -1    0    0    0  501 -0.00000000000E+00  0.00000000000E+00  0.18688401740E+04  0.18688401740E+04  0.00000000000E+00 0.  1.
          1   -1    0    0  501    0  0.00000000000E+00 -0.00000000000E+00 -0.12281823938E+04  0.12281823938E+04  0.00000000000E+00 0. -1.
         23    2    1    2    0    0 -0.29188113874E+02 -0.76576853838E+03  0.16547602450E+04  0.18259375158E+04  0.92536170871E+02 0.  0.
         13    1    3    3    0    0 -0.57247253697E+02 -0.65062574571E+03  0.13838542698E+04  0.15302430360E+04  0.00000000000E+00 0.  1.
        -13    1    3    3    0    0  0.28059139823E+02 -0.11514279267E+03  0.27090597516E+03  0.29569447985E+03  0.00000000000E+00 0. -1.
         22    1    1    2    0    0  0.29188113874E+02  0.76576853838E+03 -0.10141024648E+04  0.12710850520E+04  0.00000000000E+00 0. -1.
<mgrwt>
<rscale>  0 0.30300341E+04</rscale>
<asrwt>0</asrwt>
<pdfrwt beam="1">  1        1 0.18895114E+00 0.30300341E+04</pdfrwt>
<pdfrwt beam="2">  1       -1 0.28751387E+00 0.30300341E+04</pdfrwt>
<totfact> 0.34419598E-01</totfact>
</mgrwt>
</event>
<event>
 6    1  0.2238133E-007  0.2946555E+04  0.7818608E-02  0.8259159E-01
          2   -1    0    0  501    0  0.00000000000E+00  0.00000000000E+00  0.27916472015E+04  0.27916472015E+04  0.00000000000E+00 0. -1.
         -2   -1    0    0    0  501 -0.00000000000E+00 -0.00000000000E+00 -0.77751466850E+03  0.77751466850E+03  0.00000000000E+00 0.  1.
         23    2    1    2    0    0 -0.52422389387E+03  0.11792852279E+04  0.15107625286E+03  0.13027764124E+04  0.94223175724E+02 0.  0.
         11    1    3    3    0    0 -0.16714485252E+03  0.39343139622E+03  0.94257973744E+02  0.43773305892E+03  0.00000000000E+00 0.  1.
        -11    1    3    3    0    0 -0.35707904135E+03  0.78585383166E+03  0.56818279120E+02  0.86504335345E+03  0.00000000000E+00 0. -1.
         22    1    1    2    0    0  0.52422389387E+03 -0.11792852279E+04  0.18630562801E+04  0.22663854576E+04  0.00000000000E+00 0.  1.
<mgrwt>
<rscale>  0 0.29465550E+04</rscale>
<asrwt>0</asrwt>
<pdfrwt beam="1">  1        2 0.42948418E+00 0.29465550E+04</pdfrwt>
<pdfrwt beam="2">  1       -2 0.11961764E+00 0.29465550E+04</pdfrwt>
<totfact> 0.10761324E+00</totfact>
</mgrwt>
</event>
<event>
 6    1  0.2238133E-007  0.1470727E+04  0.7818608E-02  0.8904156E-01
         -2   -1    0    0    0  501 -0.00000000000E+00  0.00000000000E+00  0.33622335065E+03  0.33622335065E+03  0.00000000000E+00 0.  1.
          2   -1    0    0  501    0  0.00000000000E+00 -0.00000000000E+00 -0.16083345604E+04  0.16083345604E+04  0.00000000000E+00 0. -1.
         23    2    1    2    0    0  0.55967738376E+03 -0.41024457665E+03 -0.32780574467E+03  0.77269947338E+03  0.89824736939E+02 0.  0.
         11    1    3    3    0    0  0.24351916503E+03 -0.15776286124E+03 -0.91977862973E+02  0.30438566228E+03  0.00000000000E+00 0. -1.
        -11    1    3    3    0    0  0.31615821873E+03 -0.25248171540E+03 -0.23582788170E+03  0.46831381110E+03  0.00000000000E+00 0.  1.
         22    1    1    2    0    0 -0.55967738376E+03  0.41024457665E+03 -0.94430546508E+03  0.11718584377E+04  0.00000000000E+00 0. -1.
<mgrwt>
<rscale>  0 0.14707272E+04</rscale>
<asrwt>0</asrwt>
<pdfrwt beam="1">  1        2 0.24743609E+00 0.14707272E+04</pdfrwt>
<pdfrwt beam="2">  1       -2 0.51726669E-01 0.14707272E+04</pdfrwt>
<totfact> 0.37702755E+01</totfact>
</mgrwt>
</event>
<event>
 6    1  0.2238133E-007  0.1967599E+04  0.7818608E-02  0.8621921E-01
         -2   -1    0    0    0  501 -0.00000000000E+00  0.00000000000E+00  0.35094762885E+03  0.35094762885E+03  0.00000000000E+00 0.  1.
          2   -1    0    0  501    0  0.00000000000E+00 -0.00000000000E+00 -0.27578526308E+04  0.27578526308E+04  0.00000000000E+00 0. -1.
         23    2    1    2    0    0  0.56691648968E+03  0.65191807536E+02  0.55965788149E+02  0.58068301419E+03  0.91740478950E+02 0.  0.
         11    1    3    3    0    0  0.13856706954E+03  0.16779303349E+02 -0.25736592064E+02  0.14193220196E+03  0.00000000000E+00 0. -1.
        -11    1    3    3    0    0  0.42834942014E+03  0.48412504187E+02  0.81702380213E+02  0.43875081222E+03  0.00000000000E+00 0.  1.
         22    1    1    2    0    0 -0.56691648968E+03 -0.65191807536E+02 -0.24628707901E+04  0.25281172455E+04  0.00000000000E+00 0. -1.
<mgrwt>
<rscale>  0 0.19675994E+04</rscale>
<asrwt>0</asrwt>
<pdfrwt beam="1">  1        2 0.42428502E+00 0.19675994E+04</pdfrwt>
<pdfrwt beam="2">  1       -2 0.53991943E-01 0.19675994E+04</pdfrwt>
<totfact> 0.73899403E+00</totfact>
</mgrwt>
</event>
<event>
 6    1  0.2238133E-007  0.1100361E+04  0.7818608E-02  0.9204840E-01
          2   -1    0    0  501    0  0.00000000000E+00  0.00000000000E+00  0.12527507691E+04  0.12527507691E+04  0.00000000000E+00 0. -1.
         -2   -1    0    0    0  501 -0.00000000000E+00 -0.00000000000E+00 -0.24162702462E+03  0.24162702462E+03  0.00000000000E+00 0.  1.
         23    2    1    2    0    0 -0.20908996079E+03  0.47773743490E+03  0.28647538867E+03  0.60159175665E+03  0.88841572153E+02 0.  0.
         13    1    3    3    0    0 -0.14226673887E+03  0.21501084944E+03  0.13394468661E+03  0.29053514320E+03  0.00000000000E+00 0. -1.
        -13    1    3    3    0    0 -0.66823221924E+02  0.26272658546E+03  0.15253070206E+03  0.31105661344E+03  0.00000000000E+00 0.  1.
         22    1    1    2    0    0  0.20908996079E+03 -0.47773743490E+03  0.72464835582E+03  0.89278603708E+03  0.00000000000E+00 0. -1.
<mgrwt>
<rscale>  0 0.11003607E+04</rscale>
<asrwt>0</asrwt>
<pdfrwt beam="1">  1        2 0.19273088E+00 0.11003607E+04</pdfrwt>
<pdfrwt beam="2">  1       -2 0.37173389E-01 0.11003607E+04</pdfrwt>
<totfact> 0.11924112E+02</totfact>
</mgrwt>
</event>
<event>
 6    1  0.2238133E-007  0.4243536E+03  0.7818608E-02  0.1035659E+00
          2   -1    0    0  501    0  0.00000000000E+00  0.00000000000E+00  0.39003468471E+03  0.39003468471E+03  0.00000000000E+00 0. -1.
         -2   -1    0    0    0  501 -0.00000000000E+00 -0.00000000000E+00 -0.11542307407E+03  0.11542307407E+03  0.00000000000E+00 0.  1.
         23    2    1    2    0    0  0.87185823511E+02  0.12844209605E+03  0.29841273428E+03  0.34840606874E+03  0.90762816714E+02 0.  0.
         11    1    3    3    0    0  0.44425285478E+02  0.48547772624E+00  0.63297603106E+02  0.77333228546E+02  0.00000000000E+00 0.  1.
        -11    1    3    3    0    0  0.42760538034E+02  0.12795661832E+03  0.23511513117E+03  0.27107284020E+03  0.00000000000E+00 0. -1.
         22    1    1    2    0    0 -0.87185823511E+02 -0.12844209605E+03 -0.23801123637E+02  0.15705169004E+03  0.00000000000E+00 0.  1.
<mgrwt>
<rscale>  0 0.42435364E+03</rscale>
<asrwt>0</asrwt>
<pdfrwt beam="1">  1        2 0.60005336E-01 0.42435364E+03</pdfrwt>
<pdfrwt beam="2">  1       -2 0.17757396E-01 0.42435364E+03</pdfrwt>
<totfact> 0.21290739E+03</totfact>
</mgrwt>
</event>
<event>
 6    1  0.2238133E-007  0.2995773E+04  0.7818608E-02  0.8244939E-01
         -2   -1    0    0    0  501 -0.00000000000E+00  0.00000000000E+00  0.13125459025E+04  0.13125459025E+04  0.00000000000E+00 0.  1.
          2   -1    0    0  501    0  0.00000000000E+00 -0.00000000000E+00 -0.17093979361E+04  0.17093979361E+04  0.00000000000E+00 0. -1.
         23    2    1    2    0    0 -0.13535084649E+04 -0.36466620436E+03 -0.72705417156E+03  0.15818049366E+04  0.92371444507E+02 0.  0.
         13    1    3    3    0    0 -0.31615895760E+03 -0.77257323711E+02 -0.21269832872E+03  0.38880041098E+03  0.00000000000E+00 0. -1.
        -13    1    3    3    0    0 -0.10373495074E+04 -0.28740888065E+03 -0.51435584284E+03  0.11930045256E+04  0.00000000000E+00 0.  1.
         22    1    1    2    0    0  0.13535084649E+04  0.36466620436E+03  0.33020213795E+03  0.14401389020E+04  0.00000000000E+00 0. -1.
<mgrwt>
<rscale>  0 0.29957725E+04</rscale>
<asrwt>0</asrwt>
<pdfrwt beam="1">  1        2 0.26298430E+00 0.29957725E+04</pdfrwt>
<pdfrwt beam="2">  1       -2 0.20193014E+00 0.29957725E+04</pdfrwt>
<totfact> 0.10719553E+00</totfact>
</mgrwt>
</event>
<event>
 6    1  0.2238133E-007  0.2128631E+04  0.7818608E-02  0.8548735E-01
         -2   -1    0    0    0  501 -0.00000000000E+00  0.00000000000E+00  0.71602278365E+03  0.71602278365E+03  0.00000000000E+00 0.  1.
          2   -1    0    0  501    0  0.00000000000E+00 -0.00000000000E+00 -0.15820271575E+04  0.15820271575E+04  0.00000000000E+00 0. -1.
         23    2    1    2    0    0 -0.54957418032E+03  0.72838217420E+03  0.15355673296E+03  0.92981121129E+03  0.91634311489E+02 0.  0.
         11    1    3    3    0    0 -0.31329775912E+03  0.47562298163E+03  0.69601929279E+02  0.57377446360E+03  0.00000000000E+00 0. -1.
        -11    1    3    3    0    0 -0.23627642120E+03  0.25275919257E+03  0.83954803683E+02  0.35603674769E+03  0.00000000000E+00 0.  1.
         22    1    1    2    0    0  0.54957418032E+03 -0.72838217420E+03 -0.10195611068E+04  0.13682387299E+04  0.00000000000E+00 0. -1.
<mgrwt>
<rscale>  0 0.21286310E+04</rscale>
<asrwt>0</asrwt>
<pdfrwt beam="1">  1        2 0.24338879E+00 0.21286310E+04</pdfrwt>
<pdfrwt beam="2">  1       -2 0.11015735E+00 0.21286310E+04</pdfrwt>
<totfact> 0.68714668E+00</totfact>
</mgrwt>
</event>
<event>
 6    1  0.2238133E-007  0.3065069E+04  0.7818608E-02  0.8225390E-01
         -2   -1    0    0    0  501 -0.00000000000E+00  0.00000000000E+00  0.66549985428E+03  0.66549985428E+03  0.00000000000E+00 0.  1.
          2   -1    0    0  501    0  0.00000000000E+00 -0.00000000000E+00 -0.35291704022E+04  0.35291704022E+04  0.00000000000E+00 0. -1.
         23    2    1    2    0    0 -0.13823109089E+04  0.25624035967E+03 -0.22633696010E+04  0.26660094708E+04  0.91224870147E+02 0.  0.
         11    1    3    3    0    0 -0.67862265134E+03  0.17217980351E+03 -0.11261669957E+04  0.13260568200E+04  0.00000000000E+00 0. -1.
        -11    1    3    3    0    0 -0.70368825756E+03  0.84060556161E+02 -0.11372026053E+04  0.13399526508E+04  0.00000000000E+00 0.  1.
         22    1    1    2    0    0  0.13823109089E+04 -0.25624035967E+03 -0.60030094696E+03  0.15286607857E+04  0.00000000000E+00 0. -1.
<mgrwt>
<rscale>  0 0.30650693E+04</rscale>
<asrwt>0</asrwt>
<pdfrwt beam="1">  1        2 0.54294929E+00 0.30650693E+04</pdfrwt>
<pdfrwt beam="2">  1       -2 0.10238459E+00 0.30650693E+04</pdfrwt>
<totfact> 0.51509936E-01</totfact>
</mgrwt>
</event>
<event>
 6    1  0.2238133E-007  0.5954671E+03  0.7818608E-02  0.9914855E-01
          2   -1    0    0  501    0  0.00000000000E+00  0.00000000000E+00  0.33021237075E+04  0.33021237075E+04  0.00000000000E+00 0. -1.
         -2   -1    0    0    0  501 -0.00000000000E+00 -0.00000000000E+00 -0.26844925930E+02  0.26844925930E+02  0.00000000000E+00 0.  1.
         23    2    1    2    0    0 -0.22313421981E+03 -0.14387182613E+03  0.23375788475E+04  0.23544076304E+04  0.92045853095E+02 0.  0.
         13    1    3    3    0    0 -0.12385093005E+03 -0.25444689956E+02  0.10668251102E+04  0.10742915344E+04  0.00000000000E+00 0.  1.
        -13    1    3    3    0    0 -0.99283289765E+02 -0.11842713618E+03  0.12707537373E+04  0.12801160959E+04  0.00000000000E+00 0. -1.
         22    1    1    2    0    0  0.22313421981E+03  0.14387182613E+03  0.93769993403E+03  0.97456100306E+03  0.00000000000E+00 0.  1.
<mgrwt>
<rscale>  0 0.59546710E+03</rscale>
<asrwt>0</asrwt>
<pdfrwt beam="1">  1        2 0.50801871E+00 0.59546710E+03</pdfrwt>
<pdfrwt beam="2">  1       -2 0.41299912E-02 0.59546710E+03</pdfrwt>
<totfact> 0.33530595E+02</totfact>
</mgrwt>
</event>
<event>
 6    1  0.2238133E-007  0.2076779E+04  0.7818608E-02  0.8571542E-01
          2   -1    0    0  501    0  0.00000000000E+00  0.00000000000E+00  0.32560505092E+04  0.32560505092E+04  0.00000000000E+00 0. -1.
         -2   -1    0    0    0  501 -0.00000000000E+00 -0.00000000000E+00 -0.33115360165E+03  0.33115360165E+03  0.00000000000E+00 0.  1.
         23    2    1    2    0    0 -0.18779493939E+03 -0.67181193238E+03  0.14116322795E+03  0.71740073593E+03  0.90213897120E+02 0.  0.
         11    1    3    3    0    0 -0.15131362878E+03 -0.60543851827E+03  0.10269799586E+03  0.63245433986E+03  0.00000000000E+00 0.  1.
        -11    1    3    3    0    0 -0.36481310610E+02 -0.66373414114E+02  0.38465232087E+02  0.84946396065E+02  0.00000000000E+00 0. -1.
         22    1    1    2    0    0  0.18779493939E+03  0.67181193238E+03  0.27837336796E+04  0.28698033749E+04  0.00000000000E+00 0. -1.
<mgrwt>
<rscale>  0 0.20767791E+04</rscale>
<asrwt>0</asrwt>
<pdfrwt beam="1">  1        2 0.50093083E+00 0.20767791E+04</pdfrwt>
<pdfrwt beam="2">  1       -2 0.50946710E-01 0.20767791E+04</pdfrwt>
<totfact> 0.40185613E+00</totfact>
</mgrwt>
</event>
<event>
 6    1  0.2238133E-007  0.4773427E+04  0.7818608E-02  0.7864441E-01
         -2   -1    0    0    0  501 -0.00000000000E+00  0.00000000000E+00  0.15878213073E+04  0.15878213073E+04  0.00000000000E+00 0.  1.
          2   -1    0    0  501    0  0.00000000000E+00 -0.00000000000E+00 -0.35875577389E+04  0.35875577389E+04  0.00000000000E+00 0. -1.
         23    2    1    2    0    0 -0.19814681263E+04 -0.75186252808E+03  0.18779929495E+03  0.21295908474E+04  0.91517241392E+02 0.  0.
         13    1    3    3    0    0 -0.12096751432E+04 -0.42917785337E+03  0.78568044786E+02  0.12859551001E+04  0.00000000000E+00 0.  1.
        -13    1    3    3    0    0 -0.77179298316E+03 -0.32268467470E+03  0.10923125016E+03  0.84363574732E+03  0.00000000000E+00 0. -1.
         22    1    1    2    0    0  0.19814681263E+04  0.75186252808E+03 -0.21875357265E+04  0.30457881987E+04  0.00000000000E+00 0. -1.
<mgrwt>
<rscale>  0 0.47734267E+04</rscale>
<asrwt>0</asrwt>
<pdfrwt beam="1">  1        2 0.55193196E+00 0.47734267E+04</pdfrwt>
<pdfrwt beam="2">  1       -2 0.24428020E+00 0.47734267E+04</pdfrwt>
<totfact> 0.36323388E-02</totfact>
</mgrwt>
</event>
<event>
 6    1  0.2238133E-007  0.1783490E+04  0.7818608E-02  0.8715129E-01
         -2   -1    0    0    0  501 -0.00000000000E+00  0.00000000000E+00  0.52336126807E+03  0.52336126807E+03  0.00000000000E+00 0.  1.
          2   -1    0    0  501    0  0.00000000000E+00 -0.00000000000E+00 -0.15194273749E+04  0.15194273749E+04  0.00000000000E+00 0. -1.
         23    2    1    2    0    0 -0.65927354757E+03 -0.31807580323E+03 -0.10778760659E+04  0.13062381039E+04  0.92883494525E+02 0.  0.
         13    1    3    3    0    0 -0.58983775560E+02 -0.63860724904E+01 -0.11685277625E+03  0.13105128393E+03  0.00000000000E+00 0.  1.
        -13    1    3    3    0    0 -0.60028977201E+03 -0.31168973074E+03 -0.96102328963E+03  0.11751868200E+04  0.00000000000E+00 0. -1.
         22    1    1    2    0    0  0.65927354757E+03  0.31807580323E+03  0.81809959096E+02  0.73655053903E+03  0.00000000000E+00 0.  1.
<mgrwt>
<rscale>  0 0.17834903E+04</rscale>
<asrwt>0</asrwt>
<pdfrwt beam="1">  1        2 0.23375806E+00 0.17834903E+04</pdfrwt>
<pdfrwt beam="2">  1       -2 0.80517119E-01 0.17834903E+04</pdfrwt>
<totfact> 0.15939991E+01</totfact>
</mgrwt>
</event>
<event>
 6    1  0.2238133E-007  0.5191241E+04  0.7818608E-02  0.7799665E-01
         -2   -1    0    0    0  501 -0.00000000000E+00  0.00000000000E+00  0.13761983415E+04  0.13761983415E+04  0.00000000000E+00 0.  1.
          2   -1    0    0  501    0  0.00000000000E+00 -0.00000000000E+00 -0.48955485007E+04  0.48955485007E+04  0.00000000000E+00 0. -1.
         23    2    1    2    0    0 -0.10280914373E+04 -0.18131243016E+04 -0.36274445672E+04  0.41846253466E+04  0.91342581265E+02 0.  0.
         13    1    3    3    0    0 -0.58972218502E+03 -0.10185109655E+04 -0.19594064890E+04  0.22856969684E+04  0.00000000000E+00 0. -1.
        -13    1    3    3    0    0 -0.43836925223E+03 -0.79461333605E+03 -0.16680380782E+04  0.18989283782E+04  0.00000000000E+00 0.  1.
         22    1    1    2    0    0  0.10280914373E+04  0.18131243016E+04  0.10809440805E+03  0.20871214956E+04  0.00000000000E+00 0.  1.
<mgrwt>
<rscale>  0 0.51912410E+04</rscale>
<asrwt>0</asrwt>
<pdfrwt beam="1">  1        2 0.75316130E+00 0.51912410E+04</pdfrwt>
<pdfrwt beam="2">  1       -2 0.21172282E+00 0.51912410E+04</pdfrwt>
<totfact> 0.36316605E-03</totfact>
</mgrwt>
</event>
<event>
 6    1  0.2238133E-007  0.4556687E+04  0.7818608E-02  0.7900787E-01
         -2   -1    0    0    0  501 -0.00000000000E+00  0.00000000000E+00  0.34953963814E+04  0.34953963814E+04  0.00000000000E+00 0.  1.
          2   -1    0    0  501    0  0.00000000000E+00 -0.00000000000E+00 -0.14850530788E+04  0.14850530788E+04  0.00000000000E+00 0. -1.
         23    2    1    2    0    0 -0.83268965677E+03  0.20369251706E+04  0.16467816286E+04  0.27500653440E+04  0.92376668085E+02 0.  0.
         11    1    3    3    0    0 -0.23883495548E+03  0.69948281066E+03  0.55359124813E+03  0.92346175253E+03  0.00000000000E+00 0.  1.
        -11    1    3    3    0    0 -0.59385470129E+03  0.13374423599E+04  0.10931903805E+04  0.18266035915E+04  0.00000000000E+00 0. -1.
         22    1    1    2    0    0  0.83268965677E+03 -0.20369251706E+04  0.36356167392E+03  0.22303841162E+04  0.00000000000E+00 0. -1.
<mgrwt>
<rscale>  0 0.45566870E+04</rscale>
<asrwt>0</asrwt>
<pdfrwt beam="1">  1        2 0.22846970E+00 0.45566870E+04</pdfrwt>
<pdfrwt beam="2">  1       -2 0.53775329E+00 0.45566870E+04</pdfrwt>
<totfact> 0.97352159E-03</totfact>
</mgrwt>
</event>
<event>
 6    1  0.2238133E-007  0.2985000E+04  0.7818608E-02  0.8248027E-01
         -2   -1    0    0    0  501 -0.00000000000E+00  0.00000000000E+00  0.65044928075E+03  0.65044928075E+03  0.00000000000E+00 0.  1.
          2   -1    0    0  501    0  0.00000000000E+00 -0.00000000000E+00 -0.34246420253E+04  0.34246420253E+04  0.00000000000E+00 0. -1.
         23    2    1    2    0    0  0.17616340608E+03 -0.13739695848E+04 -0.21417702689E+04  0.25523358584E+04  0.91719593794E+02 0.  0.
         13    1    3    3    0    0  0.41157555494E+02 -0.54785190365E+03 -0.78608917797E+03  0.95904736506E+03  0.00000000000E+00 0. -1.
        -13    1    3    3    0    0  0.13500585059E+03 -0.82611768116E+03 -0.13556810909E+04  0.15932884934E+04  0.00000000000E+00 0.  1.
         22    1    1    2    0    0 -0.17616340608E+03  0.13739695848E+04 -0.63242247569E+03  0.15227554477E+04  0.00000000000E+00 0.  1.
<mgrwt>
<rscale>  0 0.29849998E+04</rscale>
<asrwt>0</asrwt>
<pdfrwt beam="1">  1        2 0.52686801E+00 0.29849998E+04</pdfrwt>
<pdfrwt beam="2">  1       -2 0.10006912E+00 0.29849998E+04</pdfrwt>
<totfact> 0.64766423E-01</totfact>
</mgrwt>
</event>
<event>
 6    1  0.2238133E-007  0.1470962E+04  0.7818608E-02  0.8903996E-01
         -1   -1    0    0    0  501 -0.00000000000E+00  0.00000000000E+00  0.34804815316E+03  0.34804815316E+03  0.00000000000E+00 0.  1.
          1   -1    0    0  501    0  0.00000000000E+00 -0.00000000000E+00 -0.15541872085E+04  0.15541872085E+04  0.00000000000E+00 0. -1.
         23    2    1    2    0    0 -0.37997860061E+03  0.62014007394E+03 -0.49235269974E+03  0.88319247264E+03  0.93060811019E+02 0.  0.
         11    1    3    3    0    0 -0.24680513743E+03  0.31524682670E+03 -0.26002208743E+03  0.47739378249E+03  0.00000000000E+00 0. -1.
        -11    1    3    3    0    0 -0.13317346318E+03  0.30489324724E+03 -0.23233061232E+03  0.40579869015E+03  0.00000000000E+00 0.  1.
         22    1    1    2    0    0  0.37997860061E+03 -0.62014007394E+03 -0.71378635558E+03  0.10190428890E+04  0.00000000000E+00 0. -1.
<mgrwt>
<rscale>  0 0.14709616E+04</rscale>
<asrwt>0</asrwt>
<pdfrwt beam="1">  1        1 0.23910572E+00 0.14709616E+04</pdfrwt>
<pdfrwt beam="2">  1       -1 0.53545870E-01 0.14709616E+04</pdfrwt>
<totfact> 0.20474552E+01</totfact>
</mgrwt>
</event>
<event>
 6    1  0.2238133E-007  0.2883634E+04  0.7818608E-02  0.8277763E-01
         -2   -1    0    0    0  501 -0.00000000000E+00  0.00000000000E+00  0.21419658756E+04  0.21419658756E+04  0.00000000000E+00 0.  1.
          2   -1    0    0  501    0  0.00000000000E+00 -0.00000000000E+00 -0.97052744129E+03  0.97052744129E+03  0.00000000000E+00 0. -1.
         23    2    1    2    0    0 -0.58255129155E+03  0.64013249436E+03 -0.65637248660E+03  0.10901114587E+04  0.91556177542E+02 0.  0.
         11    1    3    3    0    0 -0.46472060958E+03  0.49306957439E+03 -0.46665637994E+03  0.82270956424E+03  0.00000000000E+00 0. -1.
        -11    1    3    3    0    0 -0.11783068197E+03  0.14706291996E+03 -0.18971610667E+03  0.26740189448E+03  0.00000000000E+00 0.  1.
         22    1    1    2    0    0  0.58255129155E+03 -0.64013249436E+03  0.18278109209E+04  0.20223818581E+04  0.00000000000E+00 0.  1.
<mgrwt>
<rscale>  0 0.28836343E+04</rscale>
<asrwt>0</asrwt>
<pdfrwt beam="1">  1        2 0.14931192E+00 0.28836343E+04</pdfrwt>
<pdfrwt beam="2">  1       -2 0.32953321E+00 0.28836343E+04</pdfrwt>
<totfact> 0.47532794E-01</totfact>
</mgrwt>
</event>
<event>
 6    1  0.2238133E-007  0.3089719E+04  0.7818608E-02  0.8218565E-01
          2   -1    0    0  501    0  0.00000000000E+00  0.00000000000E+00  0.12971619333E+04  0.12971619333E+04  0.00000000000E+00 0. -1.
         -2   -1    0    0    0  501 -0.00000000000E+00 -0.00000000000E+00 -0.18398556183E+04  0.18398556183E+04  0.00000000000E+00 0.  1.
         23    2    1    2    0    0  0.83490838727E+03 -0.11071404801E+04  0.41682029686E+03  0.14507497380E+04  0.90019912973E+02 0.  0.
         11    1    3    3    0    0  0.68993944914E+03 -0.87994007440E+03  0.30551399447E+03  0.11591590826E+04  0.00000000000E+00 0. -1.
        -11    1    3    3    0    0  0.14496893813E+03 -0.22720040569E+03  0.11130630238E+03  0.29159065541E+03  0.00000000000E+00 0.  1.
         22    1    1    2    0    0 -0.83490838727E+03  0.11071404801E+04 -0.95951398180E+03  0.16862678136E+04  0.00000000000E+00 0.  1.
<mgrwt>
<rscale>  0 0.30897189E+04</rscale>
<asrwt>0</asrwt>
<pdfrwt beam="1">  1        2 0.19956337E+00 0.30897189E+04</pdfrwt>
<pdfrwt beam="2">  1       -2 0.28305471E+00 0.30897189E+04</pdfrwt>
<totfact> 0.56886303E-01</totfact>
</mgrwt>
</event>
<event>
 6    1  0.2238133E-007  0.1354130E+04  0.7818608E-02  0.8987708E-01
         -2   -1    0    0    0  501 -0.00000000000E+00  0.00000000000E+00  0.64227914021E+03  0.64227914021E+03  0.00000000000E+00 0.  1.
          2   -1    0    0  501    0  0.00000000000E+00 -0.00000000000E+00 -0.71373494122E+03  0.71373494122E+03  0.00000000000E+00 0. -1.
         23    2    1    2    0    0 -0.48161264463E+01 -0.17643685378E+03 -0.68748883573E+03  0.71519440453E+03  0.87800789091E+02 0.  0.
         11    1    3    3    0    0 -0.34560306432E+02 -0.59830740416E+02 -0.35344210564E+03  0.36013255104E+03  0.00000000000E+00 0. -1.
        -11    1    3    3    0    0  0.29744179986E+02 -0.11660611336E+03 -0.33404673010E+03  0.35506185349E+03  0.00000000000E+00 0.  1.
         22    1    1    2    0    0  0.48161264463E+01  0.17643685378E+03  0.61603303472E+03  0.64081967691E+03  0.00000000000E+00 0.  1.
<mgrwt>
<rscale>  0 0.13541301E+04</rscale>
<asrwt>0</asrwt>
<pdfrwt beam="1">  1        2 0.10980538E+00 0.13541301E+04</pdfrwt>
<pdfrwt beam="2">  1       -2 0.98812176E-01 0.13541301E+04</pdfrwt>
<totfact> 0.33173955E+01</totfact>
</mgrwt>
</event>
<event>
 6    1  0.2238133E-007  0.1909786E+04  0.7818608E-02  0.8650001E-01
         -2   -1    0    0    0  501 -0.00000000000E+00  0.00000000000E+00  0.15694695480E+04  0.15694695480E+04  0.00000000000E+00 0.  1.
          2   -1    0    0  501    0  0.00000000000E+00 -0.00000000000E+00 -0.58097369603E+03  0.58097369603E+03  0.00000000000E+00 0. -1.
         23    2    1    2    0    0  0.46255147355E+03  0.68148169557E+03  0.10343257352E+04  0.13255362521E+04  0.94050316818E+02 0.  0.
         13    1    3    3    0    0  0.35517265483E+03  0.45009868472E+03  0.73777222385E+03  0.93436839363E+03  0.00000000000E+00 0. -1.
        -13    1    3    3    0    0  0.10737881872E+03  0.23138301085E+03  0.29655351137E+03  0.39116785851E+03  0.00000000000E+00 0.  1.
         22    1    1    2    0    0 -0.46255147355E+03 -0.68148169557E+03 -0.45829883251E+02  0.82490699190E+03  0.00000000000E+00 0. -1.
<mgrwt>
<rscale>  0 0.19097859E+04</rscale>
<asrwt>0</asrwt>
<pdfrwt beam="1">  1        2 0.89380569E-01 0.19097859E+04</pdfrwt>
<pdfrwt beam="2">  1       -2 0.24145685E+00 0.19097859E+04</pdfrwt>
<totfact> 0.34998957E+00</totfact>
</mgrwt>
</event>
<event>
 6    1  0.2238133E-007  0.5419816E+04  0.7818608E-02  0.7766820E-01
          2   -1    0    0  501    0  0.00000000000E+00  0.00000000000E+00  0.27837285816E+04  0.27837285816E+04  0.00000000000E+00 0. -1.
         -2   -1    0    0    0  501 -0.00000000000E+00 -0.00000000000E+00 -0.26380451644E+04  0.26380451644E+04  0.00000000000E+00 0.  1.
         23    2    1    2    0    0  0.90992563109E+03 -0.51910102902E+03  0.25721775318E+04  0.27788011355E+04  0.90597808801E+02 0.  0.
         11    1    3    3    0    0  0.20696305200E+03 -0.12577535734E+03  0.50003497747E+03  0.55559708792E+03  0.00000000000E+00 0. -1.
        -11    1    3    3    0    0  0.70296257908E+03 -0.39332567168E+03  0.20721425543E+04  0.22232040475E+04  0.00000000000E+00 0.  1.
         22    1    1    2    0    0 -0.90992563109E+03  0.51910102902E+03 -0.24264941145E+04  0.26429726106E+04  0.00000000000E+00 0.  1.
<mgrwt>
<rscale>  0 0.54198161E+04</rscale>
<asrwt>0</asrwt>
<pdfrwt beam="1">  1        2 0.42826594E+00 0.54198161E+04</pdfrwt>
<pdfrwt beam="2">  1       -2 0.40585310E+00 0.54198161E+04</pdfrwt>
<totfact> 0.11331270E-02</totfact>
</mgrwt>
</event>
<event>
 6    1  0.2238133E-007  0.7817854E+03  0.7818608E-02  0.9586763E-01
          2   -1    0    0  501    0  0.00000000000E+00  0.00000000000E+00  0.43547004095E+03  0.43547004095E+03  0.00000000000E+00 0. -1.
         -2   -1    0    0    0  501 -0.00000000000E+00 -0.00000000000E+00 -0.35087857411E+03  0.35087857411E+03  0.00000000000E+00 0.  1.
         23    2    1    2    0    0 -0.16483072605E+03  0.18322927066E+03  0.34131730231E+03  0.43046901678E+03  0.89799441383E+02 0.  0.
         11    1    3    3    0    0 -0.12569203000E+03  0.12277971080E+03  0.16936005843E+03  0.24404133499E+03  0.00000000000E+00 0. -1.
        -11    1    3    3    0    0 -0.39138696046E+02  0.60449559860E+02  0.17195724388E+03  0.18642768179E+03  0.00000000000E+00 0.  1.
         22    1    1    2    0    0  0.16483072605E+03 -0.18322927066E+03 -0.25672583547E+03  0.35587959829E+03  0.00000000000E+00 0.  1.
<mgrwt>
<rscale>  0 0.78178541E+03</rscale>
<asrwt>0</asrwt>
<pdfrwt beam="1">  1        2 0.66995391E-01 0.78178541E+03</pdfrwt>
<pdfrwt beam="2">  1       -2 0.53981319E-01 0.78178541E+03</pdfrwt>
<totfact> 0.23522471E+02</totfact>
</mgrwt>
</event>
<event>
 6    1  0.2238133E-007  0.1137535E+04  0.7818608E-02  0.9169361E-01
         -2   -1    0    0    0  501 -0.00000000000E+00  0.00000000000E+00  0.33699478849E+03  0.33699478849E+03  0.00000000000E+00 0.  1.
          2   -1    0    0  501    0  0.00000000000E+00 -0.00000000000E+00 -0.95994449433E+03  0.95994449433E+03  0.00000000000E+00 0. -1.
         23    2    1    2    0    0  0.21428533802E+03  0.14973147319E+03 -0.88506442087E+03  0.92674765138E+03  0.84761194470E+02 0.  0.
         13    1    3    3    0    0  0.14423405898E+03  0.99353767585E+02 -0.44346479799E+03  0.47679729651E+03  0.00000000000E+00 0.  1.
        -13    1    3    3    0    0  0.70051279045E+02  0.50377705608E+02 -0.44159962288E+03  0.44995035487E+03  0.00000000000E+00 0. -1.
         22    1    1    2    0    0 -0.21428533802E+03 -0.14973147319E+03  0.26211471503E+03  0.37019163145E+03  0.00000000000E+00 0.  1.
<mgrwt>
<rscale>  0 0.11375347E+04</rscale>
<asrwt>0</asrwt>
<pdfrwt beam="1">  1        2 0.14768377E+00 0.11375347E+04</pdfrwt>
<pdfrwt beam="2">  1       -2 0.51845352E-01 0.11375347E+04</pdfrwt>
<totfact> 0.93069894E+01</totfact>
</mgrwt>
</event>
<event>
 6    1  0.2238133E-007  0.2951075E+04  0.7818608E-02  0.8257841E-01
          4   -1    0    0  501    0  0.00000000000E+00  0.00000000000E+00  0.10843674644E+04  0.10843674644E+04  0.00000000000E+00 0. -1.
         -4   -1    0    0    0  501 -0.00000000000E+00 -0.00000000000E+00 -0.20078158541E+04  0.20078158541E+04  0.00000000000E+00 0.  1.
         23    2    1    2    0    0  0.85564670612E+03 -0.31892713131E+03 -0.16747673012E+04  0.19096750067E+04  0.90373211262E+02 0.  0.
         13    1    3    3    0    0  0.82180233540E+03 -0.28545033436E+03 -0.15837236234E+04  0.18069370457E+04  0.00000000000E+00 0.  1.
        -13    1    3    3    0    0  0.33844370728E+02 -0.33476796942E+02 -0.91043677782E+02  0.10273796099E+03  0.00000000000E+00 0. -1.
         22    1    1    2    0    0 -0.85564670612E+03  0.31892713131E+03  0.75131891144E+03  0.11825083118E+04  0.00000000000E+00 0. -1.
<mgrwt>
<rscale>  0 0.29510745E+04</rscale>
<asrwt>0</asrwt>
<pdfrwt beam="1">  1        4 0.16682577E+00 0.29510745E+04</pdfrwt>
<pdfrwt beam="2">  1       -4 0.30889474E+00 0.29510745E+04</pdfrwt>
<totfact> 0.10336822E-02</totfact>
</mgrwt>
</event>
<event>
 6    1  0.2238133E-007  0.1887815E+04  0.7818608E-02  0.8660945E-01
         -2   -1    0    0    0  501 -0.00000000000E+00  0.00000000000E+00  0.43292098751E+03  0.43292098751E+03  0.00000000000E+00 0.  1.
          2   -1    0    0  501    0  0.00000000000E+00 -0.00000000000E+00 -0.20580235742E+04  0.20580235742E+04  0.00000000000E+00 0. -1.
         23    2    1    2    0    0 -0.37734042027E+03 -0.72412050094E+03 -0.14330382858E+04  0.16521209877E+04  0.95753520836E+02 0.  0.
         13    1    3    3    0    0 -0.20897384039E+03 -0.43931316053E+03 -0.93888629306E+03  0.10574372749E+04  0.00000000000E+00 0. -1.
        -13    1    3    3    0    0 -0.16836657988E+03 -0.28480734041E+03 -0.49415199277E+03  0.59468371285E+03  0.00000000000E+00 0.  1.
         22    1    1    2    0    0  0.37734042027E+03  0.72412050094E+03 -0.19206430089E+03  0.83882357402E+03  0.00000000000E+00 0. -1.
<mgrwt>
<rscale>  0 0.18878152E+04</rscale>
<asrwt>0</asrwt>
<pdfrwt beam="1">  1        2 0.31661902E+00 0.18878152E+04</pdfrwt>
<pdfrwt beam="2">  1       -2 0.66603227E-01 0.18878152E+04</pdfrwt>
<totfact> 0.12042613E+01</totfact>
</mgrwt>
</event>
<event>
 6    1  0.2238133E-007  0.2851799E+04  0.7818608E-02  0.8287365E-01
          1   -1    0    0  501    0  0.00000000000E+00  0.00000000000E+00  0.22100159069E+04  0.22100159069E+04  0.00000000000E+00 0. -1.
         -1   -1    0    0    0  501 -0.00000000000E+00 -0.00000000000E+00 -0.91998872882E+03  0.91998872882E+03  0.00000000000E+00 0.  1.
         23    2    1    2    0    0 -0.91357418700E+03 -0.10735032777E+04  0.87040940717E+03  0.16592544339E+04  0.92117631561E+02 0.  0.
         13    1    3    3    0    0 -0.47549258967E+03 -0.48771265918E+03  0.41919091841E+03  0.79979864143E+03  0.00000000000E+00 0. -1.
        -13    1    3    3    0    0 -0.43808159734E+03 -0.58579061853E+03  0.45121848876E+03  0.85945579251E+03  0.00000000000E+00 0.  1.
         22    1    1    2    0    0  0.91357418700E+03  0.10735032777E+04  0.41961777091E+03  0.14707502018E+04  0.00000000000E+00 0.  1.
<mgrwt>
<rscale>  0 0.28517992E+04</rscale>
<asrwt>0</asrwt>
<pdfrwt beam="1">  1        1 0.34000244E+00 0.28517992E+04</pdfrwt>
<pdfrwt beam="2">  1       -1 0.14153673E+00 0.28517992E+04</pdfrwt>
<totfact> 0.75270541E-01</totfact>
</mgrwt>
</event>
<event>
 6    1  0.2238133E-007  0.3364787E+04  0.7818608E-02  0.8146603E-01
          2   -1    0    0  501    0  0.00000000000E+00  0.00000000000E+00  0.24509050669E+04  0.24509050669E+04  0.00000000000E+00 0. -1.
         -2   -1    0    0    0  501 -0.00000000000E+00 -0.00000000000E+00 -0.11548582436E+04  0.11548582436E+04  0.00000000000E+00 0.  1.
         23    2    1    2    0    0 -0.81024041991E+02 -0.36435572825E+03  0.24050849839E+04  0.24355985213E+04  0.91577208572E+02 0.  0.
         13    1    3    3    0    0 -0.58431449949E+01 -0.29369339899E+02  0.82300098984E+02  0.87578574791E+02  0.00000000000E+00 0. -1.
        -13    1    3    3    0    0 -0.75180896996E+02 -0.33498638835E+03  0.23227848849E+04  0.23480199465E+04  0.00000000000E+00 0.  1.
         22    1    1    2    0    0  0.81024041991E+02  0.36435572825E+03 -0.11090381606E+04  0.11701647891E+04  0.00000000000E+00 0.  1.
<mgrwt>
<rscale>  0 0.33647870E+04</rscale>
<asrwt>0</asrwt>
<pdfrwt beam="1">  1        2 0.37706232E+00 0.33647870E+04</pdfrwt>
<pdfrwt beam="2">  1       -2 0.17767050E+00 0.33647870E+04</pdfrwt>
<totfact> 0.58103666E-01</totfact>
</mgrwt>
</event>
<event>
 6    1  0.2238133E-007  0.2453004E+04  0.7818608E-02  0.8419922E-01
          2   -1    0    0  501    0  0.00000000000E+00  0.00000000000E+00  0.25971323186E+04  0.25971323186E+04  0.00000000000E+00 0. -1.
         -2   -1    0    0    0  501 -0.00000000000E+00 -0.00000000000E+00 -0.57921865445E+03  0.57921865445E+03  0.00000000000E+00 0.  1.
         23    2    1    2    0    0  0.32678125220E+03 -0.24257891017E+03  0.25062467067E+04  0.25406626258E+04  0.89797040997E+02 0.  0.
         11    1    3    3    0    0  0.26450226083E+03 -0.19528987495E+03  0.17702534786E+04  0.18005268561E+04  0.00000000000E+00 0. -1.
        -11    1    3    3    0    0  0.62278991368E+02 -0.47289035220E+02  0.73599322814E+03  0.74013576963E+03  0.00000000000E+00 0.  1.
         22    1    1    2    0    0 -0.32678125220E+03  0.24257891017E+03 -0.48833304255E+03  0.63568834730E+03  0.00000000000E+00 0.  1.
<mgrwt>
<rscale>  0 0.24530043E+04</rscale>
<asrwt>0</asrwt>
<pdfrwt beam="1">  1        2 0.39955881E+00 0.24530043E+04</pdfrwt>
<pdfrwt beam="2">  1       -2 0.89110564E-01 0.24530043E+04</pdfrwt>
<totfact> 0.29573427E+00</totfact>
</mgrwt>
</event>
<event>
 6    1  0.2238133E-007  0.2221050E+04  0.7818608E-02  0.8509718E-01
          2   -1    0    0  501    0  0.00000000000E+00  0.00000000000E+00  0.58841987232E+03  0.58841987232E+03  0.00000000000E+00 0. -1.
         -2   -1    0    0    0  501 -0.00000000000E+00 -0.00000000000E+00 -0.20958934907E+04  0.20958934907E+04  0.00000000000E+00 0.  1.
         23    2    1    2    0    0  0.44916998203E+03  0.42653807885E+03 -0.18666287495E+04  0.19682960352E+04  0.78727303813E+02 0.  0.
         11    1    3    3    0    0  0.31131049971E+03  0.33739407887E+03 -0.14262435854E+04  0.14983056285E+04  0.00000000000E+00 0. -1.
        -11    1    3    3    0    0  0.13785948232E+03  0.89143999972E+02 -0.44038516410E+03  0.46999040666E+03  0.00000000000E+00 0.  1.
         22    1    1    2    0    0 -0.44916998203E+03 -0.42653807885E+03  0.35915513113E+03  0.71601732778E+03  0.00000000000E+00 0. -1.
<mgrwt>
<rscale>  0 0.22210496E+04</rscale>
<asrwt>0</asrwt>
<pdfrwt beam="1">  1        2 0.90526135E-01 0.22210496E+04</pdfrwt>
<pdfrwt beam="2">  1       -2 0.32244515E+00 0.22210496E+04</pdfrwt>
<totfact> 0.10724235E+00</totfact>
</mgrwt>
</event>
<event>
 6    1  0.2238133E-007  0.1552898E+04  0.7818608E-02  0.8850018E-01
         -2   -1    0    0    0  501 -0.00000000000E+00  0.00000000000E+00  0.28687152738E+03  0.28687152738E+03  0.00000000000E+00 0.  1.
          2   -1    0    0  501    0  0.00000000000E+00 -0.00000000000E+00 -0.21015449392E+04  0.21015449392E+04  0.00000000000E+00 0. -1.
         23    2    1    2    0    0  0.53982515046E+03 -0.43484409493E+02 -0.60899800462E+02  0.55292635032E+03  0.93363141770E+02 0.  0.
         13    1    3    3    0    0  0.31599828385E+03 -0.71429934509E+02 -0.38586278619E+02  0.32626071145E+03  0.00000000000E+00 0. -1.
        -13    1    3    3    0    0  0.22382686662E+03  0.27945525016E+02 -0.22313521843E+02  0.22666563887E+03  0.00000000000E+00 0.  1.
         22    1    1    2    0    0 -0.53982515046E+03  0.43484409493E+02 -0.17537736113E+04  0.18354901162E+04  0.00000000000E+00 0. -1.
<mgrwt>
<rscale>  0 0.15528985E+04</rscale>
<asrwt>0</asrwt>
<pdfrwt beam="1">  1        2 0.32331461E+00 0.15528985E+04</pdfrwt>
<pdfrwt beam="2">  1       -2 0.44134080E-01 0.15528985E+04</pdfrwt>
<totfact> 0.27491817E+01</totfact>
</mgrwt>
</event>
<event>
 6    1  0.2238133E-007  0.2172656E+04  0.7818608E-02  0.8529896E-01
         -2   -1    0    0    0  501 -0.00000000000E+00  0.00000000000E+00  0.51400696390E+03  0.51400696390E+03  0.00000000000E+00 0.  1.
          2   -1    0    0  501    0  0.00000000000E+00 -0.00000000000E+00 -0.22958989251E+04  0.22958989251E+04  0.00000000000E+00 0. -1.
         23    2    1    2    0    0 -0.82712224335E+03  0.41932929096E+03 -0.16195151131E+04  0.18684524910E+04  0.91198957639E+02 0.  0.
         13    1    3    3    0    0 -0.47510212441E+03  0.25912238562E+03 -0.85933290767E+03  0.10155390123E+04  0.00000000000E+00 0.  1.
        -13    1    3    3    0    0 -0.35202011894E+03  0.16020690534E+03 -0.76018220547E+03  0.85291347871E+03  0.00000000000E+00 0. -1.
         22    1    1    2    0    0  0.82712224335E+03 -0.41932929096E+03 -0.16237684801E+03  0.94145339793E+03  0.00000000000E+00 0. -1.
<mgrwt>
<rscale>  0 0.21726556E+04</rscale>
<asrwt>0</asrwt>
<pdfrwt beam="1">  1        2 0.35321522E+00 0.21726556E+04</pdfrwt>
<pdfrwt beam="2">  1       -2 0.79077995E-01 0.21726556E+04</pdfrwt>
<totfact> 0.59238765E+00</totfact>
</mgrwt>
</event>
<event>
 6    1  0.2238133E-007  0.2834271E+04  0.7818608E-02  0.8292707E-01
         -2   -1    0    0    0  501 -0.00000000000E+00  0.00000000000E+00  0.71752945628E+03  0.71752945628E+03  0.00000000000E+00 0.  1.
          2   -1    0    0  501    0  0.00000000000E+00 -0.00000000000E+00 -0.27988713445E+04  0.27988713445E+04  0.00000000000E+00 0. -1.
         23    2    1    2    0    0 -0.59660247957E+03  0.61676726550E+03 -0.24386796386E+04  0.25868704643E+04  0.91673556737E+02 0.  0.
         11    1    3    3    0    0 -0.49873842957E+03  0.51027635266E+03 -0.19159454165E+04  0.20444972037E+04  0.00000000000E+00 0.  1.
        -11    1    3    3    0    0 -0.97864049997E+02  0.10649091284E+03 -0.52273422214E+03  0.54237326058E+03  0.00000000000E+00 0. -1.
         22    1    1    2    0    0  0.59660247957E+03 -0.61676726550E+03  0.35733775044E+03  0.92953033641E+03  0.00000000000E+00 0.  1.
<mgrwt>
<rscale>  0 0.28342707E+04</rscale>
<asrwt>0</asrwt>
<pdfrwt beam="1">  1        2 0.43059558E+00 0.28342707E+04</pdfrwt>
<pdfrwt beam="2">  1       -2 0.11038915E+00 0.28342707E+04</pdfrwt>
<totfact> 0.13086248E+00</totfact>
</mgrwt>
</event>
<event>
 6    1  0.2238133E-007  0.2104718E+04  0.7818608E-02  0.8559168E-01
         -2   -1    0    0    0  501 -0.00000000000E+00  0.00000000000E+00  0.27242895643E+03  0.27242895643E+03  0.00000000000E+00 0.  1.
          2   -1    0    0  501    0  0.00000000000E+00 -0.00000000000E+00 -0.40651317738E+04  0.40651317738E+04  0.00000000000E+00 0. -1.
         23    2    1    2    0    0 -0.32366792785E+02  0.29808298426E+03 -0.39745538601E+04  0.39868886946E+04  0.91115319483E+02 0.  0.
         11    1    3    3    0    0 -0.99724587757E+00  0.58994075920E+02 -0.13474505225E+04  0.13487417121E+04  0.00000000000E+00 0. -1.
        -11    1    3    3    0    0 -0.31369546907E+02  0.23908890834E+03 -0.26271033376E+04  0.26381469825E+04  0.00000000000E+00 0.  1.
         22    1    1    2    0    0  0.32366792785E+02 -0.29808298426E+03  0.18185104278E+03  0.35067203559E+03  0.00000000000E+00 0.  1.
<mgrwt>
<rscale>  0 0.21047181E+04</rscale>
<asrwt>0</asrwt>
<pdfrwt beam="1">  1        2 0.62540487E+00 0.21047181E+04</pdfrwt>
<pdfrwt beam="2">  1       -2 0.41912148E-01 0.21047181E+04</pdfrwt>
<totfact> 0.15178170E+00</totfact>
</mgrwt>
</event>
<event>
 6    1  0.2238133E-007  0.2527724E+04  0.7818608E-02  0.8393175E-01
          2   -1    0    0  501    0  0.00000000000E+00  0.00000000000E+00  0.18382746419E+04  0.18382746419E+04  0.00000000000E+00 0. -1.
         -2   -1    0    0    0  501 -0.00000000000E+00 -0.00000000000E+00 -0.86893800421E+03  0.86893800421E+03  0.00000000000E+00 0.  1.
         23    2    1    2    0    0 -0.50001941502E+03 -0.37373228416E+03 -0.68981561874E+03  0.93450808933E+03  0.88116658723E+02 0.  0.
         11    1    3    3    0    0 -0.38121875977E+03 -0.26150253487E+03 -0.45690522650E+03  0.64997977241E+03  0.00000000000E+00 0. -1.
        -11    1    3    3    0    0 -0.11880065525E+03 -0.11222974929E+03 -0.23291039225E+03  0.28452831693E+03  0.00000000000E+00 0.  1.
         22    1    1    2    0    0  0.50001941502E+03  0.37373228416E+03  0.16591522565E+04  0.17727045568E+04  0.00000000000E+00 0. -1.
<mgrwt>
<rscale>  0 0.25277236E+04</rscale>
<asrwt>0</asrwt>
<pdfrwt beam="1">  1        2 0.28281148E+00 0.25277236E+04</pdfrwt>
<pdfrwt beam="2">  1       -2 0.13368277E+00 0.25277236E+04</pdfrwt>
<totfact> 0.29580339E+00</totfact>
</mgrwt>
</event>
<event>
 6    1  0.2238133E-007  0.1668816E+04  0.7818608E-02  0.8779353E-01
         -2   -1    0    0    0  501 -0.00000000000E+00  0.00000000000E+00  0.62445365821E+03  0.62445365821E+03  0.00000000000E+00 0.  1.
          2   -1    0    0  501    0  0.00000000000E+00 -0.00000000000E+00 -0.11149528766E+04  0.11149528766E+04  0.00000000000E+00 0. -1.
         23    2    1    2    0    0  0.33029929111E+02 -0.21389108196E+03 -0.10832480495E+04  0.11083823293E+04  0.90800219597E+02 0.  0.
         13    1    3    3    0    0  0.46578074033E+01 -0.12022753433E+03 -0.38649758937E+03  0.40479222049E+03  0.00000000000E+00 0.  1.
        -13    1    3    3    0    0  0.28372121708E+02 -0.93663547630E+02 -0.69675046018E+03  0.70359010880E+03  0.00000000000E+00 0. -1.
         22    1    1    2    0    0 -0.33029929111E+02  0.21389108196E+03  0.59274883114E+03  0.63102420554E+03  0.00000000000E+00 0.  1.
<mgrwt>
<rscale>  0 0.16688156E+04</rscale>
<asrwt>0</asrwt>
<pdfrwt beam="1">  1        2 0.17153121E+00 0.16688156E+04</pdfrwt>
<pdfrwt beam="2">  1       -2 0.96069795E-01 0.16688156E+04</pdfrwt>
<totfact> 0.18473980E+01</totfact>
</mgrwt>
</event>
<event>
 6    1  0.2238133E-007  0.2331909E+04  0.7818608E-02  0.8465445E-01
         -2   -1    0    0    0  501 -0.00000000000E+00  0.00000000000E+00  0.73148326943E+03  0.73148326943E+03  0.00000000000E+00 0.  1.
          2   -1    0    0  501    0  0.00000000000E+00 -0.00000000000E+00 -0.18584833933E+04  0.18584833933E+04  0.00000000000E+00 0. -1.
         23    2    1    2    0    0  0.23376017232E+03  0.11323937446E+04 -0.71430076395E+03  0.13622532709E+04  0.92460703037E+02 0.  0.
         11    1    3    3    0    0  0.18454356051E+03  0.73126688333E+03 -0.43034407217E+03  0.86833380726E+03  0.00000000000E+00 0. -1.
        -11    1    3    3    0    0  0.49216611806E+02  0.40112686127E+03 -0.28395669179E+03  0.49391946360E+03  0.00000000000E+00 0.  1.
         22    1    1    2    0    0 -0.23376017232E+03 -0.11323937446E+04 -0.41269935996E+03  0.12277133919E+04  0.00000000000E+00 0.  1.
<mgrwt>
<rscale>  0 0.23319087E+04</rscale>
<asrwt>0</asrwt>
<pdfrwt beam="1">  1        2 0.28592052E+00 0.23319087E+04</pdfrwt>
<pdfrwt beam="2">  1       -2 0.11253589E+00 0.23319087E+04</pdfrwt>
<totfact> 0.45011702E+00</totfact>
</mgrwt>
</event>
<event>
 6    1  0.2682155E-007  0.3478773E+04  0.7818608E-02  0.8118839E-01
         -1   -1    0    0    0  501 -0.00000000000E+00  0.00000000000E+00  0.14067264355E+04  0.14067264355E+04  0.00000000000E+00 0.  1.
          1   -1    0    0  501    0  0.00000000000E+00 -0.00000000000E+00 -0.21507136246E+04  0.21507136246E+04  0.00000000000E+00 0. -1.
         23    2    1    2    0    0  0.10208786653E+04 -0.51392289213E+03  0.96687252368E+03  0.14999291987E+04  0.92925430646E+02 0.  0.
         13    1    3    3    0    0  0.49859437451E+03 -0.23337714944E+03  0.52276980601E+03  0.75917686625E+03  0.00000000000E+00 0.  1.
        -13    1    3    3    0    0  0.52228429077E+03 -0.28054574268E+03  0.44410271767E+03  0.74075233241E+03  0.00000000000E+00 0. -1.
         22    1    1    2    0    0 -0.10208786653E+04  0.51392289213E+03 -0.17108597128E+04  0.20575108615E+04  0.00000000000E+00 0. -1.
<mgrwt>
<rscale>  0 0.34787732E+04</rscale>
<asrwt>0</asrwt>
<pdfrwt beam="1">  1        1 0.33087902E+00 0.34787732E+04</pdfrwt>
<pdfrwt beam="2">  1       -1 0.21641945E+00 0.34787732E+04</pdfrwt>
<totfact> 0.22377926E-01</totfact>
</mgrwt>
</event>
<event>
 6    1  0.2238133E-007  0.3303988E+04  0.7818608E-02  0.8161881E-01
          2   -1    0    0  501    0  0.00000000000E+00  0.00000000000E+00  0.33773466786E+04  0.33773466786E+04  0.00000000000E+00 0. -1.
         -2   -1    0    0    0  501 -0.00000000000E+00 -0.00000000000E+00 -0.80805556634E+03  0.80805556634E+03  0.00000000000E+00 0.  1.
         23    2    1    2    0    0 -0.12873903907E+04  0.10332133607E+04  0.12938265001E+04  0.20993260613E+04  0.90989188443E+02 0.  0.
         11    1    3    3    0    0 -0.65301472440E+03  0.53285730790E+03  0.71764157080E+03  0.11069663793E+04  0.00000000000E+00 0. -1.
        -11    1    3    3    0    0 -0.63437566633E+03  0.50035605285E+03  0.57618492926E+03  0.99235968195E+03  0.00000000000E+00 0.  1.
         22    1    1    2    0    0  0.12873903907E+04 -0.10332133607E+04  0.12754646122E+04  0.20860761836E+04  0.00000000000E+00 0.  1.
<mgrwt>
<rscale>  0 0.33039878E+04</rscale>
<asrwt>0</asrwt>
<pdfrwt beam="1">  1        2 0.51959179E+00 0.33039878E+04</pdfrwt>
<pdfrwt beam="2">  1       -2 0.12431624E+00 0.33039878E+04</pdfrwt>
<totfact> 0.40047899E-01</totfact>
</mgrwt>
</event>
<event>
 6    1  0.2238133E-007  0.1012281E+04  0.7818608E-02  0.9295177E-01
         -2   -1    0    0    0  501 -0.00000000000E+00  0.00000000000E+00  0.18727338569E+03  0.18727338569E+03  0.00000000000E+00 0.  1.
          2   -1    0    0  501    0  0.00000000000E+00 -0.00000000000E+00 -0.13679360589E+04  0.13679360589E+04  0.00000000000E+00 0. -1.
         23    2    1    2    0    0  0.39856087835E+03 -0.38901309588E+02 -0.10605619852E+04  0.11371325846E+04  0.88964626116E+02 0.  0.
         11    1    3    3    0    0  0.35791215510E+03 -0.20028557724E+02 -0.99595758385E+03  0.10585054382E+04  0.00000000000E+00 0. -1.
        -11    1    3    3    0    0  0.40648723246E+02 -0.18872751863E+02 -0.64604401393E+02  0.78627146354E+02  0.00000000000E+00 0.  1.
         22    1    1    2    0    0 -0.39856087835E+03  0.38901309588E+02 -0.12010068797E+03  0.41807686003E+03  0.00000000000E+00 0.  1.
<mgrwt>
<rscale>  0 0.10122806E+04</rscale>
<asrwt>0</asrwt>
<pdfrwt beam="1">  1        2 0.21045170E+00 0.10122806E+04</pdfrwt>
<pdfrwt beam="2">  1       -2 0.28811290E-01 0.10122806E+04</pdfrwt>
<totfact> 0.16634127E+02</totfact>
</mgrwt>
</event>
<event>
 6    1  0.2238133E-007  0.5247260E+04  0.7818608E-02  0.7791457E-01
          2   -1    0    0  501    0  0.00000000000E+00  0.00000000000E+00  0.17346274635E+04  0.17346274635E+04  0.00000000000E+00 0. -1.
         -2   -1    0    0    0  501 -0.00000000000E+00 -0.00000000000E+00 -0.39682488853E+04  0.39682488853E+04  0.00000000000E+00 0.  1.
         23    2    1    2    0    0  0.11906677066E+04 -0.22208818527E+04 -0.32641550044E+03  0.25425851885E+04  0.90479670505E+02 0.  0.
         11    1    3    3    0    0  0.53115968945E+03 -0.96585332711E+03 -0.18647778040E+03  0.11179343575E+04  0.00000000000E+00 0. -1.
        -11    1    3    3    0    0  0.65950801715E+03 -0.12550285256E+04 -0.13993772004E+03  0.14246508309E+04  0.00000000000E+00 0.  1.
         22    1    1    2    0    0 -0.11906677066E+04  0.22208818527E+04 -0.19072059214E+04  0.31602911603E+04  0.00000000000E+00 0.  1.
<mgrwt>
<rscale>  0 0.52472597E+04</rscale>
<asrwt>0</asrwt>
<pdfrwt beam="1">  1        2 0.26686577E+00 0.52472597E+04</pdfrwt>
<pdfrwt beam="2">  1       -2 0.61049982E+00 0.52472597E+04</pdfrwt>
<totfact> 0.31395303E-03</totfact>
</mgrwt>
</event>
<event>
 6    1  0.2238133E-007  0.1724555E+04  0.7818608E-02  0.8747482E-01
         -2   -1    0    0    0  501 -0.00000000000E+00  0.00000000000E+00  0.10675535224E+04  0.10675535224E+04  0.00000000000E+00 0.  1.
          2   -1    0    0  501    0  0.00000000000E+00 -0.00000000000E+00 -0.69647323144E+03  0.69647323144E+03  0.00000000000E+00 0. -1.
         23    2    1    2    0    0 -0.79601911506E+03 -0.32194291614E+03  0.14039161696E+03  0.87491993402E+03  0.92094581993E+02 0.  0.
         13    1    3    3    0    0 -0.52535061548E+03 -0.24400627120E+03  0.12655101632E+03  0.59291440302E+03  0.00000000000E+00 0. -1.
        -13    1    3    3    0    0 -0.27066849958E+03 -0.77936644943E+02  0.13840600634E+02  0.28200553100E+03  0.00000000000E+00 0.  1.
         22    1    1    2    0    0  0.79601911506E+03  0.32194291614E+03  0.23068867404E+03  0.88910681986E+03  0.00000000000E+00 0. -1.
<mgrwt>
<rscale>  0 0.17245550E+04</rscale>
<asrwt>0</asrwt>
<pdfrwt beam="1">  1        2 0.10714973E+00 0.17245550E+04</pdfrwt>
<pdfrwt beam="2">  1       -2 0.16423900E+00 0.17245550E+04</pdfrwt>
<totfact> 0.91768694E+00</totfact>
</mgrwt>
</event>
<event>
 6    1  0.2238133E-007  0.1411174E+04  0.7818608E-02  0.8945770E-01
          2   -1    0    0  501    0  0.00000000000E+00  0.00000000000E+00  0.13580181076E+04  0.13580181076E+04  0.00000000000E+00 0. -1.
         -2   -1    0    0    0  501 -0.00000000000E+00 -0.00000000000E+00 -0.36660272428E+03  0.36660272428E+03  0.00000000000E+00 0.  1.
         23    2    1    2    0    0  0.85601383471E+02  0.82494359090E+02  0.13440503368E+04  0.13524860089E+04  0.92812608316E+02 0.  0.
         11    1    3    3    0    0  0.47631981356E+02 -0.26308087838E+01  0.71240833622E+03  0.71400375652E+03  0.00000000000E+00 0.  1.
        -11    1    3    3    0    0  0.37969402114E+02  0.85125167874E+02  0.63164200054E+03  0.63848225233E+03  0.00000000000E+00 0. -1.
         22    1    1    2    0    0 -0.85601383471E+02 -0.82494359090E+02 -0.35263495343E+03  0.37213482303E+03  0.00000000000E+00 0.  1.
<mgrwt>
<rscale>  0 0.14111742E+04</rscale>
<asrwt>0</asrwt>
<pdfrwt beam="1">  1        2 0.20892586E+00 0.14111742E+04</pdfrwt>
<pdfrwt beam="2">  1       -2 0.56400420E-01 0.14111742E+04</pdfrwt>
<totfact> 0.43883560E+01</totfact>
</mgrwt>
</event>
<event>
 6    1  0.2238133E-007  0.1868173E+04  0.7818608E-02  0.8670863E-01
         -2   -1    0    0    0  501 -0.00000000000E+00  0.00000000000E+00  0.74065195745E+03  0.74065195745E+03  0.00000000000E+00 0.  1.
          2   -1    0    0  501    0  0.00000000000E+00 -0.00000000000E+00 -0.11780397977E+04  0.11780397977E+04  0.00000000000E+00 0. -1.
         23    2    1    2    0    0 -0.54602551147E+03 -0.55441558374E+02 -0.99268990807E+03  0.11379369845E+04  0.90827867069E+02 0.  0.
         13    1    3    3    0    0 -0.26852002526E+03  0.10750694102E+02 -0.43028503898E+03  0.50731035487E+03  0.00000000000E+00 0.  1.
        -13    1    3    3    0    0 -0.27750548621E+03 -0.66192252476E+02 -0.56240486909E+03  0.63062662958E+03  0.00000000000E+00 0. -1.
         22    1    1    2    0    0  0.54602551147E+03  0.55441558374E+02  0.55530206777E+03  0.78075477074E+03  0.00000000000E+00 0.  1.
<mgrwt>
<rscale>  0 0.18681729E+04</rscale>
<asrwt>0</asrwt>
<pdfrwt beam="1">  1        2 0.18123689E+00 0.18681729E+04</pdfrwt>
<pdfrwt beam="2">  1       -2 0.11394646E+00 0.18681729E+04</pdfrwt>
<totfact> 0.11057374E+01</totfact>
</mgrwt>
</event>
<event>
 6    1  0.2238133E-007  0.1247507E+04  0.7818608E-02  0.9072261E-01
         -2   -1    0    0    0  501 -0.00000000000E+00  0.00000000000E+00  0.30690640840E+03  0.30690640840E+03  0.00000000000E+00 0.  1.
          2   -1    0    0  501    0  0.00000000000E+00 -0.00000000000E+00 -0.12677097241E+04  0.12677097241E+04  0.00000000000E+00 0. -1.
         23    2    1    2    0    0  0.30316035323E+03 -0.46746761396E+03 -0.13825975050E+03  0.58113231959E+03  0.90370594737E+02 0.  0.
         11    1    3    3    0    0  0.10212332666E+03 -0.23860236902E+03 -0.72800595644E+02  0.26955554358E+03  0.00000000000E+00 0.  1.
        -11    1    3    3    0    0  0.20103702657E+03 -0.22886524494E+03 -0.65459154858E+02  0.31157677601E+03  0.00000000000E+00 0. -1.
         22    1    1    2    0    0 -0.30316035323E+03  0.46746761396E+03 -0.82254356523E+03  0.99348381294E+03  0.00000000000E+00 0. -1.
<mgrwt>
<rscale>  0 0.12475067E+04</rscale>
<asrwt>0</asrwt>
<pdfrwt beam="1">  1        2 0.19503227E+00 0.12475067E+04</pdfrwt>
<pdfrwt beam="2">  1       -2 0.47216370E-01 0.12475067E+04</pdfrwt>
<totfact> 0.72185792E+01</totfact>
</mgrwt>
</event>
<event>
 6    1  0.2238133E-007  0.2025553E+04  0.7818608E-02  0.8594766E-01
         -2   -1    0    0    0  501 -0.00000000000E+00  0.00000000000E+00  0.74134691371E+03  0.74134691371E+03  0.00000000000E+00 0.  1.
          2   -1    0    0  501    0  0.00000000000E+00 -0.00000000000E+00 -0.13835845875E+04  0.13835845875E+04  0.00000000000E+00 0. -1.
         23    2    1    2    0    0  0.56149746769E+03  0.21786058844E+03 -0.11733193691E+04  0.13219430770E+04  0.90069498891E+02 0.  0.
         13    1    3    3    0    0  0.74911219576E+02  0.18878954687E+01 -0.17960840156E+03  0.19461354752E+03  0.00000000000E+00 0.  1.
        -13    1    3    3    0    0  0.48658624811E+03  0.21597269297E+03 -0.99371096757E+03  0.11273295295E+04  0.00000000000E+00 0. -1.
         22    1    1    2    0    0 -0.56149746769E+03 -0.21786058844E+03  0.53108169537E+03  0.80298842418E+03  0.00000000000E+00 0.  1.
<mgrwt>
<rscale>  0 0.20255529E+04</rscale>
<asrwt>0</asrwt>
<pdfrwt beam="1">  1        2 0.21285916E+00 0.20255529E+04</pdfrwt>
<pdfrwt beam="2">  1       -2 0.11405337E+00 0.20255529E+04</pdfrwt>
<totfact> 0.82506514E+00</totfact>
</mgrwt>
</event>
<event>
 6    1  0.2238133E-007  0.2821682E+04  0.7818608E-02  0.8296569E-01
         -1   -1    0    0    0  501 -0.00000000000E+00  0.00000000000E+00  0.10849590291E+04  0.10849590291E+04  0.00000000000E+00 0.  1.
          1   -1    0    0  501    0  0.00000000000E+00 -0.00000000000E+00 -0.18346054783E+04  0.18346054783E+04  0.00000000000E+00 0. -1.
         23    2    1    2    0    0 -0.11816994673E+04 -0.39338124199E+03 -0.10577833975E+04  0.16365560072E+04  0.90815284595E+02 0.  0.
         13    1    3    3    0    0 -0.41315432590E+03 -0.15814644519E+03 -0.42703985874E+03  0.61487383754E+03  0.00000000000E+00 0.  1.
        -13    1    3    3    0    0 -0.76854514143E+03 -0.23523479680E+03 -0.63074353877E+03  0.10216821696E+04  0.00000000000E+00 0. -1.
         22    1    1    2    0    0  0.11816994673E+04  0.39338124199E+03  0.30813694830E+03  0.12830085002E+04  0.00000000000E+00 0.  1.
<mgrwt>
<rscale>  0 0.28216816E+04</rscale>
<asrwt>0</asrwt>
<pdfrwt beam="1">  1        1 0.28224699E+00 0.28216816E+04</pdfrwt>
<pdfrwt beam="2">  1       -1 0.16691677E+00 0.28216816E+04</pdfrwt>
<totfact> 0.86479594E-01</totfact>
</mgrwt>
</event>
<event>
 6    1  0.2238133E-007  0.1414128E+04  0.7818608E-02  0.8943655E-01
         -2   -1    0    0    0  501 -0.00000000000E+00  0.00000000000E+00  0.63694011613E+03  0.63694011613E+03  0.00000000000E+00 0.  1.
          2   -1    0    0  501    0  0.00000000000E+00 -0.00000000000E+00 -0.78490871526E+03  0.78490871526E+03  0.00000000000E+00 0. -1.
         23    2    1    2    0    0  0.24316189132E+03  0.36052027624E+03  0.48292274773E+03  0.65560705067E+03  0.86623609046E+02 0.  0.
         11    1    3    3    0    0  0.19260439207E+03  0.23912876550E+03  0.29158854794E+03  0.42344173108E+03  0.00000000000E+00 0. -1.
        -11    1    3    3    0    0  0.50557499258E+02  0.12139151074E+03  0.19133419979E+03  0.23216531959E+03  0.00000000000E+00 0.  1.
         22    1    1    2    0    0 -0.24316189132E+03 -0.36052027624E+03 -0.63089134686E+03  0.76624178072E+03  0.00000000000E+00 0. -1.
<mgrwt>
<rscale>  0 0.14141285E+04</rscale>
<asrwt>0</asrwt>
<pdfrwt beam="1">  1        2 0.12075519E+00 0.14141285E+04</pdfrwt>
<pdfrwt beam="2">  1       -2 0.97990788E-01 0.14141285E+04</pdfrwt>
<totfact> 0.29775195E+01</totfact>
</mgrwt>
</event>
<event>
 6    1  0.2238133E-007  0.2444232E+04  0.7818608E-02  0.8423127E-01
          1   -1    0    0  501    0  0.00000000000E+00  0.00000000000E+00  0.21324552792E+04  0.21324552792E+04  0.00000000000E+00 0. -1.
         -1   -1    0    0    0  501 -0.00000000000E+00 -0.00000000000E+00 -0.70039779789E+03  0.70039779789E+03  0.00000000000E+00 0.  1.
         23    2    1    2    0    0  0.43535383553E+03 -0.10579064695E+04  0.12097307133E+04  0.16674654798E+04  0.91069574123E+02 0.  0.
         11    1    3    3    0    0  0.18920056259E+03 -0.35651538136E+03  0.45298386879E+03  0.60670788310E+03  0.00000000000E+00 0.  1.
        -11    1    3    3    0    0  0.24615327294E+03 -0.70139108812E+03  0.75674684450E+03  0.10607575967E+04  0.00000000000E+00 0. -1.
         22    1    1    2    0    0 -0.43535383553E+03  0.10579064695E+04  0.22232676807E+03  0.11653875974E+04  0.00000000000E+00 0.  1.
<mgrwt>
<rscale>  0 0.24442316E+04</rscale>
<asrwt>0</asrwt>
<pdfrwt beam="1">  1        1 0.32807004E+00 0.24442316E+04</pdfrwt>
<pdfrwt beam="2">  1       -1 0.10775351E+00 0.24442316E+04</pdfrwt>
<totfact> 0.17321031E+00</totfact>
</mgrwt>
</event>
<event>
 6    1  0.2238133E-007  0.4508874E+03  0.7818608E-02  0.1027458E+00
         -2   -1    0    0    0  501 -0.00000000000E+00  0.00000000000E+00  0.12375366200E+03  0.12375366200E+03  0.00000000000E+00 0.  1.
          2   -1    0    0  501    0  0.00000000000E+00 -0.00000000000E+00 -0.41069375868E+03  0.41069375868E+03  0.00000000000E+00 0. -1.
         23    2    1    2    0    0  0.16644320829E+03 -0.54743097017E+02  0.15288774183E+01  0.19693520272E+03  0.89894317676E+02 0.  0.
         13    1    3    3    0    0  0.56134566205E+02 -0.49056165884E+02  0.33812386174E+02  0.81858868750E+02  0.00000000000E+00 0.  1.
        -13    1    3    3    0    0  0.11030864208E+03 -0.56869311334E+01 -0.32283508755E+02  0.11507633397E+03  0.00000000000E+00 0. -1.
         22    1    1    2    0    0 -0.16644320829E+03  0.54743097017E+02 -0.28846897409E+03  0.33751221795E+03  0.00000000000E+00 0. -1.
<mgrwt>
<rscale>  0 0.45088738E+03</rscale>
<asrwt>0</asrwt>
<pdfrwt beam="1">  1        2 0.63183654E-01 0.45088738E+03</pdfrwt>
<pdfrwt beam="2">  1       -2 0.19039025E-01 0.45088738E+03</pdfrwt>
<totfact> 0.17856743E+03</totfact>
</mgrwt>
</event>
<event>
 6    1  0.2238133E-007  0.3954530E+04  0.7818608E-02  0.8013783E-01
         -2   -1    0    0    0  501 -0.00000000000E+00  0.00000000000E+00  0.21888689973E+04  0.21888689973E+04  0.00000000000E+00 0.  1.
          2   -1    0    0  501    0  0.00000000000E+00 -0.00000000000E+00 -0.17861177516E+04  0.17861177516E+04  0.00000000000E+00 0. -1.
         23    2    1    2    0    0  0.62992202131E+03  0.13042283843E+04 -0.11499181460E+04  0.18516413527E+04  0.91926738871E+02 0.  0.
         13    1    3    3    0    0  0.54067973926E+02  0.14410916978E+03 -0.92021309456E+02  0.17932852537E+03  0.00000000000E+00 0.  1.
        -13    1    3    3    0    0  0.57585404739E+03  0.11601192145E+04 -0.10578968366E+04  0.16723128274E+04  0.00000000000E+00 0. -1.
         22    1    1    2    0    0 -0.62992202131E+03 -0.13042283843E+04  0.15526693917E+04  0.21233453961E+04  0.00000000000E+00 0.  1.
<mgrwt>
<rscale>  0 0.39545305E+04</rscale>
<asrwt>0</asrwt>
<pdfrwt beam="1">  1        2 0.27478735E+00 0.39545305E+04</pdfrwt>
<pdfrwt beam="2">  1       -2 0.33674907E+00 0.39545305E+04</pdfrwt>
<totfact> 0.13101575E-01</totfact>
</mgrwt>
</event>
<event>
 6    1  0.2238133E-007  0.2323663E+04  0.7818608E-02  0.8468649E-01
         -1   -1    0    0    0  501 -0.00000000000E+00  0.00000000000E+00  0.95180469838E+03  0.95180469838E+03  0.00000000000E+00 0.  1.
          1   -1    0    0  501    0  0.00000000000E+00 -0.00000000000E+00 -0.14182030363E+04  0.14182030363E+04  0.00000000000E+00 0. -1.
         23    2    1    2    0    0 -0.35796158785E+03  0.10356000742E+04 -0.62193617812E+03  0.12633027010E+04  0.92331428571E+02 0.  0.
         11    1    3    3    0    0 -0.28323739861E+03  0.69818705126E+03 -0.44504911761E+03  0.87507559651E+03  0.00000000000E+00 0.  1.
        -11    1    3    3    0    0 -0.74724189243E+02  0.33741302290E+03 -0.17688706051E+03  0.38822710448E+03  0.00000000000E+00 0. -1.
         22    1    1    2    0    0  0.35796158785E+03 -0.10356000742E+04  0.15553784016E+03  0.11067050337E+04  0.00000000000E+00 0.  1.
<mgrwt>
<rscale>  0 0.23236629E+04</rscale>
<asrwt>0</asrwt>
<pdfrwt beam="1">  1        1 0.21818508E+00 0.23236629E+04</pdfrwt>
<pdfrwt beam="2">  1       -1 0.14643149E+00 0.23236629E+04</pdfrwt>
<totfact> 0.25048023E+00</totfact>
</mgrwt>
</event>
<event>
 6    1  0.2238133E-007  0.1630553E+04  0.7818608E-02  0.8801995E-01
         -2   -1    0    0    0  501 -0.00000000000E+00  0.00000000000E+00  0.97609179789E+03  0.97609179789E+03  0.00000000000E+00 0.  1.
          2   -1    0    0  501    0  0.00000000000E+00 -0.00000000000E+00 -0.68095632217E+03  0.68095632217E+03  0.00000000000E+00 0. -1.
         23    2    1    2    0    0 -0.52152825064E+03 -0.54564667954E+03 -0.15824580717E+03  0.77655019117E+03  0.90920013225E+02 0.  0.
         13    1    3    3    0    0 -0.21342486645E+03 -0.20439334283E+03 -0.18811307435E+02  0.29610923238E+03  0.00000000000E+00 0.  1.
        -13    1    3    3    0    0 -0.30810338420E+03 -0.34125333671E+03 -0.13943449973E+03  0.48044095879E+03  0.00000000000E+00 0. -1.
         22    1    1    2    0    0  0.52152825064E+03  0.54564667954E+03  0.45338128289E+03  0.88049792889E+03  0.00000000000E+00 0.  1.
<mgrwt>
<rscale>  0 0.16305531E+04</rscale>
<asrwt>0</asrwt>
<pdfrwt beam="1">  1        2 0.10476251E+00 0.16305531E+04</pdfrwt>
<pdfrwt beam="2">  1       -2 0.15016797E+00 0.16305531E+04</pdfrwt>
<totfact> 0.12117635E+01</totfact>
</mgrwt>
</event>
<event>
 6    1  0.2238133E-007  0.3609698E+04  0.7818608E-02  0.8088274E-01
         -2   -1    0    0    0  501 -0.00000000000E+00  0.00000000000E+00  0.18528429614E+04  0.18528429614E+04  0.00000000000E+00 0.  1.
          2   -1    0    0  501    0  0.00000000000E+00 -0.00000000000E+00 -0.17580984373E+04  0.17580984373E+04  0.00000000000E+00 0. -1.
         23    2    1    2    0    0 -0.17711616618E+04  0.97254748441E+02  0.37422092680E+03  0.18152300694E+04  0.92448819761E+02 0.  0.
         11    1    3    3    0    0 -0.31516523319E+03  0.16236277302E+02  0.10305420822E+03  0.33198329889E+03  0.00000000000E+00 0.  1.
        -11    1    3    3    0    0 -0.14559964286E+04  0.81018471139E+02  0.27116671859E+03  0.14832467705E+04  0.00000000000E+00 0. -1.
         22    1    1    2    0    0  0.17711616618E+04 -0.97254748441E+02 -0.27947640269E+03  0.17957113293E+04  0.00000000000E+00 0. -1.
<mgrwt>
<rscale>  0 0.36096982E+04</rscale>
<asrwt>0</asrwt>
<pdfrwt beam="1">  1        2 0.27047668E+00 0.36096982E+04</pdfrwt>
<pdfrwt beam="2">  1       -2 0.28505277E+00 0.36096982E+04</pdfrwt>
<totfact> 0.29082341E-01</totfact>
</mgrwt>
</event>
<event>
 6    1  0.2238133E-007  0.2511117E+04  0.7818608E-02  0.8399036E-01
         -2   -1    0    0    0  501 -0.00000000000E+00  0.00000000000E+00  0.11818148155E+04  0.11818148155E+04  0.00000000000E+00 0.  1.
          2   -1    0    0  501    0  0.00000000000E+00 -0.00000000000E+00 -0.13339037679E+04  0.13339037679E+04  0.00000000000E+00 0. -1.
         23    2    1    2    0    0  0.57105191502E+03 -0.59869588533E+03 -0.10199671313E+04  0.13166566224E+04  0.93352340484E+02 0.  0.
         13    1    3    3    0    0  0.50969544068E+03 -0.49788038766E+03 -0.84059515315E+03  0.11019412571E+04  0.00000000000E+00 0.  1.
        -13    1    3    3    0    0  0.61356474345E+02 -0.10081549767E+03 -0.17937197817E+03  0.21471536523E+03  0.00000000000E+00 0. -1.
         22    1    1    2    0    0 -0.57105191502E+03  0.59869588533E+03  0.86787817891E+03  0.11990619609E+04  0.00000000000E+00 0.  1.
<mgrwt>
<rscale>  0 0.25111171E+04</rscale>
<asrwt>0</asrwt>
<pdfrwt beam="1">  1        2 0.20521596E+00 0.25111171E+04</pdfrwt>
<pdfrwt beam="2">  1       -2 0.18181767E+00 0.25111171E+04</pdfrwt>
<totfact> 0.24800233E+00</totfact>
</mgrwt>
</event>
<event>
 6    1  0.2238133E-007  0.3277042E+04  0.7818608E-02  0.8168762E-01
          1   -1    0    0  501    0  0.00000000000E+00  0.00000000000E+00  0.24267664013E+04  0.24267664013E+04  0.00000000000E+00 0. -1.
         -1   -1    0    0    0  501 -0.00000000000E+00 -0.00000000000E+00 -0.11063081697E+04  0.11063081697E+04  0.00000000000E+00 0.  1.
         23    2    1    2    0    0 -0.16030826326E+04  0.25238230051E+02  0.10167499277E+04  0.19012811928E+04  0.10285360217E+03 0.  0.
         13    1    3    3    0    0 -0.11122032837E+04  0.14432082239E+02  0.64856633676E+03  0.12875724144E+04  0.00000000000E+00 0. -1.
        -13    1    3    3    0    0 -0.49087934891E+03  0.10806147812E+02  0.36818359097E+03  0.61370877840E+03  0.00000000000E+00 0.  1.
         22    1    1    2    0    0  0.16030826326E+04 -0.25238230051E+02  0.30370830392E+03  0.16317933782E+04  0.00000000000E+00 0.  1.
<mgrwt>
<rscale>  0 0.32770423E+04</rscale>
<asrwt>0</asrwt>
<pdfrwt beam="1">  1        1 0.37334868E+00 0.32770423E+04</pdfrwt>
<pdfrwt beam="2">  1       -1 0.17020126E+00 0.32770423E+04</pdfrwt>
<totfact> 0.31028248E-01</totfact>
</mgrwt>
</event>
<event>
 6    1  0.2238133E-007  0.1262462E+04  0.7818608E-02  0.9059875E-01
          2   -1    0    0  501    0  0.00000000000E+00  0.00000000000E+00  0.22898927948E+03  0.22898927948E+03  0.00000000000E+00 0. -1.
         -2   -1    0    0    0  501 -0.00000000000E+00 -0.00000000000E+00 -0.17400479361E+04  0.17400479361E+04  0.00000000000E+00 0.  1.
         23    2    1    2    0    0  0.40703769153E+03 -0.16293401421E+02 -0.15045850727E+04  0.15616221145E+04  0.94563366903E+02 0.  0.
         11    1    3    3    0    0  0.15797732943E+03  0.20196049913E+02 -0.44801932394E+03  0.47548504883E+03  0.00000000000E+00 0. -1.
        -11    1    3    3    0    0  0.24906036210E+03 -0.36489451334E+02 -0.10565657487E+04  0.10861370657E+04  0.00000000000E+00 0.  1.
         22    1    1    2    0    0 -0.40703769153E+03  0.16293401421E+02 -0.64735839031E+01  0.40741510102E+03  0.00000000000E+00 0. -1.
<mgrwt>
<rscale>  0 0.12624616E+04</rscale>
<asrwt>0</asrwt>
<pdfrwt beam="1">  1        2 0.35229121E-01 0.12624616E+04</pdfrwt>
<pdfrwt beam="2">  1       -2 0.26769968E+00 0.12624616E+04</pdfrwt>
<totfact> 0.73337211E+00</totfact>
</mgrwt>
</event>
<event>
 6    1  0.2238133E-007  0.8302840E+03  0.7818608E-02  0.9517188E-01
          2   -1    0    0  501    0  0.00000000000E+00  0.00000000000E+00  0.18096497851E+03  0.18096497851E+03  0.00000000000E+00 0. -1.
         -2   -1    0    0    0  501 -0.00000000000E+00 -0.00000000000E+00 -0.95235482264E+03  0.95235482264E+03  0.00000000000E+00 0.  1.
         23    2    1    2    0    0  0.36657985899E+03 -0.74429866989E+02 -0.62045620187E+03  0.72995698372E+03  0.89166706399E+02 0.  0.
         11    1    3    3    0    0  0.17195390693E+03 -0.41461354012E+02 -0.37774538849E+03  0.41710762221E+03  0.00000000000E+00 0.  1.
        -11    1    3    3    0    0  0.19462595207E+03 -0.32968512977E+02 -0.24271081338E+03  0.31284936151E+03  0.00000000000E+00 0. -1.
         22    1    1    2    0    0 -0.36657985899E+03  0.74429866989E+02 -0.15093364226E+03  0.40336281743E+03  0.00000000000E+00 0. -1.
<mgrwt>
<rscale>  0 0.83028398E+03</rscale>
<asrwt>0</asrwt>
<pdfrwt beam="1">  1        2 0.27840766E-01 0.83028398E+03</pdfrwt>
<pdfrwt beam="2">  1       -2 0.14651612E+00 0.83028398E+03</pdfrwt>
<totfact> 0.62180668E+01</totfact>
</mgrwt>
</event>
<event>
 6    1  0.2238133E-007  0.3640546E+04  0.7818608E-02  0.8081267E-01
          2   -1    0    0  501    0  0.00000000000E+00  0.00000000000E+00  0.20495294232E+04  0.20495294232E+04  0.00000000000E+00 0. -1.
         -2   -1    0    0    0  501 -0.00000000000E+00 -0.00000000000E+00 -0.16166607350E+04  0.16166607350E+04  0.00000000000E+00 0.  1.
         23    2    1    2    0    0  0.12999224897E+04 -0.11968194354E+04 -0.21890565849E+03  0.17828460476E+04  0.91897236141E+02 0.  0.
         13    1    3    3    0    0  0.75489613664E+03 -0.65074239347E+03 -0.15548653643E+03  0.10087169587E+04  0.00000000000E+00 0. -1.
        -13    1    3    3    0    0  0.54502635302E+03 -0.54607704194E+03 -0.63419122063E+02  0.77412908889E+03  0.00000000000E+00 0.  1.
         22    1    1    2    0    0 -0.12999224897E+04  0.11968194354E+04  0.65177434666E+03  0.18833441106E+04  0.00000000000E+00 0. -1.
<mgrwt>
<rscale>  0 0.36405460E+04</rscale>
<asrwt>0</asrwt>
<pdfrwt beam="1">  1        2 0.31531222E+00 0.36405460E+04</pdfrwt>
<pdfrwt beam="2">  1       -2 0.24871704E+00 0.36405460E+04</pdfrwt>
<totfact> 0.33333301E-01</totfact>
</mgrwt>
</event>
<event>
 6    1  0.2238133E-007  0.3400478E+04  0.7818608E-02  0.8137789E-01
          2   -1    0    0  501    0  0.00000000000E+00  0.00000000000E+00  0.16668065593E+04  0.16668065593E+04  0.00000000000E+00 0. -1.
         -2   -1    0    0    0  501 -0.00000000000E+00 -0.00000000000E+00 -0.17343424047E+04  0.17343424047E+04  0.00000000000E+00 0.  1.
         23    2    1    2    0    0  0.11623095926E+04 -0.12241978431E+04  0.15875343970E+03  0.16979664168E+04  0.90902969365E+02 0.  0.
         13    1    3    3    0    0  0.40891509436E+03 -0.49447746958E+03  0.64343072894E+02  0.64487173403E+03  0.00000000000E+00 0.  1.
        -13    1    3    3    0    0  0.75339449826E+03 -0.72972037354E+03  0.94410366807E+02  0.10530946828E+04  0.00000000000E+00 0. -1.
         22    1    1    2    0    0 -0.11623095926E+04  0.12241978431E+04 -0.22628928512E+03  0.17031825471E+04  0.00000000000E+00 0.  1.
<mgrwt>
<rscale>  0 0.34004784E+04</rscale>
<asrwt>0</asrwt>
<pdfrwt beam="1">  1        2 0.25643178E+00 0.34004784E+04</pdfrwt>
<pdfrwt beam="2">  1       -2 0.26682191E+00 0.34004784E+04</pdfrwt>
<totfact> 0.42967409E-01</totfact>
</mgrwt>
</event>
<event>
 6    1  0.2238133E-007  0.3426870E+04  0.7818608E-02  0.8131343E-01
         -2   -1    0    0    0  501 -0.00000000000E+00  0.00000000000E+00  0.18152539016E+04  0.18152539016E+04  0.00000000000E+00 0.  1.
          2   -1    0    0  501    0  0.00000000000E+00 -0.00000000000E+00 -0.16173270858E+04  0.16173270858E+04  0.00000000000E+00 0. -1.
         23    2    1    2    0    0  0.14950703290E+04 -0.37753109440E+03 -0.64650464310E+03  0.16745054758E+04  0.90748659093E+02 0.  0.
         13    1    3    3    0    0  0.71235984746E+03 -0.20525414998E+03 -0.26940125639E+03  0.78877300620E+03  0.00000000000E+00 0.  1.
        -13    1    3    3    0    0  0.78271048152E+03 -0.17227694442E+03 -0.37710338670E+03  0.88573246962E+03  0.00000000000E+00 0. -1.
         22    1    1    2    0    0 -0.14950703290E+04  0.37753109440E+03  0.84443145883E+03  0.17580755116E+04  0.00000000000E+00 0.  1.
<mgrwt>
<rscale>  0 0.34268699E+04</rscale>
<asrwt>0</asrwt>
<pdfrwt beam="1">  1        2 0.24881955E+00 0.34268699E+04</pdfrwt>
<pdfrwt beam="2">  1       -2 0.27926983E+00 0.34268699E+04</pdfrwt>
<totfact> 0.38354507E-01</totfact>
</mgrwt>
</event>
<event>
 6    1  0.2238133E-007  0.2954942E+04  0.7818608E-02  0.8256716E-01
          2   -1    0    0  501    0  0.00000000000E+00  0.00000000000E+00  0.25523145447E+04  0.25523145447E+04  0.00000000000E+00 0. -1.
         -2   -1    0    0    0  501 -0.00000000000E+00 -0.00000000000E+00 -0.85527113514E+03  0.85527113514E+03  0.00000000000E+00 0.  1.
         23    2    1    2    0    0  0.53088118399E+03 -0.11122731392E+03  0.24324389863E+04  0.24937952218E+04  0.89715325840E+02 0.  0.
         13    1    3    3    0    0  0.24039610051E+03 -0.50412978324E+01  0.10795497530E+04  0.11060033314E+04  0.00000000000E+00 0.  1.
        -13    1    3    3    0    0  0.29048508348E+03 -0.10618601609E+03  0.13528892333E+04  0.13877918905E+04  0.00000000000E+00 0. -1.
         22    1    1    2    0    0 -0.53088118399E+03  0.11122731392E+03 -0.73539557671E+03  0.91379045799E+03  0.00000000000E+00 0.  1.
<mgrwt>
<rscale>  0 0.29549423E+04</rscale>
<asrwt>0</asrwt>
<pdfrwt beam="1">  1        2 0.39266377E+00 0.29549423E+04</pdfrwt>
<pdfrwt beam="2">  1       -2 0.13158018E+00 0.29549423E+04</pdfrwt>
<totfact> 0.11741385E+00</totfact>
</mgrwt>
</event>
<event>
 6    1  0.2238133E-007  0.3355156E+04  0.7818608E-02  0.8149001E-01
         -2   -1    0    0    0  501 -0.00000000000E+00  0.00000000000E+00  0.80078875768E+03  0.80078875768E+03  0.00000000000E+00 0.  1.
          2   -1    0    0  501    0  0.00000000000E+00 -0.00000000000E+00 -0.35143699835E+04  0.35143699835E+04  0.00000000000E+00 0. -1.
         23    2    1    2    0    0  0.10729104561E+04  0.69687876888E+03  0.35321288019E+02  0.12831228087E+04  0.91540610501E+02 0.  0.
         11    1    3    3    0    0  0.50976437167E+03  0.28638757351E+03 -0.98273530173E+01  0.58478554509E+03  0.00000000000E+00 0.  1.
        -11    1    3    3    0    0  0.56314608446E+03  0.41049119538E+03  0.45148641036E+02  0.69833726358E+03  0.00000000000E+00 0. -1.
         22    1    1    2    0    0 -0.10729104561E+04 -0.69687876888E+03 -0.27489025139E+04  0.30320359325E+04  0.00000000000E+00 0. -1.
<mgrwt>
<rscale>  0 0.33551560E+04</rscale>
<asrwt>0</asrwt>
<pdfrwt beam="1">  1        2 0.54067231E+00 0.33551560E+04</pdfrwt>
<pdfrwt beam="2">  1       -2 0.12319827E+00 0.33551560E+04</pdfrwt>
<totfact> 0.32792099E-01</totfact>
</mgrwt>
</event>
<event>
 6    1  0.2238133E-007  0.1853066E+04  0.7818608E-02  0.8678578E-01
         -2   -1    0    0    0  501 -0.00000000000E+00  0.00000000000E+00  0.56608265123E+03  0.56608265123E+03  0.00000000000E+00 0.  1.
          2   -1    0    0  501    0  0.00000000000E+00 -0.00000000000E+00 -0.15164980102E+04  0.15164980102E+04  0.00000000000E+00 0. -1.
         23    2    1    2    0    0 -0.65168640862E+03  0.25565198200E+02 -0.12131763217E+04  0.13794504615E+04  0.75749809467E+02 0.  0.
         11    1    3    3    0    0 -0.62555671377E+03  0.90027538183E+01 -0.11578889287E+04  0.13160961298E+04  0.00000000000E+00 0.  1.
        -11    1    3    3    0    0 -0.26129694856E+02  0.16562444382E+02 -0.55287392994E+02  0.63354331669E+02  0.00000000000E+00 0. -1.
         22    1    1    2    0    0  0.65168640862E+03 -0.25565198200E+02  0.26276096272E+03  0.70313019994E+03  0.00000000000E+00 0.  1.
<mgrwt>
<rscale>  0 0.18530658E+04</rscale>
<asrwt>0</asrwt>
<pdfrwt beam="1">  1        2 0.23330739E+00 0.18530658E+04</pdfrwt>
<pdfrwt beam="2">  1       -2 0.87089638E-01 0.18530658E+04</pdfrwt>
<totfact> 0.13313560E+01</totfact>
</mgrwt>
</event>
<event>
 6    1  0.2238133E-007  0.1994756E+04  0.7818608E-02  0.8609076E-01
          2   -1    0    0  501    0  0.00000000000E+00  0.00000000000E+00  0.14897864937E+04  0.14897864937E+04  0.00000000000E+00 0. -1.
         -2   -1    0    0    0  501 -0.00000000000E+00 -0.00000000000E+00 -0.66772165681E+03  0.66772165681E+03  0.00000000000E+00 0.  1.
         23    2    1    2    0    0  0.98075970270E+03 -0.12206794318E+03  0.28464492973E+03  0.10325146688E+04  0.90959486316E+02 0.  0.
         13    1    3    3    0    0  0.29988999527E+03 -0.79744454136E+02  0.87016700767E+02  0.32228107831E+03  0.00000000000E+00 0. -1.
        -13    1    3    3    0    0  0.68086970744E+03 -0.42323489042E+02  0.19762822897E+03  0.71023359053E+03  0.00000000000E+00 0.  1.
         22    1    1    2    0    0 -0.98075970270E+03  0.12206794318E+03  0.53741990717E+03  0.11249934817E+04  0.00000000000E+00 0.  1.
<mgrwt>
<rscale>  0 0.19947558E+04</rscale>
<asrwt>0</asrwt>
<pdfrwt beam="1">  1        2 0.22919792E+00 0.19947558E+04</pdfrwt>
<pdfrwt beam="2">  1       -2 0.10272641E+00 0.19947558E+04</pdfrwt>
<totfact> 0.92635799E+00</totfact>
</mgrwt>
</event>
<event>
 6    1  0.2238133E-007  0.2484392E+04  0.7818608E-02  0.8408567E-01
          2   -1    0    0  501    0  0.00000000000E+00  0.00000000000E+00  0.90723574678E+03  0.90723574678E+03  0.00000000000E+00 0. -1.
         -2   -1    0    0    0  501 -0.00000000000E+00 -0.00000000000E+00 -0.17008271840E+04  0.17008271840E+04  0.00000000000E+00 0.  1.
         23    2    1    2    0    0  0.58788284659E+02  0.70371097948E+03  0.67344841345E+03  0.97991332817E+03  0.89622319098E+02 0.  0.
         11    1    3    3    0    0  0.35782235881E+02  0.52287598348E+03  0.55018762119E+03  0.75985925080E+03  0.00000000000E+00 0.  1.
        -11    1    3    3    0    0  0.23006048778E+02  0.18083499600E+03  0.12326079226E+03  0.22005407737E+03  0.00000000000E+00 0. -1.
         22    1    1    2    0    0 -0.58788284659E+02 -0.70371097948E+03 -0.14670398507E+04  0.16281496027E+04  0.00000000000E+00 0.  1.
<mgrwt>
<rscale>  0 0.24843923E+04</rscale>
<asrwt>0</asrwt>
<pdfrwt beam="1">  1        2 0.13957473E+00 0.24843923E+04</pdfrwt>
<pdfrwt beam="2">  1       -2 0.26166572E+00 0.24843923E+04</pdfrwt>
<totfact> 0.14109373E+00</totfact>
</mgrwt>
</event>
<event>
 6    1  0.2238133E-007  0.2484189E+04  0.7818608E-02  0.8408640E-01
          2   -1    0    0  501    0  0.00000000000E+00  0.00000000000E+00  0.88388803210E+03  0.88388803210E+03  0.00000000000E+00 0. -1.
         -2   -1    0    0    0  501 -0.00000000000E+00 -0.00000000000E+00 -0.17454690359E+04  0.17454690359E+04  0.00000000000E+00 0.  1.
         23    2    1    2    0    0  0.73316749035E+03 -0.10000099723E+04 -0.46090515502E+03  0.13262470767E+04  0.94568667773E+02 0.  0.
         11    1    3    3    0    0  0.22866580159E+03 -0.33006028084E+03 -0.19546396726E+03  0.44658034025E+03  0.00000000000E+00 0.  1.
        -11    1    3    3    0    0  0.50450168876E+03 -0.66994969145E+03 -0.26544118777E+03  0.87966673644E+03  0.00000000000E+00 0. -1.
         22    1    1    2    0    0 -0.73316749035E+03  0.10000099723E+04 -0.40067584875E+03  0.13031099913E+04  0.00000000000E+00 0.  1.
<mgrwt>
<rscale>  0 0.24841894E+04</rscale>
<asrwt>0</asrwt>
<pdfrwt beam="1">  1        2 0.13598277E+00 0.24841894E+04</pdfrwt>
<pdfrwt beam="2">  1       -2 0.26853370E+00 0.24841894E+04</pdfrwt>
<totfact> 0.13286601E+00</totfact>
</mgrwt>
</event>
<event>
 6    1  0.2238133E-007  0.1204956E+04  0.7818608E-02  0.9108530E-01
          2   -1    0    0  501    0  0.00000000000E+00  0.00000000000E+00  0.93909203132E+03  0.93909203132E+03  0.00000000000E+00 0. -1.
         -2   -1    0    0    0  501 -0.00000000000E+00 -0.00000000000E+00 -0.38652185323E+03  0.38652185323E+03  0.00000000000E+00 0.  1.
         23    2    1    2    0    0  0.32745717647E+03  0.49920089735E+03  0.33508671004E+03  0.69021731767E+03  0.87676131481E+02 0.  0.
         13    1    3    3    0    0  0.66071509716E+02  0.64374901576E+02  0.81203372317E+02  0.12289654196E+03  0.00000000000E+00 0. -1.
        -13    1    3    3    0    0  0.26138566675E+03  0.43482599577E+03  0.25388333772E+03  0.56732077571E+03  0.00000000000E+00 0.  1.
         22    1    1    2    0    0 -0.32745717647E+03 -0.49920089735E+03  0.21748346805E+03  0.63539656688E+03  0.00000000000E+00 0. -1.
<mgrwt>
<rscale>  0 0.12049558E+04</rscale>
<asrwt>0</asrwt>
<pdfrwt beam="1">  1        2 0.14447570E+00 0.12049558E+04</pdfrwt>
<pdfrwt beam="2">  1       -2 0.59464901E-01 0.12049558E+04</pdfrwt>
<totfact> 0.71884924E+01</totfact>
</mgrwt>
</event>
<event>
 6    1  0.2238133E-007  0.1397179E+04  0.7818608E-02  0.8955863E-01
          2   -1    0    0  501    0  0.00000000000E+00  0.00000000000E+00  0.23511939421E+04  0.23511939421E+04  0.00000000000E+00 0. -1.
         -2   -1    0    0    0  501 -0.00000000000E+00 -0.00000000000E+00 -0.20756566825E+03  0.20756566825E+03  0.00000000000E+00 0.  1.
         23    2    1    2    0    0 -0.49953958298E+03  0.23694955569E+03  0.18493812987E+04  0.19324480511E+04  0.91974970064E+02 0.  0.
         13    1    3    3    0    0 -0.49548529975E+03  0.23442132685E+03  0.17702203859E+04  0.18531430747E+04  0.00000000000E+00 0. -1.
        -13    1    3    3    0    0 -0.40542832225E+01  0.25282288329E+01  0.79160912851E+02  0.79304976369E+02  0.00000000000E+00 0.  1.
         22    1    1    2    0    0  0.49953958298E+03 -0.23694955569E+03  0.29424697510E+03  0.62631155925E+03  0.00000000000E+00 0.  1.
<mgrwt>
<rscale>  0 0.13971788E+04</rscale>
<asrwt>0</asrwt>
<pdfrwt beam="1">  1        2 0.36172213E+00 0.13971788E+04</pdfrwt>
<pdfrwt beam="2">  1       -2 0.31933181E-01 0.13971788E+04</pdfrwt>
<totfact> 0.37734369E+01</totfact>
</mgrwt>
</event>
<event>
 6    1  0.2238133E-007  0.4900182E+04  0.7818608E-02  0.7844092E-01
          2   -1    0    0  501    0  0.00000000000E+00  0.00000000000E+00  0.22923421468E+04  0.22923421468E+04  0.00000000000E+00 0. -1.
         -2   -1    0    0    0  501 -0.00000000000E+00 -0.00000000000E+00 -0.26186958204E+04  0.26186958204E+04  0.00000000000E+00 0.  1.
         23    2    1    2    0    0  0.93559113701E+03  0.57694747310E+03  0.20303534308E+04  0.23106019387E+04  0.91362480524E+02 0.  0.
         13    1    3    3    0    0  0.15688030281E+03  0.11819442445E+03  0.42835344162E+03  0.47124093872E+03  0.00000000000E+00 0.  1.
        -13    1    3    3    0    0  0.77871083420E+03  0.45875304865E+03  0.16019999891E+04  0.18393610000E+04  0.00000000000E+00 0. -1.
         22    1    1    2    0    0 -0.93559113701E+03 -0.57694747310E+03 -0.23567071044E+04  0.26004360285E+04  0.00000000000E+00 0.  1.
<mgrwt>
<rscale>  0 0.49001824E+04</rscale>
<asrwt>0</asrwt>
<pdfrwt beam="1">  1        2 0.35266802E+00 0.49001824E+04</pdfrwt>
<pdfrwt beam="2">  1       -2 0.40287628E+00 0.49001824E+04</pdfrwt>
<totfact> 0.23898683E-02</totfact>
</mgrwt>
</event>
<event>
 6    1  0.2238133E-007  0.4008509E+04  0.7818608E-02  0.8002832E-01
          2   -1    0    0  501    0  0.00000000000E+00  0.00000000000E+00  0.23004147795E+04  0.23004147795E+04  0.00000000000E+00 0. -1.
         -2   -1    0    0    0  501 -0.00000000000E+00 -0.00000000000E+00 -0.17462223511E+04  0.17462223511E+04  0.00000000000E+00 0.  1.
         23    2    1    2    0    0 -0.59043928569E+03  0.17716741893E+04 -0.45470961406E+03  0.19240605562E+04  0.88318783652E+02 0.  0.
         13    1    3    3    0    0 -0.57244473094E+03  0.16509872759E+04 -0.43048528683E+03  0.17996581724E+04  0.00000000000E+00 0.  1.
        -13    1    3    3    0    0 -0.17994554754E+02  0.12068691337E+03 -0.24224327230E+02  0.12440238378E+03  0.00000000000E+00 0. -1.
         22    1    1    2    0    0  0.59043928569E+03 -0.17716741893E+04  0.10089020425E+04  0.21225765744E+04  0.00000000000E+00 0. -1.
<mgrwt>
<rscale>  0 0.40085088E+04</rscale>
<asrwt>0</asrwt>
<pdfrwt beam="1">  1        2 0.35390997E+00 0.40085088E+04</pdfrwt>
<pdfrwt beam="2">  1       -2 0.26864959E+00 0.40085088E+04</pdfrwt>
<totfact> 0.17646015E-01</totfact>
</mgrwt>
</event>
<event>
 6    1  0.2238133E-007  0.1629944E+04  0.7818608E-02  0.8802361E-01
          2   -1    0    0  501    0  0.00000000000E+00  0.00000000000E+00  0.14171589534E+04  0.14171589534E+04  0.00000000000E+00 0. -1.
         -2   -1    0    0    0  501 -0.00000000000E+00 -0.00000000000E+00 -0.46866962745E+03  0.46866962745E+03  0.00000000000E+00 0.  1.
         23    2    1    2    0    0  0.27949793390E+03 -0.21697494180E+03  0.13219209662E+04  0.13713886812E+04  0.89636229993E+02 0.  0.
         11    1    3    3    0    0  0.15397749808E+03 -0.10923994049E+03  0.86727963813E+03  0.88759022371E+03  0.00000000000E+00 0. -1.
        -11    1    3    3    0    0  0.12552043583E+03 -0.10773500131E+03  0.45464132806E+03  0.48379845751E+03  0.00000000000E+00 0.  1.
         22    1    1    2    0    0 -0.27949793390E+03  0.21697494180E+03 -0.37343164022E+03  0.51443989964E+03  0.00000000000E+00 0.  1.
<mgrwt>
<rscale>  0 0.16299440E+04</rscale>
<asrwt>0</asrwt>
<pdfrwt beam="1">  1        2 0.21802445E+00 0.16299440E+04</pdfrwt>
<pdfrwt beam="2">  1       -2 0.72103020E-01 0.16299440E+04</pdfrwt>
<totfact> 0.23578181E+01</totfact>
</mgrwt>
</event>
<event>
 6    1  0.2238133E-007  0.1831106E+04  0.7818608E-02  0.8689931E-01
          2   -1    0    0  501    0  0.00000000000E+00  0.00000000000E+00  0.98261687666E+03  0.98261687666E+03  0.00000000000E+00 0. -1.
         -2   -1    0    0    0  501 -0.00000000000E+00 -0.00000000000E+00 -0.85306592544E+03  0.85306592544E+03  0.00000000000E+00 0.  1.
         23    2    1    2    0    0 -0.45508053594E+03  0.59989339650E+03 -0.45304019618E+03  0.88364140259E+03  0.92770295187E+02 0.  0.
         13    1    3    3    0    0 -0.17279229774E+03  0.30394252828E+03 -0.21390109595E+03  0.40986817089E+03  0.00000000000E+00 0.  1.
        -13    1    3    3    0    0 -0.28228823819E+03  0.29595086821E+03 -0.23913910023E+03  0.47377323170E+03  0.00000000000E+00 0. -1.
         22    1    1    2    0    0  0.45508053594E+03 -0.59989339650E+03  0.58259114739E+03  0.95204139950E+03  0.00000000000E+00 0. -1.
<mgrwt>
<rscale>  0 0.18311056E+04</rscale>
<asrwt>0</asrwt>
<pdfrwt beam="1">  1        2 0.15117183E+00 0.18311056E+04</pdfrwt>
<pdfrwt beam="2">  1       -2 0.13124091E+00 0.18311056E+04</pdfrwt>
<totfact> 0.10319893E+01</totfact>
</mgrwt>
</event>
<event>
 6    1  0.2238133E-007  0.4262273E+04  0.7818608E-02  0.7953631E-01
         -1   -1    0    0    0  501 -0.00000000000E+00  0.00000000000E+00  0.11853114000E+04  0.11853114000E+04  0.00000000000E+00 0.  1.
          1   -1    0    0  501    0  0.00000000000E+00 -0.00000000000E+00 -0.38316869362E+04  0.38316869362E+04  0.00000000000E+00 0. -1.
         23    2    1    2    0    0  0.11389799950E+04 -0.87220985792E+03  0.52968766482E+03  0.15319728094E+04  0.91357545521E+02 0.  0.
         11    1    3    3    0    0  0.10533025757E+03 -0.53030973312E+02  0.30872290551E+02  0.12190096642E+03  0.00000000000E+00 0.  1.
        -11    1    3    3    0    0  0.10336497375E+04 -0.81917888461E+03  0.49881537427E+03  0.14100718430E+04  0.00000000000E+00 0. -1.
         22    1    1    2    0    0 -0.11389799950E+04  0.87220985792E+03 -0.31760632010E+04  0.34850255268E+04  0.00000000000E+00 0. -1.
<mgrwt>
<rscale>  0 0.42622727E+04</rscale>
<asrwt>0</asrwt>
<pdfrwt beam="1">  1        1 0.58949029E+00 0.42622727E+04</pdfrwt>
<pdfrwt beam="2">  1       -1 0.18235560E+00 0.42622727E+04</pdfrwt>
<totfact> 0.20499540E-02</totfact>
</mgrwt>
</event>
<event>
 6    1  0.2238133E-007  0.1864515E+04  0.7818608E-02  0.8672724E-01
          2   -1    0    0  501    0  0.00000000000E+00  0.00000000000E+00  0.10033497766E+04  0.10033497766E+04  0.00000000000E+00 0. -1.
         -2   -1    0    0    0  501 -0.00000000000E+00 -0.00000000000E+00 -0.86620224649E+03  0.86620224649E+03  0.00000000000E+00 0.  1.
         23    2    1    2    0    0 -0.38399253425E+03 -0.81947261761E+03 -0.14647631301E+03  0.92117017925E+03  0.90075254649E+02 0.  0.
         13    1    3    3    0    0 -0.75185382526E+02 -0.11350706834E+03 -0.47945147364E+02  0.14434484218E+03  0.00000000000E+00 0. -1.
        -13    1    3    3    0    0 -0.30880715172E+03 -0.70596554927E+03 -0.98531165651E+02  0.77682533707E+03  0.00000000000E+00 0.  1.
         22    1    1    2    0    0  0.38399253425E+03  0.81947261761E+03  0.28362384314E+03  0.94838184386E+03  0.00000000000E+00 0. -1.
<mgrwt>
<rscale>  0 0.18645148E+04</rscale>
<asrwt>0</asrwt>
<pdfrwt beam="1">  1        2 0.15436150E+00 0.18645148E+04</pdfrwt>
<pdfrwt beam="2">  1       -2 0.13326188E+00 0.18645148E+04</pdfrwt>
<totfact> 0.95993959E+00</totfact>
</mgrwt>
</event>
<event>
 6    1  0.2238133E-007  0.2242271E+04  0.7818608E-02  0.8501037E-01
         -2   -1    0    0    0  501 -0.00000000000E+00  0.00000000000E+00  0.74443449383E+03  0.74443449383E+03  0.00000000000E+00 0.  1.
          2   -1    0    0  501    0  0.00000000000E+00 -0.00000000000E+00 -0.16884566387E+04  0.16884566387E+04  0.00000000000E+00 0. -1.
         23    2    1    2    0    0 -0.91981597286E+03 -0.57433597086E+02  0.21643240905E+03  0.95099545007E+03  0.90494841634E+02 0.  0.
         13    1    3    3    0    0 -0.41286533513E+03 -0.42268823717E+02  0.54455608349E+02  0.41858075886E+03  0.00000000000E+00 0. -1.
        -13    1    3    3    0    0 -0.50695063773E+03 -0.15164773369E+02  0.16197680070E+03  0.53241469121E+03  0.00000000000E+00 0.  1.
         22    1    1    2    0    0  0.91981597286E+03  0.57433597086E+02 -0.11604545540E+04  0.14818956825E+04  0.00000000000E+00 0. -1.
<mgrwt>
<rscale>  0 0.22422715E+04</rscale>
<asrwt>0</asrwt>
<pdfrwt beam="1">  1        2 0.25976256E+00 0.22422715E+04</pdfrwt>
<pdfrwt beam="2">  1       -2 0.11452838E+00 0.22422715E+04</pdfrwt>
<totfact> 0.54003473E+00</totfact>
</mgrwt>
</event>
<event>
 6    1  0.2238133E-007  0.1069045E+04  0.7818608E-02  0.9235900E-01
          2   -1    0    0  501    0  0.00000000000E+00  0.00000000000E+00  0.95905371092E+03  0.95905371092E+03  0.00000000000E+00 0. -1.
         -2   -1    0    0    0  501 -0.00000000000E+00 -0.00000000000E+00 -0.29791253735E+03  0.29791253735E+03  0.00000000000E+00 0.  1.
         23    2    1    2    0    0  0.38027631210E+03 -0.12280354060E+03  0.74310173115E+03  0.84903449402E+03  0.94702724673E+02 0.  0.
         11    1    3    3    0    0  0.27280177255E+03 -0.51299853270E+02  0.55976689219E+03  0.62481313658E+03  0.00000000000E+00 0. -1.
        -11    1    3    3    0    0  0.10747453955E+03 -0.71503687328E+02  0.18333483896E+03  0.22422135744E+03  0.00000000000E+00 0.  1.
         22    1    1    2    0    0 -0.38027631210E+03  0.12280354060E+03 -0.81960557586E+02  0.40793175425E+03  0.00000000000E+00 0.  1.
<mgrwt>
<rscale>  0 0.10690447E+04</rscale>
<asrwt>0</asrwt>
<pdfrwt beam="1">  1        2 0.14754672E+00 0.10690447E+04</pdfrwt>
<pdfrwt beam="2">  1       -2 0.45832698E-01 0.10690447E+04</pdfrwt>
<totfact> 0.12019118E+02</totfact>
</mgrwt>
</event>
<event>
 6    1  0.2238133E-007  0.1616674E+04  0.7818608E-02  0.8810369E-01
          2   -1    0    0  501    0  0.00000000000E+00  0.00000000000E+00  0.11848489740E+04  0.11848489740E+04  0.00000000000E+00 0. -1.
         -2   -1    0    0    0  501 -0.00000000000E+00 -0.00000000000E+00 -0.55147010532E+03  0.55147010532E+03  0.00000000000E+00 0.  1.
         23    2    1    2    0    0  0.78086272406E+03 -0.19420748772E+03  0.36007587167E+03  0.88652047356E+03  0.93812443581E+02 0.  0.
         11    1    3    3    0    0  0.43589309739E+03 -0.97062003778E+02  0.24909320294E+03  0.51134259424E+03  0.00000000000E+00 0. -1.
        -11    1    3    3    0    0  0.34496962667E+03 -0.97145483941E+02  0.11098266873E+03  0.37517787933E+03  0.00000000000E+00 0.  1.
         22    1    1    2    0    0 -0.78086272406E+03  0.19420748772E+03  0.27330299697E+03  0.84979860571E+03  0.00000000000E+00 0.  1.
<mgrwt>
<rscale>  0 0.16166741E+04</rscale>
<asrwt>0</asrwt>
<pdfrwt beam="1">  1        2 0.18228446E+00 0.16166741E+04</pdfrwt>
<pdfrwt beam="2">  1       -2 0.84841555E-01 0.16166741E+04</pdfrwt>
<totfact> 0.22417597E+01</totfact>
</mgrwt>
</event>
<event>
 6    1  0.2238133E-007  0.1509481E+04  0.7818608E-02  0.8878173E-01
          2   -1    0    0  501    0  0.00000000000E+00  0.00000000000E+00  0.17370813340E+04  0.17370813340E+04  0.00000000000E+00 0. -1.
         -2   -1    0    0    0  501 -0.00000000000E+00 -0.00000000000E+00 -0.32792530652E+03  0.32792530652E+03  0.00000000000E+00 0.  1.
         23    2    1    2    0    0  0.73233798669E+03  0.95879735511E+02  0.90022935156E+03  0.11680572485E+04  0.91831366347E+02 0.  0.
         13    1    3    3    0    0  0.16779716263E+03  0.35656809088E+02  0.15497349641E+03  0.23117975779E+03  0.00000000000E+00 0. -1.
        -13    1    3    3    0    0  0.56454082406E+03  0.60222926424E+02  0.74525585515E+03  0.93687749068E+03  0.00000000000E+00 0.  1.
         22    1    1    2    0    0 -0.73233798669E+03 -0.95879735511E+02  0.50892667589E+03  0.89694939203E+03  0.00000000000E+00 0.  1.
<mgrwt>
<rscale>  0 0.15094806E+04</rscale>
<asrwt>0</asrwt>
<pdfrwt beam="1">  1        2 0.26724328E+00 0.15094806E+04</pdfrwt>
<pdfrwt beam="2">  1       -2 0.50450048E-01 0.15094806E+04</pdfrwt>
<totfact> 0.33545767E+01</totfact>
</mgrwt>
</event>
<event>
 6    1  0.2238133E-007  0.4728419E+04  0.7818608E-02  0.7871824E-01
          2   -1    0    0  501    0  0.00000000000E+00  0.00000000000E+00  0.23288991245E+04  0.23288991245E+04  0.00000000000E+00 0. -1.
         -2   -1    0    0    0  501 -0.00000000000E+00 -0.00000000000E+00 -0.24000553670E+04  0.24000553670E+04  0.00000000000E+00 0.  1.
         23    2    1    2    0    0  0.21920296426E+04  0.82025293163E+03 -0.36427498485E+03  0.23701990097E+04  0.85663616676E+02 0.  0.
         13    1    3    3    0    0  0.12916894704E+04  0.51755792670E+03 -0.18889546392E+03  0.14042825185E+04  0.00000000000E+00 0.  1.
        -13    1    3    3    0    0  0.90034017214E+03  0.30269500493E+03 -0.17537952093E+03  0.96591649119E+03  0.00000000000E+00 0. -1.
         22    1    1    2    0    0 -0.21920296426E+04 -0.82025293163E+03  0.29311874234E+03  0.23587554818E+04  0.00000000000E+00 0. -1.
<mgrwt>
<rscale>  0 0.47284191E+04</rscale>
<asrwt>0</asrwt>
<pdfrwt beam="1">  1        2 0.35829217E+00 0.47284191E+04</pdfrwt>
<pdfrwt beam="2">  1       -2 0.36923929E+00 0.47284191E+04</pdfrwt>
<totfact> 0.38130273E-02</totfact>
</mgrwt>
</event>
<event>
 6    1  0.2238133E-007  0.1078431E+04  0.7818608E-02  0.9226473E-01
          1   -1    0    0  501    0  0.00000000000E+00  0.00000000000E+00  0.61542299169E+03  0.61542299169E+03  0.00000000000E+00 0. -1.
         -1   -1    0    0    0  501 -0.00000000000E+00 -0.00000000000E+00 -0.47244459579E+03  0.47244459579E+03  0.00000000000E+00 0.  1.
         23    2    1    2    0    0 -0.38537621793E+03 -0.18436351022E+03 -0.25310376622E+03  0.50529929758E+03  0.93600910318E+02 0.  0.
         13    1    3    3    0    0 -0.67996771525E+02 -0.27751333152E+02 -0.60654931600E+01  0.73691842403E+02  0.00000000000E+00 0.  1.
        -13    1    3    3    0    0 -0.31737944640E+03 -0.15661217707E+03 -0.24703827306E+03  0.43160745518E+03  0.00000000000E+00 0. -1.
         22    1    1    2    0    0  0.38537621793E+03  0.18436351022E+03  0.39608216212E+03  0.58256828990E+03  0.00000000000E+00 0.  1.
<mgrwt>
<rscale>  0 0.10784308E+04</rscale>
<asrwt>0</asrwt>
<pdfrwt beam="1">  1        1 0.94680460E-01 0.10784308E+04</pdfrwt>
<pdfrwt beam="2">  1       -1 0.72683784E-01 0.10784308E+04</pdfrwt>
<totfact> 0.62900770E+01</totfact>
</mgrwt>
</event>
<event>
 6    1  0.2238133E-007  0.3497274E+04  0.7818608E-02  0.8114436E-01
         -2   -1    0    0    0  501 -0.00000000000E+00  0.00000000000E+00  0.12851450097E+04  0.12851450097E+04  0.00000000000E+00 0.  1.
          2   -1    0    0  501    0  0.00000000000E+00 -0.00000000000E+00 -0.23792889784E+04  0.23792889784E+04  0.00000000000E+00 0. -1.
         23    2    1    2    0    0  0.10120332968E+04  0.81357659498E+03 -0.17727224618E+04  0.21993104299E+04  0.91121735041E+02 0.  0.
         13    1    3    3    0    0  0.50261363166E+03  0.40109184314E+03 -0.95478533900E+03  0.11511342984E+04  0.00000000000E+00 0. -1.
        -13    1    3    3    0    0  0.50941966511E+03  0.41248475184E+03 -0.81793712281E+03  0.10481761315E+04  0.00000000000E+00 0.  1.
         22    1    1    2    0    0 -0.10120332968E+04 -0.81357659498E+03  0.67857849310E+03  0.14651235583E+04  0.00000000000E+00 0. -1.
<mgrwt>
<rscale>  0 0.34972740E+04</rscale>
<asrwt>0</asrwt>
<pdfrwt beam="1">  1        2 0.36604446E+00 0.34972740E+04</pdfrwt>
<pdfrwt beam="2">  1       -2 0.19771462E+00 0.34972740E+04</pdfrwt>
<totfact> 0.46234416E-01</totfact>
</mgrwt>
</event>
<event>
 6    1  0.2238133E-007  0.3913610E+04  0.7818608E-02  0.8022205E-01
          2   -1    0    0  501    0  0.00000000000E+00  0.00000000000E+00  0.15620348677E+04  0.15620348677E+04  0.00000000000E+00 0. -1.
         -2   -1    0    0    0  501 -0.00000000000E+00 -0.00000000000E+00 -0.24513443140E+04  0.24513443140E+04  0.00000000000E+00 0.  1.
         23    2    1    2    0    0 -0.13984626096E+04  0.41889935332E+03 -0.17784296645E+04  0.23040784179E+04  0.12161803107E+03 0.  0.
         13    1    3    3    0    0 -0.94772793930E+03  0.29743950304E+03 -0.12946383410E+04  0.16317925539E+04  0.00000000000E+00 0.  1.
        -13    1    3    3    0    0 -0.45073467027E+03  0.12145985028E+03 -0.48379132350E+03  0.67228586398E+03  0.00000000000E+00 0. -1.
         22    1    1    2    0    0  0.13984626096E+04 -0.41889935332E+03  0.88912021825E+03  0.17093007638E+04  0.00000000000E+00 0. -1.
<mgrwt>
<rscale>  0 0.39136097E+04</rscale>
<asrwt>0</asrwt>
<pdfrwt beam="1">  1        2 0.24031306E+00 0.39136097E+04</pdfrwt>
<pdfrwt beam="2">  1       -2 0.37712989E+00 0.39136097E+04</pdfrwt>
<totfact> 0.97164540E-02</totfact>
</mgrwt>
</event>
<event>
 6    1  0.2238133E-007  0.3272809E+04  0.7818608E-02  0.8169849E-01
         -1   -1    0    0    0  501 -0.00000000000E+00  0.00000000000E+00  0.10781462960E+04  0.10781462960E+04  0.00000000000E+00 0.  1.
          1   -1    0    0  501    0  0.00000000000E+00 -0.00000000000E+00 -0.24837260734E+04  0.24837260734E+04  0.00000000000E+00 0. -1.
         23    2    1    2    0    0 -0.15535595383E+04  0.46455971900E+03 -0.93109215915E+03  0.18723453730E+04  0.96858740811E+02 0.  0.
         11    1    3    3    0    0 -0.49407579230E+03  0.11099826802E+03 -0.25862563596E+03  0.56861122361E+03  0.00000000000E+00 0. -1.
        -11    1    3    3    0    0 -0.10594837460E+04  0.35356145098E+03 -0.67246652320E+03  0.13037341494E+04  0.00000000000E+00 0.  1.
         22    1    1    2    0    0  0.15535595383E+04 -0.46455971900E+03 -0.47448761833E+03  0.16895269964E+04  0.00000000000E+00 0. -1.
<mgrwt>
<rscale>  0 0.32728092E+04</rscale>
<asrwt>0</asrwt>
<pdfrwt beam="1">  1        1 0.38211170E+00 0.32728092E+04</pdfrwt>
<pdfrwt beam="2">  1       -1 0.16586866E+00 0.32728092E+04</pdfrwt>
<totfact> 0.30516349E-01</totfact>
</mgrwt>
</event>
<event>
 6    1  0.2238133E-007  0.1370475E+04  0.7818608E-02  0.8975472E-01
          2   -1    0    0  501    0  0.00000000000E+00  0.00000000000E+00  0.12199884303E+04  0.12199884303E+04  0.00000000000E+00 0. -1.
         -2   -1    0    0    0  501 -0.00000000000E+00 -0.00000000000E+00 -0.38488104168E+03  0.38488104168E+03  0.00000000000E+00 0.  1.
         23    2    1    2    0    0 -0.39939913748E+03  0.24341178038E+03  0.10009838259E+04  0.11085994262E+04  0.90857593561E+02 0.  0.
         13    1    3    3    0    0 -0.43562353899E+02  0.65423940970E+02  0.16622033522E+03  0.18386726345E+03  0.00000000000E+00 0.  1.
        -13    1    3    3    0    0 -0.35583678358E+03  0.17798783941E+03  0.83476349067E+03  0.92473216278E+03  0.00000000000E+00 0. -1.
         22    1    1    2    0    0  0.39939913748E+03 -0.24341178038E+03 -0.16587643728E+03  0.49627004573E+03  0.00000000000E+00 0.  1.
<mgrwt>
<rscale>  0 0.13704750E+04</rscale>
<asrwt>0</asrwt>
<pdfrwt beam="1">  1        2 0.18769053E+00 0.13704750E+04</pdfrwt>
<pdfrwt beam="2">  1       -2 0.59212469E-01 0.13704750E+04</pdfrwt>
<totfact> 0.47867459E+01</totfact>
</mgrwt>
</event>
<event>
 6    1  0.2730419E-007  0.3386487E+04  0.7818608E-02  0.8141231E-01
          2   -1    0    0  501    0  0.00000000000E+00  0.00000000000E+00  0.18532860468E+04  0.18532860468E+04  0.00000000000E+00 0. -1.
         -2   -1    0    0    0  501 -0.00000000000E+00 -0.00000000000E+00 -0.15470215866E+04  0.15470215866E+04  0.00000000000E+00 0.  1.
         23    2    1    2    0    0  0.42899758146E+03 -0.54432523218E+03 -0.13965540149E+04  0.15618518569E+04  0.93216001992E+02 0.  0.
         11    1    3    3    0    0  0.32854492466E+03 -0.44528141962E+03 -0.10328757598E+04  0.11717720108E+04  0.00000000000E+00 0. -1.
        -11    1    3    3    0    0  0.10045265679E+03 -0.99043812559E+02 -0.36367825510E+03  0.39007984605E+03  0.00000000000E+00 0.  1.
         22    1    1    2    0    0 -0.42899758146E+03  0.54432523218E+03  0.17028184750E+04  0.18384557765E+04  0.00000000000E+00 0. -1.
<mgrwt>
<rscale>  0 0.33864870E+04</rscale>
<asrwt>0</asrwt>
<pdfrwt beam="1">  1        2 0.28512093E+00 0.33864870E+04</pdfrwt>
<pdfrwt beam="2">  1       -2 0.23800332E+00 0.33864870E+04</pdfrwt>
<totfact> 0.50955871E-01</totfact>
</mgrwt>
</event>
<event>
 6    1  0.2238133E-007  0.1076082E+04  0.7818608E-02  0.9228823E-01
          2   -1    0    0  501    0  0.00000000000E+00  0.00000000000E+00  0.27289759155E+04  0.27289759155E+04  0.00000000000E+00 0. -1.
         -2   -1    0    0    0  501 -0.00000000000E+00 -0.00000000000E+00 -0.10607936369E+03  0.10607936369E+03  0.00000000000E+00 0.  1.
         23    2    1    2    0    0 -0.14973190172E+03 -0.32448869349E+03  0.23669066030E+04  0.23954606836E+04  0.90953089563E+02 0.  0.
         11    1    3    3    0    0 -0.86215850570E+02 -0.12052878831E+03  0.74965626291E+03  0.76416285845E+03  0.00000000000E+00 0.  1.
        -11    1    3    3    0    0 -0.63516051150E+02 -0.20395990518E+03  0.16172503401E+04  0.16312978252E+04  0.00000000000E+00 0. -1.
         22    1    1    2    0    0  0.14973190172E+03  0.32448869349E+03  0.25598994871E+03  0.43959459555E+03  0.00000000000E+00 0.  1.
<mgrwt>
<rscale>  0 0.10760818E+04</rscale>
<asrwt>0</asrwt>
<pdfrwt beam="1">  1        2 0.41984240E+00 0.10760818E+04</pdfrwt>
<pdfrwt beam="2">  1       -2 0.16319904E-01 0.10760818E+04</pdfrwt>
<totfact> 0.78249089E+01</totfact>
</mgrwt>
</event>
<event>
 6    1  0.2238133E-007  0.1844999E+04  0.7818608E-02  0.8682729E-01
         -1   -1    0    0    0  501 -0.00000000000E+00  0.00000000000E+00  0.12273785584E+04  0.12273785584E+04  0.00000000000E+00 0.  1.
          1   -1    0    0  501    0  0.00000000000E+00 -0.00000000000E+00 -0.69335164984E+03  0.69335164984E+03  0.00000000000E+00 0. -1.
         23    2    1    2    0    0 -0.52695151384E+03  0.33819272316E+03 -0.43460796402E+03  0.76734140462E+03  0.88749833378E+02 0.  0.
         13    1    3    3    0    0 -0.22197698010E+03  0.18286424117E+03 -0.16431964743E+03  0.33123112312E+03  0.00000000000E+00 0. -1.
        -13    1    3    3    0    0 -0.30497453374E+03  0.15532848199E+03 -0.27028831659E+03  0.43611028150E+03  0.00000000000E+00 0.  1.
         22    1    1    2    0    0  0.52695151384E+03 -0.33819272316E+03  0.96863487257E+03  0.11533888036E+04  0.00000000000E+00 0.  1.
<mgrwt>
<rscale>  0 0.18449986E+04</rscale>
<asrwt>0</asrwt>
<pdfrwt beam="1">  1        1 0.10666948E+00 0.18449986E+04</pdfrwt>
<pdfrwt beam="2">  1       -1 0.18882747E+00 0.18449986E+04</pdfrwt>
<totfact> 0.46787110E+00</totfact>
</mgrwt>
</event>
<event>
 6    1  0.2238133E-007  0.1355595E+04  0.7818608E-02  0.8986604E-01
         -2   -1    0    0    0  501 -0.00000000000E+00  0.00000000000E+00  0.16159357882E+03  0.16159357882E+03  0.00000000000E+00 0.  1.
          2   -1    0    0  501    0  0.00000000000E+00 -0.00000000000E+00 -0.28429926757E+04  0.28429926757E+04  0.00000000000E+00 0. -1.
         23    2    1    2    0    0 -0.45094271689E+03 -0.50080706303E+03 -0.14412879137E+04  0.15931923354E+04  0.82425233291E+02 0.  0.
         13    1    3    3    0    0 -0.10108356984E+03 -0.16471613525E+03 -0.43966339048E+03  0.48026366741E+03  0.00000000000E+00 0.  1.
        -13    1    3    3    0    0 -0.34985914705E+03 -0.33609092778E+03 -0.10016245232E+04  0.11129286680E+04  0.00000000000E+00 0. -1.
         22    1    1    2    0    0  0.45094271689E+03  0.50080706303E+03 -0.12401111832E+04  0.14113939191E+04  0.00000000000E+00 0. -1.
<mgrwt>
<rscale>  0 0.13555949E+04</rscale>
<asrwt>0</asrwt>
<pdfrwt beam="1">  1        2 0.43738348E+00 0.13555949E+04</pdfrwt>
<pdfrwt beam="2">  1       -2 0.24860551E-01 0.13555949E+04</pdfrwt>
<totfact> 0.31056495E+01</totfact>
</mgrwt>
</event>
<event>
 6    1  0.2238133E-007  0.2253822E+04  0.7818608E-02  0.8496354E-01
          2   -1    0    0  501    0  0.00000000000E+00  0.00000000000E+00  0.46574450359E+04  0.46574450359E+04  0.00000000000E+00 0. -1.
         -2   -1    0    0    0  501 -0.00000000000E+00 -0.00000000000E+00 -0.27266629448E+03  0.27266629448E+03  0.00000000000E+00 0.  1.
         23    2    1    2    0    0  0.10071351592E+04  0.50000473987E+03  0.21124125902E+04  0.23947664043E+04  0.91067069586E+02 0.  0.
         13    1    3    3    0    0  0.16361746496E+03  0.11619403215E+03  0.40897915699E+03  0.45556083984E+03  0.00000000000E+00 0. -1.
        -13    1    3    3    0    0  0.84351769428E+03  0.38381070773E+03  0.17034334332E+04  0.19392055645E+04  0.00000000000E+00 0.  1.
         22    1    1    2    0    0 -0.10071351592E+04 -0.50000473987E+03  0.22723661512E+04  0.25353449260E+04  0.00000000000E+00 0.  1.
<mgrwt>
<rscale>  0 0.22538219E+04</rscale>
<asrwt>0</asrwt>
<pdfrwt beam="1">  1        2 0.71652994E+00 0.22538219E+04</pdfrwt>
<pdfrwt beam="2">  1       -2 0.41948664E-01 0.22538219E+04</pdfrwt>
<totfact> 0.42251579E-01</totfact>
</mgrwt>
</event>
<event>
 6    1  0.2360176E-007  0.4134120E+04  0.7818608E-02  0.7978024E-01
         -2   -1    0    0    0  501 -0.00000000000E+00  0.00000000000E+00  0.29888039543E+04  0.29888039543E+04  0.00000000000E+00 0.  1.
          2   -1    0    0  501    0  0.00000000000E+00 -0.00000000000E+00 -0.14295810926E+04  0.14295810926E+04  0.00000000000E+00 0. -1.
         23    2    1    2    0    0 -0.31595361165E+03  0.50452845181E+03  0.28944545665E+04  0.29564618790E+04  0.91782137472E+02 0.  0.
         13    1    3    3    0    0 -0.70339583124E+02  0.19410086746E+03  0.97756594198E+03  0.99912860765E+03  0.00000000000E+00 0. -1.
        -13    1    3    3    0    0 -0.24561402853E+03  0.31042758435E+03  0.19168886245E+04  0.19573332713E+04  0.00000000000E+00 0.  1.
         22    1    1    2    0    0  0.31595361165E+03 -0.50452845181E+03 -0.13352317048E+04  0.14619231679E+04  0.00000000000E+00 0. -1.
<mgrwt>
<rscale>  0 0.41341203E+04</rscale>
<asrwt>0</asrwt>
<pdfrwt beam="1">  1        2 0.21993555E+00 0.41341203E+04</pdfrwt>
<pdfrwt beam="2">  1       -2 0.45981599E+00 0.41341203E+04</pdfrwt>
<totfact> 0.32494634E-02</totfact>
</mgrwt>
</event>
<event>
 6    1  0.2238133E-007  0.5933063E+03  0.7818608E-02  0.9919392E-01
         -1   -1    0    0    0  501 -0.00000000000E+00  0.00000000000E+00  0.48332415404E+02  0.48332415404E+02  0.00000000000E+00 0.  1.
          1   -1    0    0  501    0  0.00000000000E+00 -0.00000000000E+00 -0.18207880578E+04  0.18207880578E+04  0.00000000000E+00 0. -1.
         23    2    1    2    0    0  0.88157967600E+02 -0.77585445200E+02 -0.17415580661E+04  0.17476874103E+04  0.87151923853E+02 0.  0.
         13    1    3    3    0    0  0.10361469161E+03 -0.57975370794E+02 -0.12948905521E+04  0.13003225330E+04  0.00000000000E+00 0. -1.
        -13    1    3    3    0    0 -0.15456724011E+02 -0.19610074406E+02 -0.44666751399E+03  0.44736487724E+03  0.00000000000E+00 0.  1.
         22    1    1    2    0    0 -0.88157967600E+02  0.77585445200E+02 -0.30897576317E+02  0.12143306296E+03  0.00000000000E+00 0.  1.
<mgrwt>
<rscale>  0 0.59330628E+03</rscale>
<asrwt>0</asrwt>
<pdfrwt beam="1">  1        1 0.28012121E+00 0.59330628E+03</pdfrwt>
<pdfrwt beam="2">  1       -1 0.74357570E-02 0.59330628E+03</pdfrwt>
<totfact> 0.41079719E+02</totfact>
</mgrwt>
</event>
<event>
 6    1  0.2238133E-007  0.3079872E+04  0.7818608E-02  0.8221284E-01
         -2   -1    0    0    0  501 -0.00000000000E+00  0.00000000000E+00  0.77982746740E+03  0.77982746740E+03  0.00000000000E+00 0.  1.
          2   -1    0    0  501    0  0.00000000000E+00 -0.00000000000E+00 -0.30409327716E+04  0.30409327716E+04  0.00000000000E+00 0. -1.
         23    2    1    2    0    0 -0.15046091837E+04  0.32057654663E+03 -0.11689157634E+04  0.19340975476E+04  0.88040580317E+02 0.  0.
         13    1    3    3    0    0 -0.46045858850E+03  0.11290236529E+03 -0.40849229558E+03  0.62580748745E+03  0.00000000000E+00 0.  1.
        -13    1    3    3    0    0 -0.10441505952E+04  0.20767418134E+03 -0.76042346783E+03  0.13082900602E+04  0.00000000000E+00 0. -1.
         22    1    1    2    0    0  0.15046091837E+04 -0.32057654663E+03 -0.10921895408E+04  0.18866626914E+04  0.00000000000E+00 0.  1.
<mgrwt>
<rscale>  0 0.30798720E+04</rscale>
<asrwt>0</asrwt>
<pdfrwt beam="1">  1        2 0.46783582E+00 0.30798720E+04</pdfrwt>
<pdfrwt beam="2">  1       -2 0.11997346E+00 0.30798720E+04</pdfrwt>
<totfact> 0.74085023E-01</totfact>
</mgrwt>
</event>
<event>
 6    1  0.2238133E-007  0.2218890E+04  0.7818608E-02  0.8510607E-01
         -2   -1    0    0    0  501 -0.00000000000E+00  0.00000000000E+00  0.51889460160E+03  0.51889460160E+03  0.00000000000E+00 0.  1.
          2   -1    0    0  501    0  0.00000000000E+00 -0.00000000000E+00 -0.23720971151E+04  0.23720971151E+04  0.00000000000E+00 0. -1.
         23    2    1    2    0    0 -0.86869900335E+03  0.36525128319E+03 -0.16863713117E+04  0.19339759863E+04  0.91479268115E+02 0.  0.
         11    1    3    3    0    0 -0.50825892608E+03  0.24970647902E+03 -0.10716078148E+04  0.12120329081E+04  0.00000000000E+00 0. -1.
        -11    1    3    3    0    0 -0.36044007727E+03  0.11554480417E+03 -0.61476349694E+03  0.72194307826E+03  0.00000000000E+00 0.  1.
         22    1    1    2    0    0  0.86869900335E+03 -0.36525128319E+03 -0.16683120182E+03  0.95701573038E+03  0.00000000000E+00 0.  1.
<mgrwt>
<rscale>  0 0.22188902E+04</rscale>
<asrwt>0</asrwt>
<pdfrwt beam="1">  1        2 0.36493801E+00 0.22188902E+04</pdfrwt>
<pdfrwt beam="2">  1       -2 0.79829941E-01 0.22188902E+04</pdfrwt>
<totfact> 0.52277974E+00</totfact>
</mgrwt>
</event>
<event>
 6    1  0.2238133E-007  0.1648502E+04  0.7818608E-02  0.8791293E-01
         -1   -1    0    0    0  501 -0.00000000000E+00  0.00000000000E+00  0.56136676298E+03  0.56136676298E+03  0.00000000000E+00 0.  1.
          1   -1    0    0  501    0  0.00000000000E+00 -0.00000000000E+00 -0.12102416944E+04  0.12102416944E+04  0.00000000000E+00 0. -1.
         23    2    1    2    0    0  0.35519636669E+03  0.17912778309E+03 -0.10981707184E+04  0.11715101940E+04  0.90586898618E+02 0.  0.
         11    1    3    3    0    0  0.77804031434E+02  0.66564118999E+02 -0.19869464528E+03  0.22352586273E+03  0.00000000000E+00 0. -1.
        -11    1    3    3    0    0  0.27739233526E+03  0.11256366409E+03 -0.89947607315E+03  0.94798433126E+03  0.00000000000E+00 0.  1.
         22    1    1    2    0    0 -0.35519636669E+03 -0.17912778309E+03  0.44929578697E+03  0.60009826343E+03  0.00000000000E+00 0.  1.
<mgrwt>
<rscale>  0 0.16485017E+04</rscale>
<asrwt>0</asrwt>
<pdfrwt beam="1">  1        1 0.18619103E+00 0.16485017E+04</pdfrwt>
<pdfrwt beam="2">  1       -1 0.86364119E-01 0.16485017E+04</pdfrwt>
<totfact> 0.13275649E+01</totfact>
</mgrwt>
</event>
<event>
 6    1  0.2238133E-007  0.3831691E+04  0.7818608E-02  0.8039388E-01
          2   -1    0    0  501    0  0.00000000000E+00  0.00000000000E+00  0.14282423614E+04  0.14282423614E+04  0.00000000000E+00 0. -1.
         -2   -1    0    0    0  501 -0.00000000000E+00 -0.00000000000E+00 -0.25699168055E+04  0.25699168055E+04  0.00000000000E+00 0.  1.
         23    2    1    2    0    0  0.88202356136E+03  0.16993770419E+04 -0.58405609260E+03  0.20039710817E+04  0.94502293673E+02 0.  0.
         13    1    3    3    0    0  0.44065443346E+03  0.78773192606E+03 -0.31475682172E+03  0.95591305770E+03  0.00000000000E+00 0. -1.
        -13    1    3    3    0    0  0.44136912790E+03  0.91164511583E+03 -0.26929927088E+03  0.10480580240E+04  0.00000000000E+00 0.  1.
         22    1    1    2    0    0 -0.88202356136E+03 -0.16993770419E+04 -0.55761835155E+03  0.19941880852E+04  0.00000000000E+00 0. -1.
<mgrwt>
<rscale>  0 0.38316910E+04</rscale>
<asrwt>0</asrwt>
<pdfrwt beam="1">  1        2 0.21972960E+00 0.38316910E+04</pdfrwt>
<pdfrwt beam="2">  1       -2 0.39537181E+00 0.38316910E+04</pdfrwt>
<totfact> 0.88673545E-02</totfact>
</mgrwt>
</event>
<event>
 6    1  0.2238133E-007  0.3989516E+04  0.7818608E-02  0.8006665E-01
          2   -1    0    0  501    0  0.00000000000E+00  0.00000000000E+00  0.21142085391E+04  0.21142085391E+04  0.00000000000E+00 0. -1.
         -2   -1    0    0    0  501 -0.00000000000E+00 -0.00000000000E+00 -0.18820558796E+04  0.18820558796E+04  0.00000000000E+00 0.  1.
         23    2    1    2    0    0 -0.14546093451E+04 -0.15055794713E+03  0.14735518353E+04  0.20780287826E+04  0.91063538439E+02 0.  0.
         13    1    3    3    0    0 -0.54563319512E+03 -0.98029774659E+02  0.57979642778E+03  0.80217785933E+03  0.00000000000E+00 0. -1.
        -13    1    3    3    0    0 -0.90897614994E+03 -0.52528172472E+02  0.89375540747E+03  0.12758509233E+04  0.00000000000E+00 0.  1.
         22    1    1    2    0    0  0.14546093451E+04  0.15055794713E+03 -0.12413991757E+04  0.19182356361E+04  0.00000000000E+00 0.  1.
<mgrwt>
<rscale>  0 0.39895156E+04</rscale>
<asrwt>0</asrwt>
<pdfrwt beam="1">  1        2 0.32526285E+00 0.39895156E+04</pdfrwt>
<pdfrwt beam="2">  1       -2 0.28954706E+00 0.39895156E+04</pdfrwt>
<totfact> 0.16774592E-01</totfact>
</mgrwt>
</event>
<event>
 6    1  0.2238133E-007  0.1287291E+04  0.7818608E-02  0.9039705E-01
         -1   -1    0    0    0  501 -0.00000000000E+00  0.00000000000E+00  0.60379923695E+03  0.60379923695E+03  0.00000000000E+00 0.  1.
          1   -1    0    0  501    0  0.00000000000E+00 -0.00000000000E+00 -0.68612124141E+03  0.68612124141E+03  0.00000000000E+00 0. -1.
         23    2    1    2    0    0 -0.34809492312E+03  0.80593476028E+02  0.49123862682E+03  0.61417113012E+03  0.90694016981E+02 0.  0.
         11    1    3    3    0    0 -0.28239547448E+03  0.65915569679E+02  0.44962741331E+03  0.53502979088E+03  0.00000000000E+00 0. -1.
        -11    1    3    3    0    0 -0.65699448645E+02  0.14677906349E+02  0.41611213505E+02  0.79141339239E+02  0.00000000000E+00 0.  1.
         22    1    1    2    0    0  0.34809492312E+03 -0.80593476028E+02 -0.57356063128E+03  0.67574934824E+03  0.00000000000E+00 0. -1.
<mgrwt>
<rscale>  0 0.12872909E+04</rscale>
<asrwt>0</asrwt>
<pdfrwt beam="1">  1        1 0.10555711E+00 0.12872909E+04</pdfrwt>
<pdfrwt beam="2">  1       -1 0.92892190E-01 0.12872909E+04</pdfrwt>
<totfact> 0.31115937E+01</totfact>
</mgrwt>
</event>
<event>
 6    1  0.2238133E-007  0.1741887E+04  0.7818608E-02  0.8737829E-01
          2   -1    0    0  501    0  0.00000000000E+00  0.00000000000E+00  0.55401734465E+03  0.55401734465E+03  0.00000000000E+00 0. -1.
         -2   -1    0    0    0  501 -0.00000000000E+00 -0.00000000000E+00 -0.13691674362E+04  0.13691674362E+04  0.00000000000E+00 0.  1.
         23    2    1    2    0    0 -0.66370450077E+03  0.50634150955E+03 -0.67367003827E+03  0.10764841289E+04  0.90007614253E+02 0.  0.
         11    1    3    3    0    0 -0.60040392567E+03  0.47732499436E+03 -0.59039076331E+03  0.96792834321E+03  0.00000000000E+00 0.  1.
        -11    1    3    3    0    0 -0.63300575100E+02  0.29016515184E+02 -0.83279274967E+02  0.10855578566E+03  0.00000000000E+00 0. -1.
         22    1    1    2    0    0  0.66370450077E+03 -0.50634150955E+03 -0.14148005331E+03  0.84670065201E+03  0.00000000000E+00 0. -1.
<mgrwt>
<rscale>  0 0.17418869E+04</rscale>
<asrwt>0</asrwt>
<pdfrwt beam="1">  1        2 0.85233439E-01 0.17418869E+04</pdfrwt>
<pdfrwt beam="2">  1       -2 0.21064114E+00 0.17418869E+04</pdfrwt>
<totfact> 0.58664871E+00</totfact>
</mgrwt>
</event>
<event>
 6    1  0.2238133E-007  0.1607528E+04  0.7818608E-02  0.8815937E-01
          2   -1    0    0  501    0  0.00000000000E+00  0.00000000000E+00  0.16196988236E+04  0.16196988236E+04  0.00000000000E+00 0. -1.
         -2   -1    0    0    0  501 -0.00000000000E+00 -0.00000000000E+00 -0.39886221391E+03  0.39886221391E+03  0.00000000000E+00 0.  1.
         23    2    1    2    0    0 -0.35897149750E+02  0.73197519475E+03  0.10190634364E+04  0.12584368999E+04  0.89982512832E+02 0.  0.
         13    1    3    3    0    0 -0.45071636919E+02  0.53630280715E+03  0.68445900098E+03  0.87071021439E+03  0.00000000000E+00 0.  1.
        -13    1    3    3    0    0  0.91744871695E+01  0.19567238760E+03  0.33460443540E+03  0.38772668554E+03  0.00000000000E+00 0. -1.
         22    1    1    2    0    0  0.35897149750E+02 -0.73197519475E+03  0.20177317332E+03  0.76012413760E+03  0.00000000000E+00 0.  1.
<mgrwt>
<rscale>  0 0.16075281E+04</rscale>
<asrwt>0</asrwt>
<pdfrwt beam="1">  1        2 0.24918443E+00 0.16075281E+04</pdfrwt>
<pdfrwt beam="2">  1       -2 0.61363419E-01 0.16075281E+04</pdfrwt>
<totfact> 0.25727230E+01</totfact>
</mgrwt>
</event>
<event>
 6    1  0.2238133E-007  0.1329532E+04  0.7818608E-02  0.9006468E-01
          2   -1    0    0  501    0  0.00000000000E+00  0.00000000000E+00  0.37779013480E+04  0.37779013480E+04  0.00000000000E+00 0. -1.
         -2   -1    0    0    0  501 -0.00000000000E+00 -0.00000000000E+00 -0.11697335178E+03  0.11697335178E+03  0.00000000000E+00 0.  1.
         23    2    1    2    0    0  0.40920660052E+03  0.15085887740E+03  0.32968208472E+04  0.33267352286E+04  0.89056946156E+02 0.  0.
         13    1    3    3    0    0  0.11168482209E+03  0.85132932476E+02  0.10444179520E+04  0.10538168598E+04  0.00000000000E+00 0. -1.
        -13    1    3    3    0    0  0.29752177843E+03  0.65725944925E+02  0.22524028952E+04  0.22729183687E+04  0.00000000000E+00 0.  1.
         22    1    1    2    0    0 -0.40920660052E+03 -0.15085887740E+03  0.36410714908E+03  0.56813947126E+03  0.00000000000E+00 0.  1.
<mgrwt>
<rscale>  0 0.13295319E+04</rscale>
<asrwt>0</asrwt>
<pdfrwt beam="1">  1        2 0.58121550E+00 0.13295319E+04</pdfrwt>
<pdfrwt beam="2">  1       -2 0.17995903E-01 0.13295319E+04</pdfrwt>
<totfact> 0.13172846E+01</totfact>
</mgrwt>
</event>
<event>
 6    1  0.2238133E-007  0.5210586E+04  0.7818608E-02  0.7796819E-01
          2   -1    0    0  501    0  0.00000000000E+00  0.00000000000E+00  0.28060992307E+04  0.28060992307E+04  0.00000000000E+00 0. -1.
         -2   -1    0    0    0  501 -0.00000000000E+00 -0.00000000000E+00 -0.24188563572E+04  0.24188563572E+04  0.00000000000E+00 0.  1.
         23    2    1    2    0    0  0.64506579255E+03  0.25025934411E+04 -0.13024576296E+03  0.25892624539E+04  0.90731958565E+02 0.  0.
         11    1    3    3    0    0  0.35539985079E+03  0.13220772998E+04 -0.11205567723E+03  0.13735916115E+04  0.00000000000E+00 0.  1.
        -11    1    3    3    0    0  0.28966594176E+03  0.11805161413E+04 -0.18190085727E+02  0.12156708423E+04  0.00000000000E+00 0. -1.
         22    1    1    2    0    0 -0.64506579255E+03 -0.25025934411E+04  0.51748863649E+03  0.26356931340E+04  0.00000000000E+00 0. -1.
<mgrwt>
<rscale>  0 0.52105857E+04</rscale>
<asrwt>0</asrwt>
<pdfrwt beam="1">  1        2 0.43170757E+00 0.52105857E+04</pdfrwt>
<pdfrwt beam="2">  1       -2 0.37213175E+00 0.52105857E+04</pdfrwt>
<totfact> 0.18471369E-02</totfact>
</mgrwt>
</event>
<event>
 6    1  0.2238133E-007  0.2607850E+04  0.7818608E-02  0.8365540E-01
         -2   -1    0    0    0  501 -0.00000000000E+00  0.00000000000E+00  0.62325552428E+03  0.62325552428E+03  0.00000000000E+00 0.  1.
          2   -1    0    0  501    0  0.00000000000E+00 -0.00000000000E+00 -0.27279670959E+04  0.27279670959E+04  0.00000000000E+00 0. -1.
         23    2    1    2    0    0 -0.26053306450E+03 -0.12185689796E+04 -0.15403759222E+04  0.19832816269E+04  0.88657735614E+02 0.  0.
         11    1    3    3    0    0 -0.18284928869E+03 -0.64826666358E+03 -0.84484568625E+03  0.10804849666E+04  0.00000000000E+00 0. -1.
        -11    1    3    3    0    0 -0.77683775807E+02 -0.57030231606E+03 -0.69553023597E+03  0.90279666032E+03  0.00000000000E+00 0.  1.
         22    1    1    2    0    0  0.26053306450E+03  0.12185689796E+04 -0.56433564938E+03  0.13679409932E+04  0.00000000000E+00 0. -1.
<mgrwt>
<rscale>  0 0.26078501E+04</rscale>
<asrwt>0</asrwt>
<pdfrwt beam="1">  1        2 0.41968724E+00 0.26078501E+04</pdfrwt>
<pdfrwt beam="2">  1       -2 0.95885467E-01 0.26078501E+04</pdfrwt>
<totfact> 0.20595454E+00</totfact>
</mgrwt>
</event>
<event>
 6    1  0.2238133E-007  0.1146647E+04  0.7818608E-02  0.9160882E-01
          2   -1    0    0  501    0  0.00000000000E+00  0.00000000000E+00  0.13208768228E+04  0.13208768228E+04  0.00000000000E+00 0. -1.
         -2   -1    0    0    0  501 -0.00000000000E+00 -0.00000000000E+00 -0.24884991959E+03  0.24884991959E+03  0.00000000000E+00 0.  1.
         23    2    1    2    0    0  0.12408144404E+03 -0.12024424622E+03  0.12827990216E+04  0.12971835910E+04  0.85188351984E+02 0.  0.
         13    1    3    3    0    0  0.48213645342E+02 -0.78831621360E+02  0.90083284129E+03  0.90555993068E+03  0.00000000000E+00 0. -1.
        -13    1    3    3    0    0  0.75867798702E+02 -0.41412624857E+02  0.38196618033E+03  0.39162366029E+03  0.00000000000E+00 0.  1.
         22    1    1    2    0    0 -0.12408144404E+03  0.12024424622E+03 -0.21077211839E+03  0.27254315144E+03  0.00000000000E+00 0.  1.
<mgrwt>
<rscale>  0 0.11466474E+04</rscale>
<asrwt>0</asrwt>
<pdfrwt beam="1">  1        2 0.20321182E+00 0.11466474E+04</pdfrwt>
<pdfrwt beam="2">  1       -2 0.38284604E-01 0.11466474E+04</pdfrwt>
<totfact> 0.10246063E+02</totfact>
</mgrwt>
</event>
<event>
 6    1  0.2238133E-007  0.1807210E+04  0.7818608E-02  0.8702475E-01
         -2   -1    0    0    0  501 -0.00000000000E+00  0.00000000000E+00  0.29425438747E+03  0.29425438747E+03  0.00000000000E+00 0.  1.
          2   -1    0    0  501    0  0.00000000000E+00 -0.00000000000E+00 -0.27748160817E+04  0.27748160817E+04  0.00000000000E+00 0. -1.
         23    2    1    2    0    0 -0.87771255364E+02  0.69064462016E+03 -0.27134070731E+03  0.75274770373E+03  0.91156686009E+02 0.  0.
         11    1    3    3    0    0 -0.85512866197E+02  0.51624167915E+03 -0.23935942735E+03  0.57542232928E+03  0.00000000000E+00 0. -1.
        -11    1    3    3    0    0 -0.22583891677E+01  0.17440294101E+03 -0.31981279958E+02  0.17732537445E+03  0.00000000000E+00 0.  1.
         22    1    1    2    0    0  0.87771255364E+02 -0.69064462016E+03 -0.22092209869E+04  0.23163227654E+04  0.00000000000E+00 0. -1.
<mgrwt>
<rscale>  0 0.18072098E+04</rscale>
<asrwt>0</asrwt>
<pdfrwt beam="1">  1        2 0.42689478E+00 0.18072098E+04</pdfrwt>
<pdfrwt beam="2">  1       -2 0.45269906E-01 0.18072098E+04</pdfrwt>
<totfact> 0.10481504E+01</totfact>
</mgrwt>
</event>
<event>
 6    1  0.2238133E-007  0.1206532E+04  0.7818608E-02  0.9107158E-01
          2   -1    0    0  501    0  0.00000000000E+00  0.00000000000E+00  0.13081836139E+04  0.13081836139E+04  0.00000000000E+00 0. -1.
         -2   -1    0    0    0  501 -0.00000000000E+00 -0.00000000000E+00 -0.27819477771E+03  0.27819477771E+03  0.00000000000E+00 0.  1.
         23    2    1    2    0    0  0.40174561020E+03  0.22515948350E+03  0.10232503560E+04  0.11257899252E+04  0.90913894006E+02 0.  0.
         13    1    3    3    0    0  0.85692460279E+02  0.29304576800E+02  0.28747021861E+03  0.30139854438E+03  0.00000000000E+00 0.  1.
        -13    1    3    3    0    0  0.31605314992E+03  0.19585490670E+03  0.73578013744E+03  0.82439138077E+03  0.00000000000E+00 0. -1.
         22    1    1    2    0    0 -0.40174561020E+03 -0.22515948350E+03  0.67384801543E+01  0.46058846646E+03  0.00000000000E+00 0.  1.
<mgrwt>
<rscale>  0 0.12065320E+04</rscale>
<asrwt>0</asrwt>
<pdfrwt beam="1">  1        2 0.20125901E+00 0.12065320E+04</pdfrwt>
<pdfrwt beam="2">  1       -2 0.42799197E-01 0.12065320E+04</pdfrwt>
<totfact> 0.83421494E+01</totfact>
</mgrwt>
</event>
<event>
 6    1  0.2238133E-007  0.3701786E+04  0.7818608E-02  0.8067566E-01
         -2   -1    0    0    0  501 -0.00000000000E+00  0.00000000000E+00  0.90010317696E+03  0.90010317696E+03  0.00000000000E+00 0.  1.
          2   -1    0    0  501    0  0.00000000000E+00 -0.00000000000E+00 -0.38060142014E+04  0.38060142014E+04  0.00000000000E+00 0. -1.
         23    2    1    2    0    0 -0.64007465991E+03  0.15424948029E+04 -0.24650118774E+04  0.29788716387E+04  0.91689130708E+02 0.  0.
         11    1    3    3    0    0 -0.38384011931E+03  0.87299598918E+03 -0.13341763587E+04  0.16399639601E+04  0.00000000000E+00 0. -1.
        -11    1    3    3    0    0 -0.25623454060E+03  0.66949881376E+03 -0.11308355187E+04  0.13389076786E+04  0.00000000000E+00 0.  1.
         22    1    1    2    0    0  0.64007465991E+03 -0.15424948029E+04 -0.44089914704E+03  0.17272457397E+04  0.00000000000E+00 0.  1.
<mgrwt>
<rscale>  0 0.37017863E+04</rscale>
<asrwt>0</asrwt>
<pdfrwt beam="1">  1        2 0.58554064E+00 0.37017863E+04</pdfrwt>
<pdfrwt beam="2">  1       -2 0.13847741E+00 0.37017863E+04</pdfrwt>
<totfact> 0.14477259E-01</totfact>
</mgrwt>
</event>
<event>
 6    1  0.2238133E-007  0.4951676E+04  0.7818608E-02  0.7836005E-01
          2   -1    0    0  501    0  0.00000000000E+00  0.00000000000E+00  0.19822650520E+04  0.19822650520E+04  0.00000000000E+00 0. -1.
         -2   -1    0    0    0  501 -0.00000000000E+00 -0.00000000000E+00 -0.30923079904E+04  0.30923079904E+04  0.00000000000E+00 0.  1.
         23    2    1    2    0    0 -0.18484111335E+04 -0.15739820037E+04 -0.10492931823E+04  0.26460480581E+04  0.80691244671E+02 0.  0.
         13    1    3    3    0    0 -0.47864181430E+03 -0.45241887755E+03 -0.27256112588E+03  0.71279056847E+03  0.00000000000E+00 0. -1.
        -13    1    3    3    0    0 -0.13697693192E+04 -0.11215631262E+04 -0.77673205644E+03  0.19332574897E+04  0.00000000000E+00 0.  1.
         22    1    1    2    0    0  0.18484111335E+04  0.15739820037E+04 -0.60749756045E+02  0.24285249843E+04  0.00000000000E+00 0. -1.
<mgrwt>
<rscale>  0 0.49516761E+04</rscale>
<asrwt>0</asrwt>
<pdfrwt beam="1">  1        2 0.30496385E+00 0.49516761E+04</pdfrwt>
<pdfrwt beam="2">  1       -2 0.47573969E+00 0.49516761E+04</pdfrwt>
<totfact> 0.11804266E-02</totfact>
</mgrwt>
</event>
<event>
 6    1  0.2238133E-007  0.2047663E+04  0.7818608E-02  0.8584655E-01
         -2   -1    0    0    0  501 -0.00000000000E+00  0.00000000000E+00  0.56576059656E+03  0.56576059656E+03  0.00000000000E+00 0.  1.
          2   -1    0    0  501    0  0.00000000000E+00 -0.00000000000E+00 -0.18527821481E+04  0.18527821481E+04  0.00000000000E+00 0. -1.
         23    2    1    2    0    0 -0.51188720723E+03  0.26967614919E+03 -0.16395707881E+04  0.17410143670E+04  0.90470540709E+02 0.  0.
         13    1    3    3    0    0 -0.15821646791E+03  0.10602419755E+03 -0.43200018737E+03  0.47212047517E+03  0.00000000000E+00 0. -1.
        -13    1    3    3    0    0 -0.35367073932E+03  0.16365195164E+03 -0.12075706007E+04  0.12688938918E+04  0.00000000000E+00 0.  1.
         22    1    1    2    0    0  0.51188720723E+03 -0.26967614919E+03  0.35254923651E+03  0.67752837766E+03  0.00000000000E+00 0.  1.
<mgrwt>
<rscale>  0 0.20476632E+04</rscale>
<asrwt>0</asrwt>
<pdfrwt beam="1">  1        2 0.28504341E+00 0.20476632E+04</pdfrwt>
<pdfrwt beam="2">  1       -2 0.87040092E-01 0.20476632E+04</pdfrwt>
<totfact> 0.85192710E+00</totfact>
</mgrwt>
</event>
<event>
 6    1  0.2238133E-007  0.2398033E+04  0.7818608E-02  0.8440240E-01
          2   -1    0    0  501    0  0.00000000000E+00  0.00000000000E+00  0.89526208944E+03  0.89526208944E+03  0.00000000000E+00 0. -1.
         -2   -1    0    0    0  501 -0.00000000000E+00 -0.00000000000E+00 -0.16058321849E+04  0.16058321849E+04  0.00000000000E+00 0.  1.
         23    2    1    2    0    0 -0.11207399035E+04  0.20710191190E+03 -0.73826887754E+03  0.13610432423E+04  0.91916476355E+02 0.  0.
         11    1    3    3    0    0 -0.65877164101E+03  0.14720241432E+03 -0.48127686522E+03  0.82902113772E+03  0.00000000000E+00 0. -1.
        -11    1    3    3    0    0 -0.46196826250E+03  0.59899497577E+02 -0.25699201231E+03  0.53202210458E+03  0.00000000000E+00 0.  1.
         22    1    1    2    0    0  0.11207399035E+04 -0.20710191190E+03  0.27698782022E+02  0.11400510321E+04  0.00000000000E+00 0. -1.
<mgrwt>
<rscale>  0 0.23980331E+04</rscale>
<asrwt>0</asrwt>
<pdfrwt beam="1">  1        2 0.13773263E+00 0.23980331E+04</pdfrwt>
<pdfrwt beam="2">  1       -2 0.24705110E+00 0.23980331E+04</pdfrwt>
<totfact> 0.17798946E+00</totfact>
</mgrwt>
</event>
<event>
 6    1  0.3249207E-007  0.2289640E+04  0.7818608E-02  0.8482017E-01
         -2   -1    0    0    0  501 -0.00000000000E+00  0.00000000000E+00  0.81822802669E+03  0.81822802669E+03  0.00000000000E+00 0.  1.
          2   -1    0    0  501    0  0.00000000000E+00 -0.00000000000E+00 -0.16017698677E+04  0.16017698677E+04  0.00000000000E+00 0. -1.
         23    2    1    2    0    0  0.34677090348E+03 -0.90710782840E+03  0.24452416902E+03  0.10057792434E+04  0.93301368479E+02 0.  0.
         13    1    3    3    0    0  0.12583714664E+03 -0.22711665266E+03  0.85107075883E+02  0.27324014302E+03  0.00000000000E+00 0.  1.
        -13    1    3    3    0    0  0.22093375683E+03 -0.67999117574E+03  0.15941709313E+03  0.73253910038E+03  0.00000000000E+00 0. -1.
         22    1    1    2    0    0 -0.34677090348E+03  0.90710782840E+03 -0.10280660101E+04  0.14142186510E+04  0.00000000000E+00 0. -1.
<mgrwt>
<rscale>  0 0.22896401E+04</rscale>
<asrwt>0</asrwt>
<pdfrwt beam="1">  1        2 0.24642613E+00 0.22896401E+04</pdfrwt>
<pdfrwt beam="2">  1       -2 0.12588123E+00 0.22896401E+04</pdfrwt>
<totfact> 0.47568006E+00</totfact>
</mgrwt>
</event>
<event>
 6    1  0.2238133E-007  0.3036278E+04  0.7818608E-02  0.8233447E-01
         -1   -1    0    0    0  501 -0.00000000000E+00  0.00000000000E+00  0.21681736176E+04  0.21681736176E+04  0.00000000000E+00 0.  1.
          1   -1    0    0  501    0  0.00000000000E+00 -0.00000000000E+00 -0.10629898005E+04  0.10629898005E+04  0.00000000000E+00 0. -1.
         23    2    1    2    0    0 -0.69679647998E+03 -0.14402578044E+03  0.19785833823E+04  0.21046220027E+04  0.91503080280E+02 0.  0.
         11    1    3    3    0    0 -0.22372085887E+03 -0.74319997697E+02  0.55942671029E+03  0.60706896555E+03  0.00000000000E+00 0.  1.
        -11    1    3    3    0    0 -0.47307562111E+03 -0.69705782747E+02  0.14191566720E+04  0.14975530372E+04  0.00000000000E+00 0. -1.
         22    1    1    2    0    0  0.69679647998E+03  0.14402578044E+03 -0.87339956523E+03  0.11265414153E+04  0.00000000000E+00 0. -1.
<mgrwt>
<rscale>  0 0.30362783E+04</rscale>
<asrwt>0</asrwt>
<pdfrwt beam="1">  1        1 0.16353689E+00 0.30362783E+04</pdfrwt>
<pdfrwt beam="2">  1       -1 0.33356517E+00 0.30362783E+04</pdfrwt>
<totfact> 0.22885240E-01</totfact>
</mgrwt>
</event>
<event>
 6    1  0.2238133E-007  0.4527188E+04  0.7818608E-02  0.7905894E-01
         -2   -1    0    0    0  501 -0.00000000000E+00  0.00000000000E+00  0.12328793119E+04  0.12328793119E+04  0.00000000000E+00 0.  1.
          2   -1    0    0  501    0  0.00000000000E+00 -0.00000000000E+00 -0.41560087551E+04  0.41560087551E+04  0.00000000000E+00 0. -1.
         23    2    1    2    0    0 -0.94099482314E+02 -0.35879881475E+03 -0.41190500215E+04  0.41367629408E+04  0.92969063876E+02 0.  0.
         13    1    3    3    0    0 -0.54640250791E+02 -0.29874310903E+03 -0.35956924170E+04  0.36084951102E+04  0.00000000000E+00 0. -1.
        -13    1    3    3    0    0 -0.39459231523E+02 -0.60055705721E+02 -0.52335760443E+03  0.52826783061E+03  0.00000000000E+00 0.  1.
         22    1    1    2    0    0  0.94099482314E+02  0.35879881475E+03  0.11959205783E+04  0.12521251262E+04  0.00000000000E+00 0.  1.
<mgrwt>
<rscale>  0 0.45271877E+04</rscale>
<asrwt>0</asrwt>
<pdfrwt beam="1">  1        2 0.63938597E+00 0.45271877E+04</pdfrwt>
<pdfrwt beam="2">  1       -2 0.18967374E+00 0.45271877E+04</pdfrwt>
<totfact> 0.29725459E-02</totfact>
</mgrwt>
</event>
<event>
 6    1  0.2238133E-007  0.2953700E+04  0.7818608E-02  0.8257077E-01
         -2   -1    0    0    0  501 -0.00000000000E+00  0.00000000000E+00  0.12437356261E+04  0.12437356261E+04  0.00000000000E+00 0.  1.
          2   -1    0    0  501    0  0.00000000000E+00 -0.00000000000E+00 -0.17536568962E+04  0.17536568962E+04  0.00000000000E+00 0. -1.
         23    2    1    2    0    0 -0.13388154186E+04 -0.10578156229E+03 -0.87535188700E+03  0.16055750057E+04  0.89519320420E+02 0.  0.
         11    1    3    3    0    0 -0.27753897060E+03 -0.51826747537E+02 -0.20913796574E+03  0.35135819426E+03  0.00000000000E+00 0.  1.
        -11    1    3    3    0    0 -0.10612764480E+04 -0.53954814749E+02 -0.66621392127E+03  0.12542168114E+04  0.00000000000E+00 0. -1.
         22    1    1    2    0    0  0.13388154186E+04  0.10578156229E+03  0.36543061683E+03  0.13918175167E+04  0.00000000000E+00 0.  1.
<mgrwt>
<rscale>  0 0.29536998E+04</rscale>
<asrwt>0</asrwt>
<pdfrwt beam="1">  1        2 0.26979337E+00 0.29536998E+04</pdfrwt>
<pdfrwt beam="2">  1       -2 0.19134394E+00 0.29536998E+04</pdfrwt>
<totfact> 0.11945381E+00</totfact>
</mgrwt>
</event>
<event>
 6    1  0.2238133E-007  0.2220536E+04  0.7818608E-02  0.8509929E-01
          2   -1    0    0  501    0  0.00000000000E+00  0.00000000000E+00  0.23958072170E+04  0.23958072170E+04  0.00000000000E+00 0. -1.
         -2   -1    0    0    0  501 -0.00000000000E+00 -0.00000000000E+00 -0.51452183304E+03  0.51452183304E+03  0.00000000000E+00 0.  1.
         23    2    1    2    0    0  0.10089020479E+04  0.43069268095E+03  0.11449651209E+04  0.15891375206E+04  0.10504000992E+03 0.  0.
         13    1    3    3    0    0  0.56724153242E+03  0.29210776835E+03  0.62873399507E+03  0.89576578468E+03  0.00000000000E+00 0. -1.
        -13    1    3    3    0    0  0.44166051547E+03  0.13858491259E+03  0.51623112584E+03  0.69337173594E+03  0.00000000000E+00 0.  1.
         22    1    1    2    0    0 -0.10089020479E+04 -0.43069268095E+03  0.73632026309E+03  0.13211915294E+04  0.00000000000E+00 0. -1.
<mgrwt>
<rscale>  0 0.22205361E+04</rscale>
<asrwt>0</asrwt>
<pdfrwt beam="1">  1        2 0.36858572E+00 0.22205361E+04</pdfrwt>
<pdfrwt beam="2">  1       -2 0.79157206E-01 0.22205361E+04</pdfrwt>
<totfact> 0.51636305E+00</totfact>
</mgrwt>
</event>
<event>
 6    1  0.2238133E-007  0.2841678E+04  0.7818608E-02  0.8290445E-01
          2   -1    0    0  501    0  0.00000000000E+00  0.00000000000E+00  0.30975956223E+04  0.30975956223E+04  0.00000000000E+00 0. -1.
         -2   -1    0    0    0  501 -0.00000000000E+00 -0.00000000000E+00 -0.65172596017E+03  0.65172596017E+03  0.00000000000E+00 0.  1.
         23    2    1    2    0    0 -0.85982530549E+03  0.90293725704E+03  0.32990506794E+03  0.12933286244E+04  0.96261782588E+02 0.  0.
         11    1    3    3    0    0 -0.53731087349E+03  0.59707125965E+03  0.25370896081E+03  0.84235699123E+03  0.00000000000E+00 0. -1.
        -11    1    3    3    0    0 -0.32251443199E+03  0.30586599739E+03  0.76196107132E+02  0.45097163319E+03  0.00000000000E+00 0.  1.
         22    1    1    2    0    0  0.85982530549E+03 -0.90293725704E+03  0.21159645941E+04  0.24559929580E+04  0.00000000000E+00 0. -1.
<mgrwt>
<rscale>  0 0.28416780E+04</rscale>
<asrwt>0</asrwt>
<pdfrwt beam="1">  1        2 0.47655316E+00 0.28416780E+04</pdfrwt>
<pdfrwt beam="2">  1       -2 0.10026553E+00 0.28416780E+04</pdfrwt>
<totfact> 0.10744763E+00</totfact>
</mgrwt>
</event>
<event>
 6    1  0.2238133E-007  0.3481303E+04  0.7818608E-02  0.8118235E-01
         -2   -1    0    0    0  501 -0.00000000000E+00  0.00000000000E+00  0.11461831319E+04  0.11461831319E+04  0.00000000000E+00 0.  1.
          2   -1    0    0  501    0  0.00000000000E+00 -0.00000000000E+00 -0.26434412510E+04  0.26434412510E+04  0.00000000000E+00 0. -1.
         23    2    1    2    0    0 -0.34582770856E+03 -0.10952224349E+04 -0.21712989805E+04  0.24579186839E+04  0.87840811781E+02 0.  0.
         11    1    3    3    0    0 -0.19330417136E+03 -0.52128886317E+03 -0.11232431255E+04  0.12533091002E+04  0.00000000000E+00 0. -1.
        -11    1    3    3    0    0 -0.15252353720E+03 -0.57393357170E+03 -0.10480558550E+04  0.12046095837E+04  0.00000000000E+00 0.  1.
         22    1    1    2    0    0  0.34582770856E+03  0.10952224349E+04  0.67404086143E+03  0.13317056990E+04  0.00000000000E+00 0.  1.
<mgrwt>
<rscale>  0 0.34813031E+04</rscale>
<asrwt>0</asrwt>
<pdfrwt beam="1">  1        2 0.40668327E+00 0.34813031E+04</pdfrwt>
<pdfrwt beam="2">  1       -2 0.17633587E+00 0.34813031E+04</pdfrwt>
<totfact> 0.45389066E-01</totfact>
</mgrwt>
</event>
<event>
 6    1  0.2238133E-007  0.2386043E+04  0.7818608E-02  0.8444747E-01
          2   -1    0    0  501    0  0.00000000000E+00  0.00000000000E+00  0.24477377891E+04  0.24477377891E+04  0.00000000000E+00 0. -1.
         -2   -1    0    0    0  501 -0.00000000000E+00 -0.00000000000E+00 -0.58147593682E+03  0.58147593682E+03  0.00000000000E+00 0.  1.
         23    2    1    2    0    0 -0.83303705150E+03  0.72659893281E+03  0.14984114000E+04  0.18642198660E+04  0.90455773354E+02 0.  0.
         13    1    3    3    0    0 -0.56808090278E+03  0.54094932027E+03  0.10984735053E+04  0.13498096610E+04  0.00000000000E+00 0. -1.
        -13    1    3    3    0    0 -0.26495614872E+03  0.18564961254E+03  0.39993789473E+03  0.51441020502E+03  0.00000000000E+00 0.  1.
         22    1    1    2    0    0  0.83303705150E+03 -0.72659893281E+03  0.36785045229E+03  0.11649938599E+04  0.00000000000E+00 0.  1.
<mgrwt>
<rscale>  0 0.23860433E+04</rscale>
<asrwt>0</asrwt>
<pdfrwt beam="1">  1        2 0.37657504E+00 0.23860433E+04</pdfrwt>
<pdfrwt beam="2">  1       -2 0.89457838E-01 0.23860433E+04</pdfrwt>
<totfact> 0.36000635E+00</totfact>
</mgrwt>
</event>
<event>
 6    1  0.2238133E-007  0.1421274E+04  0.7818608E-02  0.8938562E-01
          2   -1    0    0  501    0  0.00000000000E+00  0.00000000000E+00  0.58333389331E+03  0.58333389331E+03  0.00000000000E+00 0. -1.
         -2   -1    0    0    0  501 -0.00000000000E+00 -0.00000000000E+00 -0.86572212855E+03  0.86572212855E+03  0.00000000000E+00 0.  1.
         23    2    1    2    0    0 -0.52523786072E+03  0.47389299265E+03 -0.16329430441E+03  0.73167694273E+03  0.90756486571E+02 0.  0.
         13    1    3    3    0    0 -0.21223392923E+03  0.19196534685E+03 -0.11201746134E+03  0.30731392216E+03  0.00000000000E+00 0. -1.
        -13    1    3    3    0    0 -0.31300393149E+03  0.28192764580E+03 -0.51276843073E+02  0.42436302057E+03  0.00000000000E+00 0.  1.
         22    1    1    2    0    0  0.52523786072E+03 -0.47389299265E+03 -0.11909393083E+03  0.71737907913E+03  0.00000000000E+00 0.  1.
<mgrwt>
<rscale>  0 0.14212742E+04</rscale>
<asrwt>0</asrwt>
<pdfrwt beam="1">  1        2 0.89743676E-01 0.14212742E+04</pdfrwt>
<pdfrwt beam="2">  1       -2 0.13318802E+00 0.14212742E+04</pdfrwt>
<totfact> 0.20353636E+01</totfact>
</mgrwt>
</event>
<event>
 6    1  0.2238133E-007  0.1575087E+04  0.7818608E-02  0.8836001E-01
         -2   -1    0    0    0  501 -0.00000000000E+00  0.00000000000E+00  0.71787982587E+03  0.71787982587E+03  0.00000000000E+00 0.  1.
          2   -1    0    0  501    0  0.00000000000E+00 -0.00000000000E+00 -0.86396781922E+03  0.86396781922E+03  0.00000000000E+00 0. -1.
         23    2    1    2    0    0  0.77419312394E+03  0.12918557545E+03 -0.76822545363E+02  0.79389992578E+03  0.91167333041E+02 0.  0.
         11    1    3    3    0    0  0.17293908282E+03 -0.89557540411E+01 -0.21635398562E+02  0.17451711196E+03  0.00000000000E+00 0.  1.
        -11    1    3    3    0    0  0.60125404113E+03  0.13814132950E+03 -0.55187146801E+02  0.61938281382E+03  0.00000000000E+00 0. -1.
         22    1    1    2    0    0 -0.77419312394E+03 -0.12918557545E+03 -0.69265447987E+02  0.78794771930E+03  0.00000000000E+00 0. -1.
<mgrwt>
<rscale>  0 0.15750874E+04</rscale>
<asrwt>0</asrwt>
<pdfrwt beam="1">  1        2 0.13291813E+00 0.15750874E+04</pdfrwt>
<pdfrwt beam="2">  1       -2 0.11044305E+00 0.15750874E+04</pdfrwt>
<totfact> 0.19403067E+01</totfact>
</mgrwt>
</event>
<event>
 6    1  0.2238133E-007  0.8700924E+03  0.7818608E-02  0.9463759E-01
         -2   -1    0    0    0  501 -0.00000000000E+00  0.00000000000E+00  0.14924786230E+03  0.14924786230E+03  0.00000000000E+00 0.  1.
          2   -1    0    0  501    0  0.00000000000E+00 -0.00000000000E+00 -0.12681267120E+04  0.12681267120E+04  0.00000000000E+00 0. -1.
         23    2    1    2    0    0  0.27281509899E+03 -0.26445214358E+03 -0.89478822806E+03  0.97626277307E+03  0.89888901020E+02 0.  0.
         11    1    3    3    0    0  0.43757763437E+02 -0.38473035431E+02 -0.70893253870E+02  0.91764752278E+02  0.00000000000E+00 0. -1.
        -11    1    3    3    0    0  0.22905733556E+03 -0.22597910815E+03 -0.82389497419E+03  0.88449802079E+03  0.00000000000E+00 0.  1.
         22    1    1    2    0    0 -0.27281509899E+03  0.26445214358E+03 -0.22409062165E+03  0.44111180124E+03  0.00000000000E+00 0.  1.
<mgrwt>
<rscale>  0 0.87009241E+03</rscale>
<asrwt>0</asrwt>
<pdfrwt beam="1">  1        2 0.19509642E+00 0.87009241E+03</pdfrwt>
<pdfrwt beam="2">  1       -2 0.22961210E-01 0.87009241E+03</pdfrwt>
<totfact> 0.28935343E+02</totfact>
</mgrwt>
</event>
<event>
 6    1  0.2238133E-007  0.2882675E+04  0.7818608E-02  0.8278051E-01
          2   -1    0    0  501    0  0.00000000000E+00  0.00000000000E+00  0.25727149967E+04  0.25727149967E+04  0.00000000000E+00 0. -1.
         -2   -1    0    0    0  501 -0.00000000000E+00 -0.00000000000E+00 -0.80749478140E+03  0.80749478140E+03  0.00000000000E+00 0.  1.
         23    2    1    2    0    0 -0.10809209347E+04  0.61337063647E+03  0.17362047989E+04  0.21370462735E+04  0.89140712178E+02 0.  0.
         11    1    3    3    0    0 -0.51739307646E+03  0.34374203299E+03  0.84988595490E+03  0.10526919384E+04  0.00000000000E+00 0.  1.
        -11    1    3    3    0    0 -0.56352785827E+03  0.26962860348E+03  0.88631884402E+03  0.10843543351E+04  0.00000000000E+00 0. -1.
         22    1    1    2    0    0  0.10809209347E+04 -0.61337063647E+03  0.29015416418E+02  0.12431635046E+04  0.00000000000E+00 0.  1.
<mgrwt>
<rscale>  0 0.28826751E+04</rscale>
<asrwt>0</asrwt>
<pdfrwt beam="1">  1        2 0.39580230E+00 0.28826751E+04</pdfrwt>
<pdfrwt beam="2">  1       -2 0.12422997E+00 0.28826751E+04</pdfrwt>
<totfact> 0.13285866E+00</totfact>
</mgrwt>
</event>
<event>
 6    1  0.2238133E-007  0.2839442E+04  0.7818608E-02  0.8291127E-01
         -2   -1    0    0    0  501 -0.00000000000E+00  0.00000000000E+00  0.15377811884E+04  0.15377811884E+04  0.00000000000E+00 0.  1.
          2   -1    0    0  501    0  0.00000000000E+00 -0.00000000000E+00 -0.13107244324E+04  0.13107244324E+04  0.00000000000E+00 0. -1.
         23    2    1    2    0    0 -0.10990164094E+04 -0.14144624848E+03  0.10017545346E+04  0.14964698381E+04  0.89809350402E+02 0.  0.
         11    1    3    3    0    0 -0.99630758648E+03 -0.13979705414E+03  0.87518760363E+03  0.13334636721E+04  0.00000000000E+00 0. -1.
        -11    1    3    3    0    0 -0.10270882296E+03 -0.16491943492E+01  0.12656693093E+03  0.16300616602E+03  0.00000000000E+00 0.  1.
         22    1    1    2    0    0  0.10990164094E+04  0.14144624848E+03 -0.77469777855E+03  0.13520357826E+04  0.00000000000E+00 0. -1.
<mgrwt>
<rscale>  0 0.28394418E+04</rscale>
<asrwt>0</asrwt>
<pdfrwt beam="1">  1        2 0.20164991E+00 0.28394418E+04</pdfrwt>
<pdfrwt beam="2">  1       -2 0.23658172E+00 0.28394418E+04</pdfrwt>
<totfact> 0.10993779E+00</totfact>
</mgrwt>
</event>
<event>
 6    1  0.2238133E-007  0.1585146E+04  0.7818608E-02  0.8829726E-01
          2   -1    0    0  501    0  0.00000000000E+00  0.00000000000E+00  0.19409364219E+04  0.19409364219E+04  0.00000000000E+00 0. -1.
         -2   -1    0    0    0  501 -0.00000000000E+00 -0.00000000000E+00 -0.32364385074E+03  0.32364385074E+03  0.00000000000E+00 0.  1.
         23    2    1    2    0    0  0.35077167212E+03 -0.15826423908E+03 -0.17638100312E+03  0.43009036359E+03  0.76020571312E+02 0.  0.
         11    1    3    3    0    0  0.11262737075E+03 -0.66084781670E+02 -0.97020061205E+02  0.16268071578E+03  0.00000000000E+00 0.  1.
        -11    1    3    3    0    0  0.23814430137E+03 -0.92179457410E+02 -0.79360941917E+02  0.26740964781E+03  0.00000000000E+00 0. -1.
         22    1    1    2    0    0 -0.35077167212E+03  0.15826423908E+03  0.17936735743E+04  0.18344899091E+04  0.00000000000E+00 0. -1.
<mgrwt>
<rscale>  0 0.15851462E+04</rscale>
<asrwt>0</asrwt>
<pdfrwt beam="1">  1        2 0.29860560E+00 0.15851462E+04</pdfrwt>
<pdfrwt beam="2">  1       -2 0.49791363E-01 0.15851462E+04</pdfrwt>
<totfact> 0.26407429E+01</totfact>
</mgrwt>
</event>
<event>
 6    1  0.2238133E-007  0.1427484E+04  0.7818608E-02  0.8934161E-01
          2   -1    0    0  501    0  0.00000000000E+00  0.00000000000E+00  0.13318437696E+04  0.13318437696E+04  0.00000000000E+00 0. -1.
         -2   -1    0    0    0  501 -0.00000000000E+00 -0.00000000000E+00 -0.38249810726E+03  0.38249810726E+03  0.00000000000E+00 0.  1.
         23    2    1    2    0    0  0.66663546889E+03  0.47514685192E+02  0.18959706869E+03  0.70247310115E+03  0.10421571711E+03 0.  0.
         13    1    3    3    0    0  0.97058378949E+02  0.16337051156E+02  0.66868744044E+02  0.11899015545E+03  0.00000000000E+00 0.  1.
        -13    1    3    3    0    0  0.56957708995E+03  0.31177634037E+02  0.12272832464E+03  0.58348294570E+03  0.00000000000E+00 0. -1.
         22    1    1    2    0    0 -0.66663546889E+03 -0.47514685192E+02  0.75974859365E+03  0.10118687757E+04  0.00000000000E+00 0. -1.
<mgrwt>
<rscale>  0 0.14274841E+04</rscale>
<asrwt>0</asrwt>
<pdfrwt beam="1">  1        2 0.20489904E+00 0.14274841E+04</pdfrwt>
<pdfrwt beam="2">  1       -2 0.58845863E-01 0.14274841E+04</pdfrwt>
<totfact> 0.41518085E+01</totfact>
</mgrwt>
</event>
<event>
 6    1  0.2238133E-007  0.1317393E+04  0.7818608E-02  0.9015885E-01
         -2   -1    0    0    0  501 -0.00000000000E+00  0.00000000000E+00  0.78549808447E+03  0.78549808447E+03  0.00000000000E+00 0.  1.
          2   -1    0    0  501    0  0.00000000000E+00 -0.00000000000E+00 -0.55236389478E+03  0.55236389478E+03  0.00000000000E+00 0. -1.
         23    2    1    2    0    0  0.41741915682E+03  0.37495502178E+03 -0.22682189552E+03  0.61233484595E+03  0.93143815922E+02 0.  0.
         13    1    3    3    0    0  0.15444931527E+03  0.83839751565E+02 -0.55890772634E+02  0.18441115312E+03  0.00000000000E+00 0.  1.
        -13    1    3    3    0    0  0.26296984155E+03  0.29111527022E+03 -0.17093112288E+03  0.42792369283E+03  0.00000000000E+00 0. -1.
         22    1    1    2    0    0 -0.41741915682E+03 -0.37495502178E+03  0.45995608520E+03  0.72552713330E+03  0.00000000000E+00 0.  1.
<mgrwt>
<rscale>  0 0.13173925E+04</rscale>
<asrwt>0</asrwt>
<pdfrwt beam="1">  1        2 0.84979061E-01 0.13173925E+04</pdfrwt>
<pdfrwt beam="2">  1       -2 0.12084586E+00 0.13173925E+04</pdfrwt>
<totfact> 0.27972043E+01</totfact>
</mgrwt>
</event>
<event>
 6    1  0.2238133E-007  0.5150824E+04  0.7818608E-02  0.7805653E-01
          1   -1    0    0  501    0  0.00000000000E+00  0.00000000000E+00  0.24544002286E+04  0.24544002286E+04  0.00000000000E+00 0. -1.
         -1   -1    0    0    0  501 -0.00000000000E+00 -0.00000000000E+00 -0.27023897771E+04  0.27023897771E+04  0.00000000000E+00 0.  1.
         23    2    1    2    0    0  0.13072581741E+04  0.12311383158E+04 -0.19712393651E+04  0.26679719293E+04  0.87544816083E+02 0.  0.
         11    1    3    3    0    0  0.10943914664E+04  0.10731797902E+04 -0.16832901238E+04  0.22765924503E+04  0.00000000000E+00 0.  1.
        -11    1    3    3    0    0  0.21286670773E+03  0.15795852566E+03 -0.28794924129E+03  0.39137947909E+03  0.00000000000E+00 0. -1.
         22    1    1    2    0    0 -0.13072581741E+04 -0.12311383158E+04  0.17232498166E+04  0.24888180763E+04  0.00000000000E+00 0. -1.
<mgrwt>
<rscale>  0 0.51508237E+04</rscale>
<asrwt>0</asrwt>
<pdfrwt beam="1">  1        1 0.37760004E+00 0.51508237E+04</pdfrwt>
<pdfrwt beam="2">  1       -1 0.41575227E+00 0.51508237E+04</pdfrwt>
<totfact> 0.58032874E-03</totfact>
</mgrwt>
</event>
<event>
 6    1  0.2238133E-007  0.3706067E+04  0.7818608E-02  0.8066619E-01
          2   -1    0    0  501    0  0.00000000000E+00  0.00000000000E+00  0.30870866313E+04  0.30870866313E+04  0.00000000000E+00 0. -1.
         -2   -1    0    0    0  501 -0.00000000000E+00 -0.00000000000E+00 -0.11122891348E+04  0.11122891348E+04  0.00000000000E+00 0.  1.
         23    2    1    2    0    0  0.88296649260E+03  0.88353802799E+03  0.25372175966E+04  0.28294904997E+04  0.90961978420E+02 0.  0.
         13    1    3    3    0    0  0.38044138561E+03  0.32098257164E+03  0.97684126318E+03  0.10963504516E+04  0.00000000000E+00 0.  1.
        -13    1    3    3    0    0  0.50252510699E+03  0.56255545635E+03  0.15603763334E+04  0.17331400482E+04  0.00000000000E+00 0. -1.
         22    1    1    2    0    0 -0.88296649260E+03 -0.88353802799E+03 -0.56242010016E+03  0.13698852664E+04  0.00000000000E+00 0.  1.
<mgrwt>
<rscale>  0 0.37060669E+04</rscale>
<asrwt>0</asrwt>
<pdfrwt beam="1">  1        2 0.47493640E+00 0.37060669E+04</pdfrwt>
<pdfrwt beam="2">  1       -2 0.17112141E+00 0.37060669E+04</pdfrwt>
<totfact> 0.25910653E-01</totfact>
</mgrwt>
</event>
<event>
 6    1  0.2238133E-007  0.1150186E+04  0.7818608E-02  0.9157612E-01
         -2   -1    0    0    0  501 -0.00000000000E+00  0.00000000000E+00  0.69210138198E+03  0.69210138198E+03  0.00000000000E+00 0.  1.
          2   -1    0    0  501    0  0.00000000000E+00 -0.00000000000E+00 -0.47786596349E+03  0.47786596349E+03  0.00000000000E+00 0. -1.
         23    2    1    2    0    0  0.64352752738E+02 -0.13085705017E+03 -0.45626674724E+03  0.48379098430E+03  0.67893501087E+02 0.  0.
         13    1    3    3    0    0  0.22727074960E+02 -0.14260387797E+02 -0.16703526755E+03  0.16917641444E+03  0.00000000000E+00 0.  1.
        -13    1    3    3    0    0  0.41625677777E+02 -0.11659666237E+03 -0.28923147969E+03  0.31461456987E+03  0.00000000000E+00 0. -1.
         22    1    1    2    0    0 -0.64352752738E+02  0.13085705017E+03  0.67050216573E+03  0.68617636116E+03  0.00000000000E+00 0.  1.
<mgrwt>
<rscale>  0 0.11501855E+04</rscale>
<asrwt>0</asrwt>
<pdfrwt beam="1">  1        2 0.73517840E-01 0.11501855E+04</pdfrwt>
<pdfrwt beam="2">  1       -2 0.10647714E+00 0.11501855E+04</pdfrwt>
<totfact> 0.45666776E+01</totfact>
</mgrwt>
</event>
<event>
 6    1  0.2238133E-007  0.1015409E+04  0.7818608E-02  0.9291805E-01
          2   -1    0    0  501    0  0.00000000000E+00  0.00000000000E+00  0.28927214285E+04  0.28927214285E+04  0.00000000000E+00 0. -1.
         -2   -1    0    0    0  501 -0.00000000000E+00 -0.00000000000E+00 -0.89107654895E+02  0.89107654895E+02  0.00000000000E+00 0.  1.
         23    2    1    2    0    0 -0.48824156424E+03  0.10458163093E+03  0.12195304205E+04  0.13209145124E+04  0.90794052403E+02 0.  0.
         11    1    3    3    0    0 -0.20830917781E+03  0.25574805010E+02  0.61983300912E+03  0.65440029295E+03  0.00000000000E+00 0. -1.
        -11    1    3    3    0    0 -0.27993238644E+03  0.79006825922E+02  0.59969741142E+03  0.66651421949E+03  0.00000000000E+00 0.  1.
         22    1    1    2    0    0  0.48824156424E+03 -0.10458163093E+03  0.15840833531E+04  0.16609145710E+04  0.00000000000E+00 0.  1.
<mgrwt>
<rscale>  0 0.10154085E+04</rscale>
<asrwt>0</asrwt>
<pdfrwt beam="1">  1        2 0.44503399E+00 0.10154085E+04</pdfrwt>
<pdfrwt beam="2">  1       -2 0.13708872E-01 0.10154085E+04</pdfrwt>
<totfact> 0.84484236E+01</totfact>
</mgrwt>
</event>
<event>
 6    1  0.2238133E-007  0.1763754E+04  0.7818608E-02  0.8725816E-01
         -2   -1    0    0    0  501 -0.00000000000E+00  0.00000000000E+00  0.82584250926E+03  0.82584250926E+03  0.00000000000E+00 0.  1.
          2   -1    0    0  501    0  0.00000000000E+00 -0.00000000000E+00 -0.94171326768E+03  0.94171326768E+03  0.00000000000E+00 0. -1.
         23    2    1    2    0    0  0.35633871040E+02  0.81956023567E+03  0.25987792566E+03  0.86526102119E+03  0.90506054469E+02 0.  0.
         13    1    3    3    0    0  0.65759673878E+02  0.55772962482E+03  0.18482453245E+03  0.59122481079E+03  0.00000000000E+00 0. -1.
        -13    1    3    3    0    0 -0.30125802839E+02  0.26183061085E+03  0.75053393217E+02  0.27403621040E+03  0.00000000000E+00 0.  1.
         22    1    1    2    0    0 -0.35633871040E+02 -0.81956023567E+03 -0.37574868408E+03  0.90229475574E+03  0.00000000000E+00 0.  1.
<mgrwt>
<rscale>  0 0.17637538E+04</rscale>
<asrwt>0</asrwt>
<pdfrwt beam="1">  1        2 0.14487896E+00 0.17637538E+04</pdfrwt>
<pdfrwt beam="2">  1       -2 0.12705269E+00 0.17637538E+04</pdfrwt>
<totfact> 0.11979994E+01</totfact>
</mgrwt>
</event>
<event>
 6    1  0.2238133E-007  0.7035390E+03  0.7818608E-02  0.9711199E-01
         -2   -1    0    0    0  501 -0.00000000000E+00  0.00000000000E+00  0.20243738475E+03  0.20243738475E+03  0.00000000000E+00 0.  1.
          2   -1    0    0  501    0  0.00000000000E+00 -0.00000000000E+00 -0.61125945694E+03  0.61125945694E+03  0.00000000000E+00 0. -1.
         23    2    1    2    0    0 -0.28055096528E+03  0.18112418555E+03 -0.10363076718E+03  0.36130702376E+03  0.91041829958E+02 0.  0.
         13    1    3    3    0    0 -0.16310091424E+03  0.67487964582E+02 -0.19753307545E+02  0.17761398241E+03  0.00000000000E+00 0.  1.
        -13    1    3    3    0    0 -0.11745005103E+03  0.11363622096E+03 -0.83877459631E+02  0.18369304134E+03  0.00000000000E+00 0. -1.
         22    1    1    2    0    0  0.28055096528E+03 -0.18112418555E+03 -0.30519130502E+03  0.45238981793E+03  0.00000000000E+00 0. -1.
<mgrwt>
<rscale>  0 0.70353896E+03</rscale>
<asrwt>0</asrwt>
<pdfrwt beam="1">  1        2 0.94039914E-01 0.70353896E+03</pdfrwt>
<pdfrwt beam="2">  1       -2 0.31144214E-01 0.70353896E+03</pdfrwt>
<totfact> 0.46642269E+02</totfact>
</mgrwt>
</event>
<event>
 6    1  0.2238133E-007  0.2835474E+04  0.7818608E-02  0.8292339E-01
          2   -1    0    0  501    0  0.00000000000E+00  0.00000000000E+00  0.15659414515E+04  0.15659414515E+04  0.00000000000E+00 0. -1.
         -2   -1    0    0    0  501 -0.00000000000E+00 -0.00000000000E+00 -0.12835592143E+04  0.12835592143E+04  0.00000000000E+00 0.  1.
         23    2    1    2    0    0 -0.89164280740E+03  0.88312323415E+02 -0.96086451606E+03  0.13170227860E+04  0.91991511819E+02 0.  0.
         11    1    3    3    0    0 -0.19899197738E+03 -0.17413472342E+02 -0.22721229573E+03  0.30253340875E+03  0.00000000000E+00 0. -1.
        -11    1    3    3    0    0 -0.69265083002E+03  0.10572579576E+03 -0.73365222033E+03  0.10144893773E+04  0.00000000000E+00 0.  1.
         22    1    1    2    0    0  0.89164280740E+03 -0.88312323415E+02  0.12432467532E+04  0.15324778798E+04  0.00000000000E+00 0. -1.
<mgrwt>
<rscale>  0 0.28354743E+04</rscale>
<asrwt>0</asrwt>
<pdfrwt beam="1">  1        2 0.24091407E+00 0.28354743E+04</pdfrwt>
<pdfrwt beam="2">  1       -2 0.19747065E+00 0.28354743E+04</pdfrwt>
<totfact> 0.13975234E+00</totfact>
</mgrwt>
</event>
<event>
 6    1  0.2238133E-007  0.2135934E+04  0.7818608E-02  0.8545577E-01
          2   -1    0    0  501    0  0.00000000000E+00  0.00000000000E+00  0.97909153905E+03  0.97909153905E+03  0.00000000000E+00 0. -1.
         -2   -1    0    0    0  501 -0.00000000000E+00 -0.00000000000E+00 -0.11649094583E+04  0.11649094583E+04  0.00000000000E+00 0.  1.
         23    2    1    2    0    0 -0.26670167534E+03 -0.70206923811E+02 -0.11263321106E+04  0.11638858307E+04  0.99736692766E+02 0.  0.
         13    1    3    3    0    0 -0.20203165717E+03 -0.83218295056E+02 -0.96814850407E+03  0.99249866552E+03  0.00000000000E+00 0. -1.
        -13    1    3    3    0    0 -0.64670018165E+02  0.13011371246E+02 -0.15818360652E+03  0.17138716522E+03  0.00000000000E+00 0.  1.
         22    1    1    2    0    0  0.26670167534E+03  0.70206923811E+02  0.94051419131E+03  0.98011516662E+03  0.00000000000E+00 0. -1.
<mgrwt>
<rscale>  0 0.21359335E+04</rscale>
<asrwt>0</asrwt>
<pdfrwt beam="1">  1        2 0.15062947E+00 0.21359335E+04</pdfrwt>
<pdfrwt beam="2">  1       -2 0.17921684E+00 0.21359335E+04</pdfrwt>
<totfact> 0.43828175E+00</totfact>
</mgrwt>
</event>
<event>
 6    1  0.2238133E-007  0.5345265E+04  0.7818608E-02  0.7777347E-01
          2   -1    0    0  501    0  0.00000000000E+00  0.00000000000E+00  0.24889734582E+04  0.24889734582E+04  0.00000000000E+00 0. -1.
         -2   -1    0    0    0  501 -0.00000000000E+00 -0.00000000000E+00 -0.28698436568E+04  0.28698436568E+04  0.00000000000E+00 0.  1.
         23    2    1    2    0    0 -0.78665349064E+03  0.25575427678E+03  0.23565498048E+04  0.24991489105E+04  0.90467288190E+02 0.  0.
         13    1    3    3    0    0 -0.46127796905E+03  0.17193410589E+03  0.12807862827E+04  0.13721341784E+04  0.00000000000E+00 0.  1.
        -13    1    3    3    0    0 -0.32537552159E+03  0.83820170892E+02  0.10757635221E+04  0.11270147321E+04  0.00000000000E+00 0. -1.
         22    1    1    2    0    0  0.78665349064E+03 -0.25575427678E+03 -0.27374200034E+04  0.28596682044E+04  0.00000000000E+00 0.  1.
<mgrwt>
<rscale>  0 0.53452651E+04</rscale>
<asrwt>0</asrwt>
<pdfrwt beam="1">  1        2 0.38291899E+00 0.53452651E+04</pdfrwt>
<pdfrwt beam="2">  1       -2 0.44151441E+00 0.53452651E+04</pdfrwt>
<totfact> 0.99148020E-03</totfact>
</mgrwt>
</event>
<event>
 6    1  0.2238133E-007  0.3613933E+04  0.7818608E-02  0.8087308E-01
         -2   -1    0    0    0  501 -0.00000000000E+00  0.00000000000E+00  0.19999203428E+04  0.19999203428E+04  0.00000000000E+00 0.  1.
          2   -1    0    0  501    0  0.00000000000E+00 -0.00000000000E+00 -0.16326289912E+04  0.16326289912E+04  0.00000000000E+00 0. -1.
         23    2    1    2    0    0 -0.96617253574E+03 -0.24973167518E+03  0.16965247510E+04  0.19704071294E+04  0.91938819016E+02 0.  0.
         13    1    3    3    0    0 -0.62365829911E+03 -0.20614120436E+03  0.11046198385E+04  0.12851571335E+04  0.00000000000E+00 0. -1.
        -13    1    3    3    0    0 -0.34251423662E+03 -0.43590470814E+02  0.59190491249E+03  0.68524999589E+03  0.00000000000E+00 0.  1.
         22    1    1    2    0    0  0.96617253574E+03  0.24973167518E+03 -0.13292333993E+04  0.16621422046E+04  0.00000000000E+00 0. -1.
<mgrwt>
<rscale>  0 0.36139330E+04</rscale>
<asrwt>0</asrwt>
<pdfrwt beam="1">  1        2 0.25117369E+00 0.36139330E+04</pdfrwt>
<pdfrwt beam="2">  1       -2 0.30768005E+00 0.36139330E+04</pdfrwt>
<totfact> 0.24821371E-01</totfact>
</mgrwt>
</event>
<event>
 6    1  0.2238133E-007  0.1181077E+04  0.7818608E-02  0.9129583E-01
          1   -1    0    0  501    0  0.00000000000E+00  0.00000000000E+00  0.22071155438E+04  0.22071155438E+04  0.00000000000E+00 0. -1.
         -1   -1    0    0    0  501 -0.00000000000E+00 -0.00000000000E+00 -0.15800525420E+03  0.15800525420E+03  0.00000000000E+00 0.  1.
         23    2    1    2    0    0 -0.30779161598E+03  0.28300634305E+02  0.20299084058E+04  0.20554349619E+04  0.93531502659E+02 0.  0.
         13    1    3    3    0    0 -0.12337929942E+03 -0.27736270513E+02  0.96158107849E+03  0.96986077492E+03  0.00000000000E+00 0. -1.
        -13    1    3    3    0    0 -0.18441231656E+03  0.56036904818E+02  0.10683273273E+04  0.10855741870E+04  0.00000000000E+00 0.  1.
         22    1    1    2    0    0  0.30779161598E+03 -0.28300634305E+02  0.19201883885E+02  0.30968583615E+03  0.00000000000E+00 0.  1.
<mgrwt>
<rscale>  0 0.11810772E+04</rscale>
<asrwt>0</asrwt>
<pdfrwt beam="1">  1        1 0.33955621E+00 0.11810772E+04</pdfrwt>
<pdfrwt beam="2">  1       -1 0.24308502E-01 0.11810772E+04</pdfrwt>
<totfact> 0.31496532E+01</totfact>
</mgrwt>
</event>
<event>
 6    1  0.2238133E-007  0.1134674E+04  0.7818608E-02  0.9172040E-01
          2   -1    0    0  501    0  0.00000000000E+00  0.00000000000E+00  0.11841653761E+04  0.11841653761E+04  0.00000000000E+00 0. -1.
         -2   -1    0    0    0  501 -0.00000000000E+00 -0.00000000000E+00 -0.27181289764E+03  0.27181289764E+03  0.00000000000E+00 0.  1.
         23    2    1    2    0    0  0.50219986998E+03 -0.25348785841E+03  0.50093575514E+03  0.75903887608E+03  0.93501769292E+02 0.  0.
         13    1    3    3    0    0  0.34655252992E+03 -0.15531657278E+03  0.38904718333E+03  0.54367233204E+03  0.00000000000E+00 0. -1.
        -13    1    3    3    0    0  0.15564734006E+03 -0.98171285633E+02  0.11188857181E+03  0.21536654404E+03  0.00000000000E+00 0.  1.
         22    1    1    2    0    0 -0.50219986998E+03  0.25348785841E+03  0.41141672331E+03  0.69693939764E+03  0.00000000000E+00 0.  1.
<mgrwt>
<rscale>  0 0.11346743E+04</rscale>
<asrwt>0</asrwt>
<pdfrwt beam="1">  1        2 0.18217928E+00 0.11346743E+04</pdfrwt>
<pdfrwt beam="2">  1       -2 0.41817370E-01 0.11346743E+04</pdfrwt>
<totfact> 0.10387645E+02</totfact>
</mgrwt>
</event>
<event>
 6    1  0.2238133E-007  0.1444043E+04  0.7818608E-02  0.8922541E-01
         -2   -1    0    0    0  501 -0.00000000000E+00  0.00000000000E+00  0.60036922078E+03  0.60036922078E+03  0.00000000000E+00 0.  1.
          2   -1    0    0  501    0  0.00000000000E+00 -0.00000000000E+00 -0.86832377037E+03  0.86832377037E+03  0.00000000000E+00 0. -1.
         23    2    1    2    0    0 -0.19587347034E+03  0.48566478260E+03 -0.63574386658E+03  0.82876668356E+03  0.91908946537E+02 0.  0.
         11    1    3    3    0    0 -0.56374131650E+02  0.25806879739E+03 -0.33555875120E+03  0.42705646279E+03  0.00000000000E+00 0. -1.
        -11    1    3    3    0    0 -0.13949933869E+03  0.22759598522E+03 -0.30018511538E+03  0.40171022077E+03  0.00000000000E+00 0.  1.
         22    1    1    2    0    0  0.19587347034E+03 -0.48566478260E+03  0.36778931699E+03  0.63992630758E+03  0.00000000000E+00 0.  1.
<mgrwt>
<rscale>  0 0.14440427E+04</rscale>
<asrwt>0</asrwt>
<pdfrwt beam="1">  1        2 0.13358827E+00 0.14440427E+04</pdfrwt>
<pdfrwt beam="2">  1       -2 0.92364496E-01 0.14440427E+04</pdfrwt>
<totfact> 0.29767879E+01</totfact>
</mgrwt>
</event>
<event>
 6    1  0.2238133E-007  0.3831860E+04  0.7818608E-02  0.8039352E-01
          2   -1    0    0  501    0  0.00000000000E+00  0.00000000000E+00  0.19846510041E+04  0.19846510041E+04  0.00000000000E+00 0. -1.
         -2   -1    0    0    0  501 -0.00000000000E+00 -0.00000000000E+00 -0.18495889841E+04  0.18495889841E+04  0.00000000000E+00 0.  1.
         23    2    1    2    0    0  0.18880174597E+04  0.22727355362E+03  0.29226260891E+03  0.19261060250E+04  0.90574777926E+02 0.  0.
         11    1    3    3    0    0  0.14023639774E+04  0.20797466737E+03  0.21071252084E+03  0.14332752540E+04  0.00000000000E+00 0.  1.
        -11    1    3    3    0    0  0.48565348236E+03  0.19298886249E+02  0.81550088075E+02  0.49283077096E+03  0.00000000000E+00 0. -1.
         22    1    1    2    0    0 -0.18880174597E+04 -0.22727355362E+03 -0.15720058896E+03  0.19081339632E+04  0.00000000000E+00 0. -1.
<mgrwt>
<rscale>  0 0.38318605E+04</rscale>
<asrwt>0</asrwt>
<pdfrwt beam="1">  1        2 0.30533092E+00 0.38318605E+04</pdfrwt>
<pdfrwt beam="2">  1       -2 0.28455215E+00 0.38318605E+04</pdfrwt>
<totfact> 0.21527527E-01</totfact>
</mgrwt>
</event>
<event>
 6    1  0.2238133E-007  0.2587591E+04  0.7818608E-02  0.8372428E-01
          2   -1    0    0  501    0  0.00000000000E+00  0.00000000000E+00  0.16973687363E+04  0.16973687363E+04  0.00000000000E+00 0. -1.
         -2   -1    0    0    0  501 -0.00000000000E+00 -0.00000000000E+00 -0.98617776826E+03  0.98617776826E+03  0.00000000000E+00 0.  1.
         23    2    1    2    0    0  0.93498997378E+03  0.74494959457E+03 -0.15309135527E+03  0.12083719102E+04  0.87003222591E+02 0.  0.
         13    1    3    3    0    0  0.73077491344E+03  0.62343402786E+03 -0.13556465202E+03  0.97009264304E+03  0.00000000000E+00 0. -1.
        -13    1    3    3    0    0  0.20421506034E+03  0.12151556671E+03 -0.17526703250E+02  0.23827926714E+03  0.00000000000E+00 0.  1.
         22    1    1    2    0    0 -0.93498997378E+03 -0.74494959457E+03  0.86428232334E+03  0.14751745944E+04  0.00000000000E+00 0. -1.
<mgrwt>
<rscale>  0 0.25875914E+04</rscale>
<asrwt>0</asrwt>
<pdfrwt beam="1">  1        2 0.26113365E+00 0.25875914E+04</pdfrwt>
<pdfrwt beam="2">  1       -2 0.15171966E+00 0.25875914E+04</pdfrwt>
<totfact> 0.25330632E+00</totfact>
</mgrwt>
</event>
<event>
 6    1  0.2238133E-007  0.3134435E+04  0.7818608E-02  0.8206351E-01
         -2   -1    0    0    0  501 -0.00000000000E+00  0.00000000000E+00  0.26821725931E+04  0.26821725931E+04  0.00000000000E+00 0.  1.
          2   -1    0    0  501    0  0.00000000000E+00 -0.00000000000E+00 -0.91573924647E+03  0.91573924647E+03  0.00000000000E+00 0. -1.
         23    2    1    2    0    0 -0.96844638933E+03 -0.12792127993E+02  0.22964244160E+04  0.24938545126E+04  0.87710797167E+02 0.  0.
         11    1    3    3    0    0 -0.34742181609E+03  0.36455309199E+02  0.80147733149E+03  0.87429790161E+03  0.00000000000E+00 0. -1.
        -11    1    3    3    0    0 -0.62102457324E+03 -0.49247437192E+02  0.14949470845E+04  0.16195566110E+04  0.00000000000E+00 0.  1.
         22    1    1    2    0    0  0.96844638933E+03  0.12792127993E+02 -0.52999106942E+03  0.11040573270E+04  0.00000000000E+00 0. -1.
<mgrwt>
<rscale>  0 0.31344350E+04</rscale>
<asrwt>0</asrwt>
<pdfrwt beam="1">  1        2 0.14088296E+00 0.31344350E+04</pdfrwt>
<pdfrwt beam="2">  1       -2 0.41264194E+00 0.31344350E+04</pdfrwt>
<totfact> 0.14838330E-01</totfact>
</mgrwt>
</event>
<event>
 6    1  0.2238133E-007  0.2313140E+04  0.7818608E-02  0.8472758E-01
          2   -1    0    0  501    0  0.00000000000E+00  0.00000000000E+00  0.22449473790E+04  0.22449473790E+04  0.00000000000E+00 0. -1.
         -2   -1    0    0    0  501 -0.00000000000E+00 -0.00000000000E+00 -0.59585103122E+03  0.59585103122E+03  0.00000000000E+00 0.  1.
         23    2    1    2    0    0  0.11402742556E+04  0.10076571051E+03  0.64304145814E+03  0.13168149630E+04  0.10059932189E+03 0.  0.
         13    1    3    3    0    0  0.26074046163E+03  0.41844461237E+02  0.19290212236E+03  0.32702870834E+03  0.00000000000E+00 0.  1.
        -13    1    3    3    0    0  0.87953379397E+03  0.58921249275E+02  0.45013933579E+03  0.98978625469E+03  0.00000000000E+00 0. -1.
         22    1    1    2    0    0 -0.11402742556E+04 -0.10076571051E+03  0.10060548897E+04  0.15239834472E+04  0.00000000000E+00 0. -1.
<mgrwt>
<rscale>  0 0.23131400E+04</rscale>
<asrwt>0</asrwt>
<pdfrwt beam="1">  1        2 0.34537651E+00 0.23131400E+04</pdfrwt>
<pdfrwt beam="2">  1       -2 0.91669391E-01 0.23131400E+04</pdfrwt>
<totfact> 0.44672796E+00</totfact>
</mgrwt>
</event>
<event>
 6    1  0.2238133E-007  0.2544736E+04  0.7818608E-02  0.8387219E-01
          2   -1    0    0  501    0  0.00000000000E+00  0.00000000000E+00  0.16676081080E+04  0.16676081080E+04  0.00000000000E+00 0. -1.
         -2   -1    0    0    0  501 -0.00000000000E+00 -0.00000000000E+00 -0.97080359686E+03  0.97080359686E+03  0.00000000000E+00 0.  1.
         23    2    1    2    0    0 -0.68957690563E+02 -0.43351252459E+03 -0.88747563552E+03  0.99444337938E+03  0.92824345312E+02 0.  0.
         11    1    3    3    0    0 -0.26944568148E+02 -0.21619363827E+02 -0.63078098524E+02  0.71918378446E+02  0.00000000000E+00 0.  1.
        -11    1    3    3    0    0 -0.42013122415E+02 -0.41189316076E+03 -0.82439753700E+03  0.92252500093E+03  0.00000000000E+00 0. -1.
         22    1    1    2    0    0  0.68957690563E+02  0.43351252459E+03  0.15842801466E+04  0.16439683255E+04  0.00000000000E+00 0. -1.
<mgrwt>
<rscale>  0 0.25447357E+04</rscale>
<asrwt>0</asrwt>
<pdfrwt beam="1">  1        2 0.25655509E+00 0.25447357E+04</pdfrwt>
<pdfrwt beam="2">  1       -2 0.14935440E+00 0.25447357E+04</pdfrwt>
<totfact> 0.27535428E+00</totfact>
</mgrwt>
</event>
<event>
 6    1  0.2238133E-007  0.1669076E+04  0.7818608E-02  0.8779200E-01
         -2   -1    0    0    0  501 -0.00000000000E+00  0.00000000000E+00  0.20776279427E+03  0.20776279427E+03  0.00000000000E+00 0.  1.
          2   -1    0    0  501    0  0.00000000000E+00 -0.00000000000E+00 -0.33521589843E+04  0.33521589843E+04  0.00000000000E+00 0. -1.
         23    2    1    2    0    0  0.74831032000E+03 -0.17761346820E+03 -0.22539155771E+04  0.23832864905E+04  0.91674358268E+02 0.  0.
         13    1    3    3    0    0  0.44120462202E+03 -0.14616748519E+03 -0.14143937460E+04  0.14888035871E+04  0.00000000000E+00 0.  1.
        -13    1    3    3    0    0  0.30710569798E+03 -0.31445983015E+02 -0.83952183111E+03  0.89448290341E+03  0.00000000000E+00 0. -1.
         22    1    1    2    0    0 -0.74831032000E+03  0.17761346820E+03 -0.89048061289E+03  0.11766352880E+04  0.00000000000E+00 0.  1.
<mgrwt>
<rscale>  0 0.16690763E+04</rscale>
<asrwt>0</asrwt>
<pdfrwt beam="1">  1        2 0.51571679E+00 0.16690763E+04</pdfrwt>
<pdfrwt beam="2">  1       -2 0.31963506E-01 0.16690763E+04</pdfrwt>
<totfact> 0.90006136E+00</totfact>
</mgrwt>
</event>
<event>
 6    1  0.3222913E-007  0.4398300E+04  0.7818608E-02  0.7928687E-01
          2   -1    0    0  501    0  0.00000000000E+00  0.00000000000E+00  0.21059606052E+04  0.21059606052E+04  0.00000000000E+00 0. -1.
         -2   -1    0    0    0  501 -0.00000000000E+00 -0.00000000000E+00 -0.22964627485E+04  0.22964627485E+04  0.00000000000E+00 0.  1.
         23    2    1    2    0    0 -0.31461295257E+03  0.10008375268E+04  0.18381494633E+04  0.21185484872E+04  0.93793275342E+02 0.  0.
         13    1    3    3    0    0 -0.73329630466E+02  0.35324158783E+03  0.57851203304E+03  0.68178664291E+03  0.00000000000E+00 0. -1.
        -13    1    3    3    0    0 -0.24128332210E+03  0.64759593899E+03  0.12596374302E+04  0.14367618443E+04  0.00000000000E+00 0.  1.
         22    1    1    2    0    0  0.31461295257E+03 -0.10008375268E+04 -0.20286516065E+04  0.22838748665E+04  0.00000000000E+00 0.  1.
<mgrwt>
<rscale>  0 0.43982997E+04</rscale>
<asrwt>0</asrwt>
<pdfrwt beam="1">  1        2 0.32399394E+00 0.43982997E+04</pdfrwt>
<pdfrwt beam="2">  1       -2 0.35330196E+00 0.43982997E+04</pdfrwt>
<totfact> 0.66051193E-02</totfact>
</mgrwt>
</event>
<event>
 6    1  0.2238133E-007  0.2863068E+04  0.7818608E-02  0.8283952E-01
         -2   -1    0    0    0  501 -0.00000000000E+00  0.00000000000E+00  0.82667173563E+03  0.82667173563E+03  0.00000000000E+00 0.  1.
          2   -1    0    0  501    0  0.00000000000E+00 -0.00000000000E+00 -0.24789633767E+04  0.24789633767E+04  0.00000000000E+00 0. -1.
         23    2    1    2    0    0  0.96314344438E+02  0.13836909497E+04 -0.42520627591E+03  0.14537129783E+04  0.92757473515E+02 0.  0.
         13    1    3    3    0    0 -0.14621271293E+02  0.38939245961E+03 -0.11802738762E+03  0.40714952217E+03  0.00000000000E+00 0.  1.
        -13    1    3    3    0    0  0.11093561573E+03  0.99429849010E+03 -0.30717888829E+03  0.10465634561E+04  0.00000000000E+00 0. -1.
         22    1    1    2    0    0 -0.96314344438E+02 -0.13836909497E+04 -0.12270853652E+04  0.18519221341E+04  0.00000000000E+00 0. -1.
<mgrwt>
<rscale>  0 0.28630676E+04</rscale>
<asrwt>0</asrwt>
<pdfrwt beam="1">  1        2 0.38137898E+00 0.28630676E+04</pdfrwt>
<pdfrwt beam="2">  1       -2 0.12718027E+00 0.28630676E+04</pdfrwt>
<totfact> 0.14224597E+00</totfact>
</mgrwt>
</event>
<event>
 6    1  0.2238133E-007  0.3696640E+04  0.7818608E-02  0.8068707E-01
          2   -1    0    0  501    0  0.00000000000E+00  0.00000000000E+00  0.22858052061E+04  0.22858052061E+04  0.00000000000E+00 0. -1.
         -2   -1    0    0    0  501 -0.00000000000E+00 -0.00000000000E+00 -0.14945663011E+04  0.14945663011E+04  0.00000000000E+00 0.  1.
         23    2    1    2    0    0  0.16394274988E+04 -0.31927362231E+03 -0.41103727199E+03  0.17224292886E+04  0.90293108749E+02 0.  0.
         11    1    3    3    0    0  0.12503915783E+04 -0.27981469090E+03 -0.30071251826E+03  0.13161319762E+04  0.00000000000E+00 0. -1.
        -11    1    3    3    0    0  0.38903592050E+03 -0.39458931405E+02 -0.11032475373E+03  0.40629731231E+03  0.00000000000E+00 0.  1.
         22    1    1    2    0    0 -0.16394274988E+04  0.31927362231E+03  0.12022761769E+04  0.20579422186E+04  0.00000000000E+00 0.  1.
<mgrwt>
<rscale>  0 0.36966403E+04</rscale>
<asrwt>0</asrwt>
<pdfrwt beam="1">  1        2 0.35166234E+00 0.36966403E+04</pdfrwt>
<pdfrwt beam="2">  1       -2 0.22993328E+00 0.36966403E+04</pdfrwt>
<totfact> 0.31962257E-01</totfact>
</mgrwt>
</event>
<event>
 6    1  0.2238133E-007  0.2567029E+04  0.7818608E-02  0.8379488E-01
         -2   -1    0    0    0  501 -0.00000000000E+00  0.00000000000E+00  0.82927640367E+03  0.82927640367E+03  0.00000000000E+00 0.  1.
          2   -1    0    0  501    0  0.00000000000E+00 -0.00000000000E+00 -0.19865624269E+04  0.19865624269E+04  0.00000000000E+00 0. -1.
         23    2    1    2    0    0  0.14864459336E+03  0.29041428336E+03  0.78055854889E+03  0.85072375587E+03  0.89574491016E+02 0.  0.
         11    1    3    3    0    0  0.13956594036E+01  0.45733646519E+02  0.18003239878E+03  0.18575569681E+03  0.00000000000E+00 0. -1.
        -11    1    3    3    0    0  0.14724893395E+03  0.24468063684E+03  0.60052615011E+03  0.66496805905E+03  0.00000000000E+00 0.  1.
         22    1    1    2    0    0 -0.14864459336E+03 -0.29041428336E+03 -0.19378445721E+04  0.19651150747E+04  0.00000000000E+00 0. -1.
<mgrwt>
<rscale>  0 0.25670289E+04</rscale>
<asrwt>0</asrwt>
<pdfrwt beam="1">  1        2 0.30562499E+00 0.25670289E+04</pdfrwt>
<pdfrwt beam="2">  1       -2 0.12758099E+00 0.25670289E+04</pdfrwt>
<totfact> 0.27458547E+00</totfact>
</mgrwt>
</event>
<event>
 6    1  0.2238133E-007  0.1186541E+04  0.7818608E-02  0.9124719E-01
          1   -1    0    0  501    0  0.00000000000E+00  0.00000000000E+00  0.85718334209E+03  0.85718334209E+03  0.00000000000E+00 0. -1.
         -1   -1    0    0    0  501 -0.00000000000E+00 -0.00000000000E+00 -0.41061237011E+03  0.41061237011E+03  0.00000000000E+00 0.  1.
         23    2    1    2    0    0  0.56523829569E+03  0.14657961592E+03  0.31363087723E+03  0.66891927793E+03  0.90048645283E+02 0.  0.
         13    1    3    3    0    0  0.29193474817E+03  0.12204738385E+03  0.17035552223E+03  0.35936397294E+03  0.00000000000E+00 0. -1.
        -13    1    3    3    0    0  0.27330354752E+03  0.24532232075E+02  0.14327535501E+03  0.30955530500E+03  0.00000000000E+00 0.  1.
         22    1    1    2    0    0 -0.56523829569E+03 -0.14657961592E+03  0.13294009475E+03  0.59887643426E+03  0.00000000000E+00 0.  1.
<mgrwt>
<rscale>  0 0.11865413E+04</rscale>
<asrwt>0</asrwt>
<pdfrwt beam="1">  1        1 0.13187436E+00 0.11865413E+04</pdfrwt>
<pdfrwt beam="2">  1       -1 0.63171134E-01 0.11865413E+04</pdfrwt>
<totfact> 0.49735550E+01</totfact>
</mgrwt>
</event>
<event>
 6    1  0.2238133E-007  0.1040772E+04  0.7818608E-02  0.9264923E-01
          1   -1    0    0  501    0  0.00000000000E+00  0.00000000000E+00  0.26274577546E+04  0.26274577546E+04  0.00000000000E+00 0. -1.
         -1   -1    0    0    0  501 -0.00000000000E+00 -0.00000000000E+00 -0.10306605059E+03  0.10306605059E+03  0.00000000000E+00 0.  1.
         23    2    1    2    0    0  0.14606741573E+02  0.12218867534E+03  0.25875358664E+04  0.25922103405E+04  0.95232137734E+02 0.  0.
         11    1    3    3    0    0 -0.39219404513E+02  0.44629023697E+02  0.81548058381E+03  0.81764203294E+03  0.00000000000E+00 0. -1.
        -11    1    3    3    0    0  0.53826146087E+02  0.77559651641E+02  0.17720552826E+04  0.17745683075E+04  0.00000000000E+00 0.  1.
         22    1    1    2    0    0 -0.14606741573E+02 -0.12218867534E+03 -0.63144162391E+02  0.13831346473E+03  0.00000000000E+00 0.  1.
<mgrwt>
<rscale>  0 0.10407722E+04</rscale>
<asrwt>0</asrwt>
<pdfrwt beam="1">  1        1 0.40422422E+00 0.10407722E+04</pdfrwt>
<pdfrwt beam="2">  1       -1 0.15856318E-01 0.10407722E+04</pdfrwt>
<totfact> 0.33614280E+01</totfact>
</mgrwt>
</event>
<event>
 6    1  0.2238133E-007  0.2859303E+04  0.7818608E-02  0.8285090E-01
         -2   -1    0    0    0  501 -0.00000000000E+00  0.00000000000E+00  0.12570701630E+04  0.12570701630E+04  0.00000000000E+00 0.  1.
          2   -1    0    0  501    0  0.00000000000E+00 -0.00000000000E+00 -0.16259261297E+04  0.16259261297E+04  0.00000000000E+00 0. -1.
         23    2    1    2    0    0  0.61136471601E+03 -0.75528437154E+03  0.87061549985E+03  0.13080325426E+04  0.93576097572E+02 0.  0.
         11    1    3    3    0    0  0.51041662993E+03 -0.59873833997E+03  0.66075731400E+03  0.10274302720E+04  0.00000000000E+00 0. -1.
        -11    1    3    3    0    0  0.10094808608E+03 -0.15654603157E+03  0.20985818586E+03  0.28060227058E+03  0.00000000000E+00 0.  1.
         22    1    1    2    0    0 -0.61136471601E+03  0.75528437154E+03 -0.12394714665E+04  0.15749637501E+04  0.00000000000E+00 0. -1.
<mgrwt>
<rscale>  0 0.28593029E+04</rscale>
<asrwt>0</asrwt>
<pdfrwt beam="1">  1        2 0.25014248E+00 0.28593029E+04</pdfrwt>
<pdfrwt beam="2">  1       -2 0.19339541E+00 0.28593029E+04</pdfrwt>
<totfact> 0.13740138E+00</totfact>
</mgrwt>
</event>
<event>
 6    1  0.2238133E-007  0.4857497E+03  0.7818608E-02  0.1017567E+00
          2   -1    0    0  501    0  0.00000000000E+00  0.00000000000E+00  0.14656515711E+03  0.14656515711E+03  0.00000000000E+00 0. -1.
         -2   -1    0    0    0  501 -0.00000000000E+00 -0.00000000000E+00 -0.40247075095E+03  0.40247075095E+03  0.00000000000E+00 0.  1.
         23    2    1    2    0    0  0.10439283680E+02 -0.11091841950E+03  0.10067384098E+03  0.17545757924E+03  0.90764890931E+02 0.  0.
         11    1    3    3    0    0  0.14188552576E+02 -0.57984252643E+02  0.10648254658E+03  0.12207383547E+03  0.00000000000E+00 0. -1.
        -11    1    3    3    0    0 -0.37492688955E+01 -0.52934166855E+02 -0.58087056034E+01  0.53383743768E+02  0.00000000000E+00 0.  1.
         22    1    1    2    0    0 -0.10439283680E+02  0.11091841950E+03 -0.35657943482E+03  0.37357832882E+03  0.00000000000E+00 0.  1.
<mgrwt>
<rscale>  0 0.48574968E+03</rscale>
<asrwt>0</asrwt>
<pdfrwt beam="1">  1        2 0.22548486E-01 0.48574968E+03</pdfrwt>
<pdfrwt beam="2">  1       -2 0.61918576E-01 0.48574968E+03</pdfrwt>
<totfact> 0.60235475E+02</totfact>
</mgrwt>
</event>
<event>
 6    1  0.2238133E-007  0.2874012E+04  0.7818608E-02  0.8280652E-01
          2   -1    0    0  501    0  0.00000000000E+00  0.00000000000E+00  0.17664801102E+04  0.17664801102E+04  0.00000000000E+00 0. -1.
         -2   -1    0    0    0  501 -0.00000000000E+00 -0.00000000000E+00 -0.11689839802E+04  0.11689839802E+04  0.00000000000E+00 0.  1.
         23    2    1    2    0    0  0.12696007757E+04 -0.47638962145E+03  0.78012765679E+03  0.15671850707E+04  0.92933761344E+02 0.  0.
         13    1    3    3    0    0  0.17086301007E+03 -0.66690908304E+02  0.14347789804E+03  0.23286853090E+03  0.00000000000E+00 0.  1.
        -13    1    3    3    0    0  0.10987377656E+04 -0.40969871315E+03  0.63664975876E+03  0.13343165398E+04  0.00000000000E+00 0. -1.
         22    1    1    2    0    0 -0.12696007757E+04  0.47638962145E+03 -0.18263152675E+03  0.13682790197E+04  0.00000000000E+00 0.  1.
<mgrwt>
<rscale>  0 0.28740125E+04</rscale>
<asrwt>0</asrwt>
<pdfrwt beam="1">  1        2 0.27176617E+00 0.28740125E+04</pdfrwt>
<pdfrwt beam="2">  1       -2 0.17984369E+00 0.28740125E+04</pdfrwt>
<totfact> 0.14162449E+00</totfact>
</mgrwt>
</event>
<event>
 6    1  0.2238133E-007  0.1683750E+04  0.7818608E-02  0.8770687E-01
         -2   -1    0    0    0  501 -0.00000000000E+00  0.00000000000E+00  0.11005169720E+04  0.11005169720E+04  0.00000000000E+00 0.  1.
          2   -1    0    0  501    0  0.00000000000E+00 -0.00000000000E+00 -0.64401848133E+03  0.64401848133E+03  0.00000000000E+00 0. -1.
         23    2    1    2    0    0  0.47829157508E+03 -0.59924748709E+03  0.58287672104E+03  0.96746927940E+03  0.91603237278E+02 0.  0.
         13    1    3    3    0    0  0.43151734660E+03 -0.55083847065E+03  0.49662909955E+03  0.85806217938E+03  0.00000000000E+00 0. -1.
        -13    1    3    3    0    0  0.46774228485E+02 -0.48409016440E+02  0.86247621484E+02  0.10940710002E+03  0.00000000000E+00 0.  1.
         22    1    1    2    0    0 -0.47829157508E+03  0.59924748709E+03 -0.12637823035E+03  0.77706617394E+03  0.00000000000E+00 0.  1.
<mgrwt>
<rscale>  0 0.16837497E+04</rscale>
<asrwt>0</asrwt>
<pdfrwt beam="1">  1        2 0.99079766E-01 0.16837497E+04</pdfrwt>
<pdfrwt beam="2">  1       -2 0.16931030E+00 0.16837497E+04</pdfrwt>
<totfact> 0.93329917E+00</totfact>
</mgrwt>
</event>
<event>
 6    1  0.2238133E-007  0.3694293E+04  0.7818608E-02  0.8069228E-01
         -2   -1    0    0    0  501 -0.00000000000E+00  0.00000000000E+00  0.10855203972E+04  0.10855203972E+04  0.00000000000E+00 0.  1.
          2   -1    0    0  501    0  0.00000000000E+00 -0.00000000000E+00 -0.31431473092E+04  0.31431473092E+04  0.00000000000E+00 0. -1.
         23    2    1    2    0    0  0.36619329386E+03 -0.17501977661E+04 -0.15546179446E+04  0.23711672972E+04  0.91146303469E+02 0.  0.
         13    1    3    3    0    0  0.48970864622E+02 -0.14528262612E+03 -0.15772720194E+03  0.21996149042E+03  0.00000000000E+00 0. -1.
        -13    1    3    3    0    0  0.31722242924E+03 -0.16049151400E+04 -0.13968907427E+04  0.21512058068E+04  0.00000000000E+00 0.  1.
         22    1    1    2    0    0 -0.36619329386E+03  0.17501977661E+04 -0.50300896731E+03  0.18575004092E+04  0.00000000000E+00 0.  1.
<mgrwt>
<rscale>  0 0.36942932E+04</rscale>
<asrwt>0</asrwt>
<pdfrwt beam="1">  1        2 0.48356112E+00 0.36942932E+04</pdfrwt>
<pdfrwt beam="2">  1       -2 0.16700314E+00 0.36942932E+04</pdfrwt>
<totfact> 0.25544749E-01</totfact>
</mgrwt>
</event>
<event>
 6    1  0.2238133E-007  0.4722818E+04  0.7818608E-02  0.7872748E-01
         -2   -1    0    0    0  501 -0.00000000000E+00  0.00000000000E+00  0.21989348816E+04  0.21989348816E+04  0.00000000000E+00 0.  1.
          2   -1    0    0  501    0  0.00000000000E+00 -0.00000000000E+00 -0.25358880874E+04  0.25358880874E+04  0.00000000000E+00 0. -1.
         23    2    1    2    0    0  0.99815303944E+03  0.12318238255E+04 -0.19218252756E+04  0.24930560532E+04  0.90645835454E+02 0.  0.
         11    1    3    3    0    0  0.47423933696E+03  0.65413915485E+03 -0.99855986677E+03  0.12844932036E+04  0.00000000000E+00 0. -1.
        -11    1    3    3    0    0  0.52391370248E+03  0.57768467062E+03 -0.92326540883E+03  0.12085628496E+04  0.00000000000E+00 0.  1.
         22    1    1    2    0    0 -0.99815303944E+03 -0.12318238255E+04  0.15848720698E+04  0.22417669158E+04  0.00000000000E+00 0.  1.
<mgrwt>
<rscale>  0 0.47228181E+04</rscale>
<asrwt>0</asrwt>
<pdfrwt beam="1">  1        2 0.39013663E+00 0.47228181E+04</pdfrwt>
<pdfrwt beam="2">  1       -2 0.33829767E+00 0.47228181E+04</pdfrwt>
<totfact> 0.45500697E-02</totfact>
</mgrwt>
</event>
<event>
 6    1  0.2238133E-007  0.3387528E+04  0.7818608E-02  0.8140974E-01
         -2   -1    0    0    0  501 -0.00000000000E+00  0.00000000000E+00  0.79773683565E+03  0.79773683565E+03  0.00000000000E+00 0.  1.
          2   -1    0    0  501    0  0.00000000000E+00 -0.00000000000E+00 -0.35962182635E+04  0.35962182635E+04  0.00000000000E+00 0. -1.
         23    2    1    2    0    0 -0.64286477353E+03  0.98202431738E+03 -0.29819170631E+04  0.32059755079E+04  0.93822752332E+02 0.  0.
         13    1    3    3    0    0 -0.22407586472E+03  0.37109522305E+03 -0.98749474885E+03  0.10784560894E+04  0.00000000000E+00 0.  1.
        -13    1    3    3    0    0 -0.41878890880E+03  0.61092909432E+03 -0.19944223143E+04  0.21275194185E+04  0.00000000000E+00 0. -1.
         22    1    1    2    0    0  0.64286477353E+03 -0.98202431738E+03  0.18343563529E+03  0.11879795913E+04  0.00000000000E+00 0.  1.
<mgrwt>
<rscale>  0 0.33875276E+04</rscale>
<asrwt>0</asrwt>
<pdfrwt beam="1">  1        2 0.55326435E+00 0.33875276E+04</pdfrwt>
<pdfrwt beam="2">  1       -2 0.12272874E+00 0.33875276E+04</pdfrwt>
<totfact> 0.28875319E-01</totfact>
</mgrwt>
</event>
<event>
 6    1  0.2238133E-007  0.1579220E+04  0.7818608E-02  0.8833417E-01
          2   -1    0    0  501    0  0.00000000000E+00  0.00000000000E+00  0.49533377439E+03  0.49533377439E+03  0.00000000000E+00 0. -1.
         -2   -1    0    0    0  501 -0.00000000000E+00 -0.00000000000E+00 -0.12587140837E+04  0.12587140837E+04  0.00000000000E+00 0.  1.
         23    2    1    2    0    0 -0.88364773479E+02 -0.64396161836E+03  0.10976642050E+03  0.66552587352E+03  0.91548468878E+02 0.  0.
         11    1    3    3    0    0  0.83143780573E+01 -0.22993666165E+03  0.57495388184E+02  0.23716179480E+03  0.00000000000E+00 0.  1.
        -11    1    3    3    0    0 -0.96679151536E+02 -0.41402495671E+03  0.52271032315E+02  0.42836407872E+03  0.00000000000E+00 0. -1.
         22    1    1    2    0    0  0.88364773479E+02  0.64396161836E+03 -0.87314672980E+03  0.10885219846E+04  0.00000000000E+00 0.  1.
<mgrwt>
<rscale>  0 0.15792196E+04</rscale>
<asrwt>0</asrwt>
<pdfrwt beam="1">  1        2 0.76205197E-01 0.15792196E+04</pdfrwt>
<pdfrwt beam="2">  1       -2 0.19364832E+00 0.15792196E+04</pdfrwt>
<totfact> 0.87521176E+00</totfact>
</mgrwt>
</event>
<event>
 6    1  0.2238133E-007  0.2605622E+04  0.7818608E-02  0.8366294E-01
         -2   -1    0    0    0  501 -0.00000000000E+00  0.00000000000E+00  0.14104079083E+04  0.14104079083E+04  0.00000000000E+00 0.  1.
          2   -1    0    0  501    0  0.00000000000E+00 -0.00000000000E+00 -0.12034226862E+04  0.12034226862E+04  0.00000000000E+00 0. -1.
         23    2    1    2    0    0 -0.47560633204E+03  0.43312321350E+03 -0.10309640771E+04  0.12187264519E+04  0.92790814375E+02 0.  0.
         11    1    3    3    0    0 -0.52535332746E+02  0.69095295862E+02 -0.19649026371E+03  0.21480815820E+03  0.00000000000E+00 0. -1.
        -11    1    3    3    0    0 -0.42307099929E+03  0.36402791764E+03 -0.83447381336E+03  0.10039182937E+04  0.00000000000E+00 0.  1.
         22    1    1    2    0    0  0.47560633204E+03 -0.43312321350E+03  0.12379492992E+04  0.13951041425E+04  0.00000000000E+00 0.  1.
<mgrwt>
<rscale>  0 0.26056223E+04</rscale>
<asrwt>0</asrwt>
<pdfrwt beam="1">  1        2 0.18514195E+00 0.26056223E+04</pdfrwt>
<pdfrwt beam="2">  1       -2 0.21698583E+00 0.26056223E+04</pdfrwt>
<totfact> 0.17216007E+00</totfact>
</mgrwt>
</event>
<event>
 6    1  0.2238133E-007  0.3288512E+04  0.7818608E-02  0.8165825E-01
          2   -1    0    0  501    0  0.00000000000E+00  0.00000000000E+00  0.20724934305E+04  0.20724934305E+04  0.00000000000E+00 0. -1.
         -2   -1    0    0    0  501 -0.00000000000E+00 -0.00000000000E+00 -0.13045047249E+04  0.13045047249E+04  0.00000000000E+00 0.  1.
         23    2    1    2    0    0 -0.10858721963E+03  0.16125285514E+04  0.68764382892E+03  0.17588217705E+04  0.92522816066E+02 0.  0.
         13    1    3    3    0    0 -0.86854429559E+02  0.68124065654E+03  0.26960159699E+03  0.73777879148E+03  0.00000000000E+00 0. -1.
        -13    1    3    3    0    0 -0.21732790072E+02  0.93128789489E+03  0.41804223193E+03  0.10210429790E+04  0.00000000000E+00 0.  1.
         22    1    1    2    0    0  0.10858721963E+03 -0.16125285514E+04  0.80344876599E+02  0.16181763849E+04  0.00000000000E+00 0.  1.
<mgrwt>
<rscale>  0 0.32885118E+04</rscale>
<asrwt>0</asrwt>
<pdfrwt beam="1">  1        2 0.31884514E+00 0.32885118E+04</pdfrwt>
<pdfrwt beam="2">  1       -2 0.20069303E+00 0.32885118E+04</pdfrwt>
<totfact> 0.66983550E-01</totfact>
</mgrwt>
</event>
<event>
 6    1  0.2238133E-007  0.3207552E+04  0.7818608E-02  0.8186825E-01
          2   -1    0    0  501    0  0.00000000000E+00  0.00000000000E+00  0.15501959121E+04  0.15501959121E+04  0.00000000000E+00 0. -1.
         -2   -1    0    0    0  501 -0.00000000000E+00 -0.00000000000E+00 -0.16592084896E+04  0.16592084896E+04  0.00000000000E+00 0.  1.
         23    2    1    2    0    0 -0.91557128011E+03  0.29679563058E+03  0.12272694385E+04  0.15625868521E+04  0.95545698419E+02 0.  0.
         11    1    3    3    0    0 -0.24413006996E+03  0.88582215483E+02  0.26667377126E+03  0.37223809617E+03  0.00000000000E+00 0.  1.
        -11    1    3    3    0    0 -0.67144121015E+03  0.20821341510E+03  0.96059566720E+03  0.11903487559E+04  0.00000000000E+00 0. -1.
         22    1    1    2    0    0  0.91557128011E+03 -0.29679563058E+03 -0.13362820160E+04  0.16468175496E+04  0.00000000000E+00 0.  1.
<mgrwt>
<rscale>  0 0.32075525E+04</rscale>
<asrwt>0</asrwt>
<pdfrwt beam="1">  1        2 0.23849168E+00 0.32075525E+04</pdfrwt>
<pdfrwt beam="2">  1       -2 0.25526284E+00 0.32075525E+04</pdfrwt>
<totfact> 0.59701600E-01</totfact>
</mgrwt>
</event>
<event>
 6    1  0.2238133E-007  0.5003232E+04  0.7818608E-02  0.7828009E-01
         -2   -1    0    0    0  501 -0.00000000000E+00  0.00000000000E+00  0.23469535440E+04  0.23469535440E+04  0.00000000000E+00 0.  1.
          2   -1    0    0  501    0  0.00000000000E+00 -0.00000000000E+00 -0.26664707193E+04  0.26664707193E+04  0.00000000000E+00 0. -1.
         23    2    1    2    0    0  0.22935419269E+04  0.91378558361E+03  0.23913678822E+03  0.24821335028E+04  0.91987277902E+02 0.  0.
         11    1    3    3    0    0  0.81639876127E+03  0.37257638418E+03  0.81804351537E+02  0.90111711302E+03  0.00000000000E+00 0. -1.
        -11    1    3    3    0    0  0.14771431656E+04  0.54120919943E+03  0.15733243668E+03  0.15810163898E+04  0.00000000000E+00 0.  1.
         22    1    1    2    0    0 -0.22935419269E+04 -0.91378558361E+03 -0.55865396354E+03  0.25312907605E+04  0.00000000000E+00 0. -1.
<mgrwt>
<rscale>  0 0.50032321E+04</rscale>
<asrwt>0</asrwt>
<pdfrwt beam="1">  1        2 0.41022626E+00 0.50032321E+04</pdfrwt>
<pdfrwt beam="2">  1       -2 0.36106978E+00 0.50032321E+04</pdfrwt>
<totfact> 0.26791769E-02</totfact>
</mgrwt>
</event>
<event>
 6    1  0.2238133E-007  0.9528594E+03  0.7818608E-02  0.9361815E-01
          2   -1    0    0  501    0  0.00000000000E+00  0.00000000000E+00  0.19032893921E+04  0.19032893921E+04  0.00000000000E+00 0. -1.
         -2   -1    0    0    0  501 -0.00000000000E+00 -0.00000000000E+00 -0.11925946331E+03  0.11925946331E+03  0.00000000000E+00 0.  1.
         23    2    1    2    0    0  0.20790851371E+03  0.33994203350E+03  0.14373079788E+04  0.14943418441E+04  0.91743037221E+02 0.  0.
         11    1    3    3    0    0  0.15398470770E+03  0.20504074958E+03  0.77619163966E+03  0.81745119773E+03  0.00000000000E+00 0.  1.
        -11    1    3    3    0    0  0.53923806010E+02  0.13490128392E+03  0.66111633913E+03  0.67689064636E+03  0.00000000000E+00 0. -1.
         22    1    1    2    0    0 -0.20790851371E+03 -0.33994203350E+03  0.34672195004E+03  0.52820701136E+03  0.00000000000E+00 0.  1.
<mgrwt>
<rscale>  0 0.95285943E+03</rscale>
<asrwt>0</asrwt>
<pdfrwt beam="1">  1        2 0.29281373E+00 0.95285943E+03</pdfrwt>
<pdfrwt beam="2">  1       -2 0.18347611E-01 0.95285943E+03</pdfrwt>
<totfact> 0.18870290E+02</totfact>
</mgrwt>
</event>
<event>
 6    1  0.2238133E-007  0.2381145E+04  0.7818608E-02  0.8446596E-01
          2   -1    0    0  501    0  0.00000000000E+00  0.00000000000E+00  0.34640219923E+04  0.34640219923E+04  0.00000000000E+00 0. -1.
         -2   -1    0    0    0  501 -0.00000000000E+00 -0.00000000000E+00 -0.40919584572E+03  0.40919584572E+03  0.00000000000E+00 0.  1.
         23    2    1    2    0    0  0.11279529733E+04  0.30011746553E+03  0.18964011222E+04  0.22287431681E+04  0.92792726036E+02 0.  0.
         13    1    3    3    0    0  0.98899175199E+03  0.23490488601E+03  0.16756042108E+04  0.19598302126E+04  0.00000000000E+00 0. -1.
        -13    1    3    3    0    0  0.13896122126E+03  0.65212579528E+02  0.22079691149E+03  0.26891295556E+03  0.00000000000E+00 0.  1.
         22    1    1    2    0    0 -0.11279529733E+04 -0.30011746553E+03  0.11584250244E+04  0.16444746699E+04  0.00000000000E+00 0. -1.
<mgrwt>
<rscale>  0 0.23811454E+04</rscale>
<asrwt>0</asrwt>
<pdfrwt beam="1">  1        2 0.53292644E+00 0.23811454E+04</pdfrwt>
<pdfrwt beam="2">  1       -2 0.62953209E-01 0.23811454E+04</pdfrwt>
<totfact> 0.18174105E+00</totfact>
</mgrwt>
</event>
<event>
 6    1  0.2238133E-007  0.3838343E+04  0.7818608E-02  0.8037976E-01
         -2   -1    0    0    0  501 -0.00000000000E+00  0.00000000000E+00  0.28317360116E+04  0.28317360116E+04  0.00000000000E+00 0.  1.
          2   -1    0    0  501    0  0.00000000000E+00 -0.00000000000E+00 -0.13006929438E+04  0.13006929438E+04  0.00000000000E+00 0. -1.
         23    2    1    2    0    0 -0.42775886982E+03 -0.13811388631E+04 -0.59098903759E+03  0.15646395430E+04  0.91140809291E+02 0.  0.
         11    1    3    3    0    0 -0.24039562213E+03 -0.70019668971E+03 -0.34522732079E+03  0.81685210561E+03  0.00000000000E+00 0.  1.
        -11    1    3    3    0    0 -0.18736324768E+03 -0.68094217336E+03 -0.24576171680E+03  0.74778743737E+03  0.00000000000E+00 0. -1.
         22    1    1    2    0    0  0.42775886982E+03  0.13811388631E+04  0.21220321054E+04  0.25677894123E+04  0.00000000000E+00 0.  1.
<mgrwt>
<rscale>  0 0.38383429E+04</rscale>
<asrwt>0</asrwt>
<pdfrwt beam="1">  1        2 0.20010661E+00 0.38383429E+04</pdfrwt>
<pdfrwt beam="2">  1       -2 0.43565169E+00 0.38383429E+04</pdfrwt>
<totfact> 0.56991889E-02</totfact>
</mgrwt>
</event>
<event>
 6    1  0.2238133E-007  0.2461732E+04  0.7818608E-02  0.8416747E-01
          2   -1    0    0  501    0  0.00000000000E+00  0.00000000000E+00  0.24316960995E+04  0.24316960995E+04  0.00000000000E+00 0. -1.
         -2   -1    0    0    0  501 -0.00000000000E+00 -0.00000000000E+00 -0.62303481076E+03  0.62303481076E+03  0.00000000000E+00 0.  1.
         23    2    1    2    0    0  0.71668913596E+03  0.69442564701E+03  0.14909452861E+02  0.10020702112E+04  0.89733602989E+02 0.  0.
         11    1    3    3    0    0  0.34298579675E+03  0.27076030118E+03  0.11469046658E+02  0.43712919886E+03  0.00000000000E+00 0.  1.
        -11    1    3    3    0    0  0.37370333921E+03  0.42366534583E+03  0.34404062038E+01  0.56494101231E+03  0.00000000000E+00 0. -1.
         22    1    1    2    0    0 -0.71668913596E+03 -0.69442564701E+03  0.17937518358E+04  0.20526606990E+04  0.00000000000E+00 0. -1.
<mgrwt>
<rscale>  0 0.24617322E+04</rscale>
<asrwt>0</asrwt>
<pdfrwt beam="1">  1        2 0.37410709E+00 0.24617322E+04</pdfrwt>
<pdfrwt beam="2">  1       -2 0.95851511E-01 0.24617322E+04</pdfrwt>
<totfact> 0.31126431E+00</totfact>
</mgrwt>
</event>
<event>
 6    1  0.2238133E-007  0.2723963E+04  0.7818608E-02  0.8327271E-01
         -2   -1    0    0    0  501 -0.00000000000E+00  0.00000000000E+00  0.87726529411E+03  0.87726529411E+03  0.00000000000E+00 0.  1.
          2   -1    0    0  501    0  0.00000000000E+00 -0.00000000000E+00 -0.21145185841E+04  0.21145185841E+04  0.00000000000E+00 0. -1.
         23    2    1    2    0    0  0.92889407644E+03  0.86419999403E+03 -0.79845119083E+02  0.12744372303E+04  0.90161943547E+02 0.  0.
         13    1    3    3    0    0  0.66139390844E+03  0.66531376685E+03 -0.43648978663E+02  0.93914298369E+03  0.00000000000E+00 0. -1.
        -13    1    3    3    0    0  0.26750016800E+03  0.19888622718E+03 -0.36196140420E+02  0.33529424663E+03  0.00000000000E+00 0.  1.
         22    1    1    2    0    0 -0.92889407644E+03 -0.86419999403E+03 -0.11574081709E+04  0.17173466479E+04  0.00000000000E+00 0. -1.
<mgrwt>
<rscale>  0 0.27239631E+04</rscale>
<asrwt>0</asrwt>
<pdfrwt beam="1">  1        2 0.32531055E+00 0.27239631E+04</pdfrwt>
<pdfrwt beam="2">  1       -2 0.13496389E+00 0.27239631E+04</pdfrwt>
<totfact> 0.19934320E+00</totfact>
</mgrwt>
</event>
<event>
 6    1  0.2238133E-007  0.2669351E+04  0.7818608E-02  0.8345018E-01
          2   -1    0    0  501    0  0.00000000000E+00  0.00000000000E+00  0.68651418407E+03  0.68651418407E+03  0.00000000000E+00 0. -1.
         -2   -1    0    0    0  501 -0.00000000000E+00 -0.00000000000E+00 -0.25947884402E+04  0.25947884402E+04  0.00000000000E+00 0.  1.
         23    2    1    2    0    0 -0.12863892701E+04  0.33966006956E+03 -0.85249831763E+03  0.15828241436E+04  0.91720068070E+02 0.  0.
         11    1    3    3    0    0 -0.45188229656E+03  0.15209584368E+03 -0.34157201617E+03  0.58651700558E+03  0.00000000000E+00 0. -1.
        -11    1    3    3    0    0 -0.83450697354E+03  0.18756422588E+03 -0.51092630146E+03  0.99630713800E+03  0.00000000000E+00 0.  1.
         22    1    1    2    0    0  0.12863892701E+04 -0.33966006956E+03 -0.10557759385E+04  0.16984784807E+04  0.00000000000E+00 0. -1.
<mgrwt>
<rscale>  0 0.26693513E+04</rscale>
<asrwt>0</asrwt>
<pdfrwt beam="1">  1        2 0.10561757E+00 0.26693513E+04</pdfrwt>
<pdfrwt beam="2">  1       -2 0.39919822E+00 0.26693513E+04</pdfrwt>
<totfact> 0.27741703E-01</totfact>
</mgrwt>
</event>
<event>
 6    1  0.2238133E-007  0.9795211E+03  0.7818608E-02  0.9331295E-01
         -2   -1    0    0    0  501 -0.00000000000E+00  0.00000000000E+00  0.14072014111E+03  0.14072014111E+03  0.00000000000E+00 0.  1.
          2   -1    0    0  501    0  0.00000000000E+00 -0.00000000000E+00 -0.17045563631E+04  0.17045563631E+04  0.00000000000E+00 0. -1.
         23    2    1    2    0    0 -0.36799990883E+03 -0.25483587617E+03 -0.43220379297E+03  0.62833065040E+03  0.87372941428E+02 0.  0.
         11    1    3    3    0    0 -0.93948889686E+02 -0.28505060869E+02 -0.67943690500E+02  0.11939546661E+03  0.00000000000E+00 0. -1.
        -11    1    3    3    0    0 -0.27405101915E+03 -0.22633081530E+03 -0.36426010247E+03  0.50893518379E+03  0.00000000000E+00 0.  1.
         22    1    1    2    0    0  0.36799990883E+03  0.25483587617E+03 -0.11316324290E+04  0.12169458538E+04  0.00000000000E+00 0. -1.
<mgrwt>
<rscale>  0 0.97952113E+03</rscale>
<asrwt>0</asrwt>
<pdfrwt beam="1">  1        2 0.26223944E+00 0.97952113E+03</pdfrwt>
<pdfrwt beam="2">  1       -2 0.21649253E-01 0.97952113E+03</pdfrwt>
<totfact> 0.18116349E+02</totfact>
</mgrwt>
</event>
<event>
 6    1  0.2238133E-007  0.2682185E+04  0.7818608E-02  0.8340809E-01
          1   -1    0    0  501    0  0.00000000000E+00  0.00000000000E+00  0.18813741702E+04  0.18813741702E+04  0.00000000000E+00 0. -1.
         -1   -1    0    0    0  501 -0.00000000000E+00 -0.00000000000E+00 -0.95596546428E+03  0.95596546428E+03  0.00000000000E+00 0.  1.
         23    2    1    2    0    0 -0.79093953189E+03  0.32855569121E+03  0.15528031295E+04  0.17756626836E+04  0.90808708894E+02 0.  0.
         11    1    3    3    0    0 -0.19454864662E+03  0.12360200415E+03  0.43040289283E+03  0.48823486304E+03  0.00000000000E+00 0. -1.
        -11    1    3    3    0    0 -0.59639088528E+03  0.20495368706E+03  0.11224002367E+04  0.12874278206E+04  0.00000000000E+00 0.  1.
         22    1    1    2    0    0  0.79093953189E+03 -0.32855569121E+03 -0.62739442357E+03  0.10616769509E+04  0.00000000000E+00 0.  1.
<mgrwt>
<rscale>  0 0.26821847E+04</rscale>
<asrwt>0</asrwt>
<pdfrwt beam="1">  1        1 0.28944218E+00 0.26821847E+04</pdfrwt>
<pdfrwt beam="2">  1       -1 0.14707161E+00 0.26821847E+04</pdfrwt>
<totfact> 0.11539217E+00</totfact>
</mgrwt>
</event>
<event>
 6    1  0.2238133E-007  0.3754989E+04  0.7818608E-02  0.8055884E-01
         -2   -1    0    0    0  501 -0.00000000000E+00  0.00000000000E+00  0.30774163088E+04  0.30774163088E+04  0.00000000000E+00 0.  1.
          2   -1    0    0  501    0  0.00000000000E+00 -0.00000000000E+00 -0.11454368209E+04  0.11454368209E+04  0.00000000000E+00 0. -1.
         23    2    1    2    0    0 -0.72513889115E+03  0.15305733823E+04  0.58085189963E+02  0.16969946360E+04  0.89082071354E+02 0.  0.
         13    1    3    3    0    0 -0.55230940019E+03  0.12461612398E+04  0.54775013467E+02  0.13641714743E+04  0.00000000000E+00 0.  1.
        -13    1    3    3    0    0 -0.17282949096E+03  0.28441214243E+03  0.33101764957E+01  0.33282316172E+03  0.00000000000E+00 0. -1.
         22    1    1    2    0    0  0.72513889115E+03 -0.15305733823E+04  0.18738942980E+04  0.25258584937E+04  0.00000000000E+00 0.  1.
<mgrwt>
<rscale>  0 0.37549892E+04</rscale>
<asrwt>0</asrwt>
<pdfrwt beam="1">  1        2 0.17622105E+00 0.37549892E+04</pdfrwt>
<pdfrwt beam="2">  1       -2 0.47344866E+00 0.37549892E+04</pdfrwt>
<totfact> 0.40022366E-02</totfact>
</mgrwt>
</event>
<event>
 6    1  0.2238133E-007  0.4304333E+04  0.7818608E-02  0.7945817E-01
          2   -1    0    0  501    0  0.00000000000E+00  0.00000000000E+00  0.15126916444E+04  0.15126916444E+04  0.00000000000E+00 0. -1.
         -2   -1    0    0    0  501 -0.00000000000E+00 -0.00000000000E+00 -0.30619727201E+04  0.30619727201E+04  0.00000000000E+00 0.  1.
         23    2    1    2    0    0 -0.99778178985E+03  0.13431813334E+04  0.66201810238E+03  0.18016608214E+04  0.89493871938E+02 0.  0.
         13    1    3    3    0    0 -0.80241394545E+03  0.10867234411E+04  0.49613905464E+03  0.14390934434E+04  0.00000000000E+00 0. -1.
        -13    1    3    3    0    0 -0.19536784440E+03  0.25645789230E+03  0.16587904774E+03  0.36256737805E+03  0.00000000000E+00 0.  1.
         22    1    1    2    0    0  0.99778178985E+03 -0.13431813334E+04 -0.22112991781E+04  0.27730035430E+04  0.00000000000E+00 0.  1.
<mgrwt>
<rscale>  0 0.43043330E+04</rscale>
<asrwt>0</asrwt>
<pdfrwt beam="1">  1        2 0.23272179E+00 0.43043330E+04</pdfrwt>
<pdfrwt beam="2">  1       -2 0.47107272E+00 0.43043330E+04</pdfrwt>
<totfact> 0.24287621E-02</totfact>
</mgrwt>
</event>
<event>
 6    1  0.2238133E-007  0.5365778E+03  0.7818608E-02  0.1004649E+00
          1   -1    0    0  501    0  0.00000000000E+00  0.00000000000E+00  0.32828949919E+03  0.32828949919E+03  0.00000000000E+00 0. -1.
         -1   -1    0    0    0  501 -0.00000000000E+00 -0.00000000000E+00 -0.21925445610E+03  0.21925445610E+03  0.00000000000E+00 0.  1.
         23    2    1    2    0    0 -0.64289656637E+02  0.22253078920E+02  0.31249200075E+03  0.33301402010E+03  0.92837102395E+02 0.  0.
         13    1    3    3    0    0  0.20352306527E+02 -0.11405120884E+02  0.79383189829E+02  0.82740461630E+02  0.00000000000E+00 0. -1.
        -13    1    3    3    0    0 -0.84641963163E+02  0.33658199804E+02  0.23310881092E+03  0.25027355847E+03  0.00000000000E+00 0.  1.
         22    1    1    2    0    0  0.64289656637E+02 -0.22253078920E+02 -0.20345695766E+03  0.21452993519E+03  0.00000000000E+00 0.  1.
<mgrwt>
<rscale>  0 0.53657781E+03</rscale>
<asrwt>0</asrwt>
<pdfrwt beam="1">  1        1 0.50506077E-01 0.53657781E+03</pdfrwt>
<pdfrwt beam="2">  1       -1 0.33731455E-01 0.53657781E+03</pdfrwt>
<totfact> 0.65128818E+02</totfact>
</mgrwt>
</event>
<event>
 6    1  0.2238133E-007  0.1785190E+04  0.7818608E-02  0.8714215E-01
          2   -1    0    0  501    0  0.00000000000E+00  0.00000000000E+00  0.14916219493E+04  0.14916219493E+04  0.00000000000E+00 0. -1.
         -2   -1    0    0    0  501 -0.00000000000E+00 -0.00000000000E+00 -0.53413368444E+03  0.53413368444E+03  0.00000000000E+00 0.  1.
         23    2    1    2    0    0  0.22041135955E+03 -0.58152324112E+03  0.12028663553E+04  0.13572043233E+04  0.91463976674E+02 0.  0.
         11    1    3    3    0    0  0.16861851854E+03 -0.33896440517E+03  0.77844489693E+03  0.86562435867E+03  0.00000000000E+00 0. -1.
        -11    1    3    3    0    0  0.51792841003E+02 -0.24255883596E+03  0.42442145837E+03  0.49157996461E+03  0.00000000000E+00 0.  1.
         22    1    1    2    0    0 -0.22041135955E+03  0.58152324112E+03 -0.24537809047E+03  0.66855131042E+03  0.00000000000E+00 0.  1.
<mgrwt>
<rscale>  0 0.17851897E+04</rscale>
<asrwt>0</asrwt>
<pdfrwt beam="1">  1        2 0.22948030E+00 0.17851897E+04</pdfrwt>
<pdfrwt beam="2">  1       -2 0.82174414E-01 0.17851897E+04</pdfrwt>
<totfact> 0.15781694E+01</totfact>
</mgrwt>
</event>
<event>
 6    1  0.2238133E-007  0.2836040E+04  0.7818608E-02  0.8292166E-01
         -2   -1    0    0    0  501 -0.00000000000E+00  0.00000000000E+00  0.10639153337E+04  0.10639153337E+04  0.00000000000E+00 0.  1.
          2   -1    0    0  501    0  0.00000000000E+00 -0.00000000000E+00 -0.18899819409E+04  0.18899819409E+04  0.00000000000E+00 0. -1.
         23    2    1    2    0    0  0.72110697275E+03 -0.74921814726E+03  0.58843920906E+03  0.11982920221E+04  0.91213864440E+02 0.  0.
         13    1    3    3    0    0  0.59690313030E+03 -0.63833996081E+03  0.45730615036E+03  0.98635701837E+03  0.00000000000E+00 0. -1.
        -13    1    3    3    0    0  0.12420384245E+03 -0.11087818645E+03  0.13113305870E+03  0.21193500370E+03  0.00000000000E+00 0.  1.
         22    1    1    2    0    0 -0.72110697275E+03  0.74921814726E+03 -0.14145058163E+04  0.17556052525E+04  0.00000000000E+00 0. -1.
<mgrwt>
<rscale>  0 0.28360400E+04</rscale>
<asrwt>0</asrwt>
<pdfrwt beam="1">  1        2 0.29076645E+00 0.28360400E+04</pdfrwt>
<pdfrwt beam="2">  1       -2 0.16367928E+00 0.28360400E+04</pdfrwt>
<totfact> 0.15796483E+00</totfact>
</mgrwt>
</event>
<event>
 6    1  0.2238133E-007  0.2038488E+04  0.7818608E-02  0.8588835E-01
          1   -1    0    0  501    0  0.00000000000E+00  0.00000000000E+00  0.23406994919E+04  0.23406994919E+04  0.00000000000E+00 0. -1.
         -1   -1    0    0    0  501 -0.00000000000E+00 -0.00000000000E+00 -0.44382383140E+03  0.44382383140E+03  0.00000000000E+00 0.  1.
         23    2    1    2    0    0  0.13133452493E+03 -0.57655780409E+03  0.20808708825E+04  0.21652318729E+04  0.92400079814E+02 0.  0.
         11    1    3    3    0    0  0.14152466596E+03 -0.47392418504E+03  0.16788336463E+04  0.17501759273E+04  0.00000000000E+00 0. -1.
        -11    1    3    3    0    0 -0.10190141033E+02 -0.10263361905E+03  0.40203723615E+03  0.41505594561E+03  0.00000000000E+00 0.  1.
         22    1    1    2    0    0 -0.13133452493E+03  0.57655780409E+03 -0.18399522197E+03  0.61929145045E+03  0.00000000000E+00 0.  1.
<mgrwt>
<rscale>  0 0.20384879E+04</rscale>
<asrwt>0</asrwt>
<pdfrwt beam="1">  1        1 0.36010761E+00 0.20384879E+04</pdfrwt>
<pdfrwt beam="2">  1       -1 0.68280591E-01 0.20384879E+04</pdfrwt>
<totfact> 0.35040146E+00</totfact>
</mgrwt>
</event>
<event>
 6    1  0.2238133E-007  0.2686318E+04  0.7818608E-02  0.8339458E-01
         -2   -1    0    0    0  501 -0.00000000000E+00  0.00000000000E+00  0.20529746199E+04  0.20529746199E+04  0.00000000000E+00 0.  1.
          2   -1    0    0  501    0  0.00000000000E+00 -0.00000000000E+00 -0.87876203602E+03  0.87876203602E+03  0.00000000000E+00 0. -1.
         23    2    1    2    0    0 -0.95874855404E+02 -0.12737508713E+04  0.10354065112E+04  0.16468629673E+04  0.91965860883E+02 0.  0.
         11    1    3    3    0    0 -0.45621431957E+02 -0.99657976492E+03  0.77550738407E+03  0.12635918034E+04  0.00000000000E+00 0. -1.
        -11    1    3    3    0    0 -0.50253423448E+02 -0.27717110638E+03  0.25989912711E+03  0.38327116387E+03  0.00000000000E+00 0.  1.
         22    1    1    2    0    0  0.95874855404E+02  0.12737508713E+04  0.13880607275E+03  0.12848736887E+04  0.00000000000E+00 0. -1.
<mgrwt>
<rscale>  0 0.26863180E+04</rscale>
<asrwt>0</asrwt>
<pdfrwt beam="1">  1        2 0.13519416E+00 0.26863180E+04</pdfrwt>
<pdfrwt beam="2">  1       -2 0.31584225E+00 0.26863180E+04</pdfrwt>
<totfact> 0.67639058E-01</totfact>
</mgrwt>
</event>
<event>
 6    1  0.2238133E-007  0.2193168E+04  0.7818608E-02  0.8521277E-01
          2   -1    0    0  501    0  0.00000000000E+00  0.00000000000E+00  0.24268711969E+04  0.24268711969E+04  0.00000000000E+00 0. -1.
         -2   -1    0    0    0  501 -0.00000000000E+00 -0.00000000000E+00 -0.49549250975E+03  0.49549250975E+03  0.00000000000E+00 0.  1.
         23    2    1    2    0    0 -0.45674243748E+03  0.10456960156E+03  0.22855526674E+04  0.23350072015E+04  0.94652943901E+02 0.  0.
         11    1    3    3    0    0 -0.36358620458E+03  0.10180276101E+03  0.16493696934E+04  0.16920340173E+04  0.00000000000E+00 0. -1.
        -11    1    3    3    0    0 -0.93156232896E+02  0.27668405426E+01  0.63618297409E+03  0.64297318424E+03  0.00000000000E+00 0.  1.
         22    1    1    2    0    0  0.45674243748E+03 -0.10456960156E+03 -0.35417398031E+03  0.58735650511E+03  0.00000000000E+00 0.  1.
<mgrwt>
<rscale>  0 0.21931680E+04</rscale>
<asrwt>0</asrwt>
<pdfrwt beam="1">  1        2 0.37336479E+00 0.21931680E+04</pdfrwt>
<pdfrwt beam="2">  1       -2 0.76229618E-01 0.21931680E+04</pdfrwt>
<totfact> 0.54041699E+00</totfact>
</mgrwt>
</event>
<event>
 6    1  0.2238133E-007  0.2181892E+04  0.7818608E-02  0.8526003E-01
          1   -1    0    0  501    0  0.00000000000E+00  0.00000000000E+00  0.86673183352E+03  0.86673183352E+03  0.00000000000E+00 0. -1.
         -1   -1    0    0    0  501 -0.00000000000E+00 -0.00000000000E+00 -0.13731617125E+04  0.13731617125E+04  0.00000000000E+00 0.  1.
         23    2    1    2    0    0  0.65265456859E+03  0.55200796997E+02 -0.11470181301E+04  0.13237284837E+04  0.87185972498E+02 0.  0.
         11    1    3    3    0    0  0.37821692955E+03  0.44273159790E+02 -0.74753108429E+03  0.83893437196E+03  0.00000000000E+00 0. -1.
        -11    1    3    3    0    0  0.27443763903E+03  0.10927637207E+02 -0.39948704583E+03  0.48479411172E+03  0.00000000000E+00 0.  1.
         22    1    1    2    0    0 -0.65265456859E+03 -0.55200796997E+02  0.64058825116E+03  0.91616506232E+03  0.00000000000E+00 0. -1.
<mgrwt>
<rscale>  0 0.21818918E+04</rscale>
<asrwt>0</asrwt>
<pdfrwt beam="1">  1        1 0.13334336E+00 0.21818918E+04</pdfrwt>
<pdfrwt beam="2">  1       -1 0.21125565E+00 0.21818918E+04</pdfrwt>
<totfact> 0.22317893E+00</totfact>
</mgrwt>
</event>
<event>
 6    1  0.2238133E-007  0.2279673E+04  0.7818608E-02  0.8485979E-01
          2   -1    0    0  501    0  0.00000000000E+00  0.00000000000E+00  0.22650335684E+04  0.22650335684E+04  0.00000000000E+00 0. -1.
         -2   -1    0    0    0  501 -0.00000000000E+00 -0.00000000000E+00 -0.57360178558E+03  0.57360178558E+03  0.00000000000E+00 0.  1.
         23    2    1    2    0    0  0.69311400788E+03  0.79197364586E+03  0.30804486546E+03  0.11004211420E+04  0.91682969543E+02 0.  0.
         13    1    3    3    0    0  0.36291714375E+03  0.40323361057E+03  0.11165881999E+03  0.55387172703E+03  0.00000000000E+00 0. -1.
        -13    1    3    3    0    0  0.33019686412E+03  0.38874003529E+03  0.19638604546E+03  0.54654941494E+03  0.00000000000E+00 0.  1.
         22    1    1    2    0    0 -0.69311400788E+03 -0.79197364586E+03  0.13833869173E+04  0.17382142120E+04  0.00000000000E+00 0.  1.
<mgrwt>
<rscale>  0 0.22796730E+04</rscale>
<asrwt>0</asrwt>
<pdfrwt beam="1">  1        2 0.34846670E+00 0.22796730E+04</pdfrwt>
<pdfrwt beam="2">  1       -2 0.88246430E-01 0.22796730E+04</pdfrwt>
<totfact> 0.47647432E+00</totfact>
</mgrwt>
</event>
<event>
 6    1  0.2238133E-007  0.5014797E+03  0.7818608E-02  0.1013393E+00
          2   -1    0    0  501    0  0.00000000000E+00  0.00000000000E+00  0.81297416359E+03  0.81297416359E+03  0.00000000000E+00 0. -1.
         -2   -1    0    0    0  501 -0.00000000000E+00 -0.00000000000E+00 -0.77333915408E+02  0.77333915408E+02  0.00000000000E+00 0.  1.
         23    2    1    2    0    0  0.39690851486E+01 -0.17532989019E+03  0.83156204983E+02  0.21466634653E+03  0.91708025135E+02 0.  0.
         11    1    3    3    0    0 -0.31479509964E+02 -0.13528625022E+03  0.81741817056E+02  0.16116778121E+03  0.00000000000E+00 0. -1.
        -11    1    3    3    0    0  0.35448595113E+02 -0.40043639970E+02  0.14143879275E+01  0.53498565315E+02  0.00000000000E+00 0.  1.
         22    1    1    2    0    0 -0.39690851486E+01  0.17532989019E+03  0.65248404320E+03  0.67564173248E+03  0.00000000000E+00 0. -1.
<mgrwt>
<rscale>  0 0.50147971E+03</rscale>
<asrwt>0</asrwt>
<pdfrwt beam="1">  1        2 0.12507294E+00 0.50147971E+03</pdfrwt>
<pdfrwt beam="2">  1       -2 0.11897526E-01 0.50147971E+03</pdfrwt>
<totfact> 0.17449634E+03</totfact>
</mgrwt>
</event>
<event>
 6    1  0.2238133E-007  0.1479047E+04  0.7818608E-02  0.8898507E-01
          4   -1    0    0  501    0  0.00000000000E+00  0.00000000000E+00  0.11686467602E+04  0.11686467602E+04  0.00000000000E+00 0. -1.
         -4   -1    0    0    0  501 -0.00000000000E+00 -0.00000000000E+00 -0.46797275294E+03  0.46797275294E+03  0.00000000000E+00 0.  1.
         23    2    1    2    0    0  0.88522322403E+02 -0.57836568254E+03 -0.14331089281E+03  0.60965623442E+03  0.93806438269E+02 0.  0.
         11    1    3    3    0    0  0.78022923997E+02 -0.50974944416E+03 -0.15668633751E+03  0.53896445231E+03  0.00000000000E+00 0.  1.
        -11    1    3    3    0    0  0.10499398406E+02 -0.68616238381E+02  0.13375444703E+02  0.70691782107E+02  0.00000000000E+00 0. -1.
         22    1    1    2    0    0 -0.88522322403E+02  0.57836568254E+03  0.84398490010E+03  0.10269632787E+04  0.00000000000E+00 0. -1.
<mgrwt>
<rscale>  0 0.14790468E+04</rscale>
<asrwt>0</asrwt>
<pdfrwt beam="1">  1        4 0.17979181E+00 0.14790468E+04</pdfrwt>
<pdfrwt beam="2">  1       -4 0.71995809E-01 0.14790468E+04</pdfrwt>
<totfact> 0.61382382E-01</totfact>
</mgrwt>
</event>
<event>
 6    1  0.2238133E-007  0.3187911E+04  0.7818608E-02  0.8192017E-01
         -1   -1    0    0    0  501 -0.00000000000E+00  0.00000000000E+00  0.81436059342E+03  0.81436059342E+03  0.00000000000E+00 0.  1.
          1   -1    0    0  501    0  0.00000000000E+00 -0.00000000000E+00 -0.31198644577E+04  0.31198644577E+04  0.00000000000E+00 0. -1.
         23    2    1    2    0    0  0.91306038031E+03  0.81348342080E+02 -0.27610154091E+04  0.29106100951E+04  0.90267522279E+02 0.  0.
         11    1    3    3    0    0  0.42033774981E+03  0.91801987620E+01 -0.11538242842E+04  0.12280385086E+04  0.00000000000E+00 0. -1.
        -11    1    3    3    0    0  0.49272263050E+03  0.72168143318E+02 -0.16071911249E+04  0.16825715864E+04  0.00000000000E+00 0.  1.
         22    1    1    2    0    0 -0.91306038031E+03 -0.81348342080E+02  0.45551154478E+03  0.10236149561E+04  0.00000000000E+00 0.  1.
<mgrwt>
<rscale>  0 0.31879113E+04</rscale>
<asrwt>0</asrwt>
<pdfrwt beam="1">  1        1 0.47997914E+00 0.31879113E+04</pdfrwt>
<pdfrwt beam="2">  1       -1 0.12528625E+00 0.31879113E+04</pdfrwt>
<totfact> 0.22713461E-01</totfact>
</mgrwt>
</event>
<event>
 6    1  0.2238133E-007  0.1816246E+04  0.7818608E-02  0.8697707E-01
         -2   -1    0    0    0  501 -0.00000000000E+00  0.00000000000E+00  0.32020826710E+03  0.32020826710E+03  0.00000000000E+00 0.  1.
          2   -1    0    0  501    0  0.00000000000E+00 -0.00000000000E+00 -0.25754728538E+04  0.25754728538E+04  0.00000000000E+00 0. -1.
         23    2    1    2    0    0 -0.37519901803E+03 -0.51447387496E+03 -0.21575563968E+04  0.22514726442E+04  0.92853599996E+02 0.  0.
         11    1    3    3    0    0 -0.24603022564E+02 -0.87975634369E+02 -0.29814370981E+03  0.31182477878E+03  0.00000000000E+00 0. -1.
        -11    1    3    3    0    0 -0.35059599547E+03 -0.42649824059E+03 -0.18594126870E+04  0.19396478654E+04  0.00000000000E+00 0.  1.
         22    1    1    2    0    0  0.37519901803E+03  0.51447387496E+03 -0.97708189962E+02  0.64420847676E+03  0.00000000000E+00 0.  1.
<mgrwt>
<rscale>  0 0.18162463E+04</rscale>
<asrwt>0</asrwt>
<pdfrwt beam="1">  1        2 0.39622658E+00 0.18162463E+04</pdfrwt>
<pdfrwt beam="2">  1       -2 0.49262811E-01 0.18162463E+04</pdfrwt>
<totfact> 0.11585620E+01</totfact>
</mgrwt>
</event>
<event>
 6    1  0.2238133E-007  0.3810521E+04  0.7818608E-02  0.8043901E-01
         -2   -1    0    0    0  501 -0.00000000000E+00  0.00000000000E+00  0.15503262783E+04  0.15503262783E+04  0.00000000000E+00 0.  1.
          2   -1    0    0  501    0  0.00000000000E+00 -0.00000000000E+00 -0.23414543119E+04  0.23414543119E+04  0.00000000000E+00 0. -1.
         23    2    1    2    0    0  0.58644209080E+02  0.18933220514E+04 -0.59415342923E+03  0.19873367008E+04  0.91549611682E+02 0.  0.
         11    1    3    3    0    0  0.15768123842E+01  0.13284840119E+04 -0.40167784954E+03  0.13878823261E+04  0.00000000000E+00 0. -1.
        -11    1    3    3    0    0  0.57067396696E+02  0.56483803946E+03 -0.19247557969E+03  0.59945437471E+03  0.00000000000E+00 0.  1.
         22    1    1    2    0    0 -0.58644209080E+02 -0.18933220514E+04 -0.19697460435E+03  0.19044438895E+04  0.00000000000E+00 0. -1.
<mgrwt>
<rscale>  0 0.38105213E+04</rscale>
<asrwt>0</asrwt>
<pdfrwt beam="1">  1        2 0.36022374E+00 0.38105213E+04</pdfrwt>
<pdfrwt beam="2">  1       -2 0.23851174E+00 0.38105213E+04</pdfrwt>
<totfact> 0.26030433E-01</totfact>
</mgrwt>
</event>
<event>
 6    1  0.2238133E-007  0.9607517E+03  0.7818608E-02  0.9352671E-01
         -2   -1    0    0    0  501 -0.00000000000E+00  0.00000000000E+00  0.42275591998E+03  0.42275591998E+03  0.00000000000E+00 0.  1.
          2   -1    0    0  501    0  0.00000000000E+00 -0.00000000000E+00 -0.54584914705E+03  0.54584914705E+03  0.00000000000E+00 0. -1.
         23    2    1    2    0    0 -0.16100481472E+03  0.40882182018E+03 -0.24670623027E+03  0.51216448429E+03  0.91600567119E+02 0.  0.
         11    1    3    3    0    0 -0.30273038950E+02  0.91832128249E+02 -0.13844412021E+02  0.97679396038E+02  0.00000000000E+00 0.  1.
        -11    1    3    3    0    0 -0.13073177577E+03  0.31698969193E+03 -0.23286181825E+03  0.41448508825E+03  0.00000000000E+00 0. -1.
         22    1    1    2    0    0  0.16100481472E+03 -0.40882182018E+03  0.12361300320E+03  0.45644058275E+03  0.00000000000E+00 0.  1.
<mgrwt>
<rscale>  0 0.96075170E+03</rscale>
<asrwt>0</asrwt>
<pdfrwt beam="1">  1        2 0.83976792E-01 0.96075170E+03</pdfrwt>
<pdfrwt beam="2">  1       -2 0.65039372E-01 0.96075170E+03</pdfrwt>
<totfact> 0.12125045E+02</totfact>
</mgrwt>
</event>
<event>
 6    1  0.2238133E-007  0.9124443E+03  0.7818608E-02  0.9410158E-01
         -2   -1    0    0    0  501 -0.00000000000E+00  0.00000000000E+00  0.27679000096E+03  0.27679000096E+03  0.00000000000E+00 0.  1.
          2   -1    0    0  501    0  0.00000000000E+00 -0.00000000000E+00 -0.75197309906E+03  0.75197309906E+03  0.00000000000E+00 0. -1.
         23    2    1    2    0    0  0.27798002067E+03 -0.21857366389E+03 -0.55696563312E+03  0.66580894110E+03  0.89685512452E+02 0.  0.
         11    1    3    3    0    0  0.16145009164E+03 -0.16340982565E+03 -0.41272985953E+03  0.47235033625E+03  0.00000000000E+00 0. -1.
        -11    1    3    3    0    0  0.11652992903E+03 -0.55163838243E+02 -0.14423577358E+03  0.19345860485E+03  0.00000000000E+00 0.  1.
         22    1    1    2    0    0 -0.27798002067E+03  0.21857366389E+03  0.81782535016E+02  0.36295415891E+03  0.00000000000E+00 0.  1.
<mgrwt>
<rscale>  0 0.91244427E+03</rscale>
<asrwt>0</asrwt>
<pdfrwt beam="1">  1        2 0.11568817E+00 0.91244427E+03</pdfrwt>
<pdfrwt beam="2">  1       -2 0.42583077E-01 0.91244427E+03</pdfrwt>
<totfact> 0.19577118E+02</totfact>
</mgrwt>
</event>
<event>
 6    1  0.2980354E-007  0.3372584E+04  0.7818608E-02  0.8144668E-01
          2   -1    0    0  501    0  0.00000000000E+00  0.00000000000E+00  0.14947562200E+04  0.14947562200E+04  0.00000000000E+00 0. -1.
         -2   -1    0    0    0  501 -0.00000000000E+00 -0.00000000000E+00 -0.19023714201E+04  0.19023714201E+04  0.00000000000E+00 0.  1.
         23    2    1    2    0    0 -0.23748026005E+03  0.13934386925E+04 -0.11279050995E+04  0.18106580366E+04  0.90798394095E+02 0.  0.
         11    1    3    3    0    0 -0.91660158326E+02  0.76602010428E+03 -0.58398300622E+03  0.96758696577E+03  0.00000000000E+00 0. -1.
        -11    1    3    3    0    0 -0.14582010172E+03  0.62741858826E+03 -0.54392209328E+03  0.84307107086E+03  0.00000000000E+00 0.  1.
         22    1    1    2    0    0  0.23748026005E+03 -0.13934386925E+04  0.72028989934E+03  0.15864696035E+04  0.00000000000E+00 0. -1.
<mgrwt>
<rscale>  0 0.33725845E+04</rscale>
<asrwt>0</asrwt>
<pdfrwt beam="1">  1        2 0.22996249E+00 0.33725845E+04</pdfrwt>
<pdfrwt beam="2">  1       -2 0.29267253E+00 0.33725845E+04</pdfrwt>
<totfact> 0.37392012E-01</totfact>
</mgrwt>
</event>
<event>
 6    1  0.2238133E-007  0.2820105E+04  0.7818608E-02  0.8297053E-01
          2   -1    0    0  501    0  0.00000000000E+00  0.00000000000E+00  0.92471768547E+03  0.92471768547E+03  0.00000000000E+00 0. -1.
         -2   -1    0    0    0  501 -0.00000000000E+00 -0.00000000000E+00 -0.21501143122E+04  0.21501143122E+04  0.00000000000E+00 0.  1.
         23    2    1    2    0    0 -0.11098912866E+04  0.45175784283E+03 -0.14205738603E+04  0.18607323439E+04  0.91383513959E+02 0.  0.
         13    1    3    3    0    0 -0.29353031229E+03  0.16367191930E+03 -0.39409533725E+03  0.51793790771E+03  0.00000000000E+00 0.  1.
        -13    1    3    3    0    0 -0.81636097435E+03  0.28808592353E+03 -0.10264785230E+04  0.13427944362E+04  0.00000000000E+00 0. -1.
         22    1    1    2    0    0  0.11098912866E+04 -0.45175784283E+03  0.19517723353E+03  0.12140996537E+04  0.00000000000E+00 0. -1.
<mgrwt>
<rscale>  0 0.28201055E+04</rscale>
<asrwt>0</asrwt>
<pdfrwt beam="1">  1        2 0.14226426E+00 0.28201055E+04</pdfrwt>
<pdfrwt beam="2">  1       -2 0.33078682E+00 0.28201055E+04</pdfrwt>
<totfact> 0.50318516E-01</totfact>
</mgrwt>
</event>
<event>
 6    1  0.2238133E-007  0.2523241E+04  0.7818608E-02  0.8394752E-01
         -2   -1    0    0    0  501 -0.00000000000E+00  0.00000000000E+00  0.11247364504E+04  0.11247364504E+04  0.00000000000E+00 0.  1.
          2   -1    0    0  501    0  0.00000000000E+00 -0.00000000000E+00 -0.14151636462E+04  0.14151636462E+04  0.00000000000E+00 0. -1.
         23    2    1    2    0    0 -0.53995627755E+03  0.16127871219E+03  0.98892370730E+03  0.11419364569E+04  0.92114971735E+02 0.  0.
         13    1    3    3    0    0 -0.45832018394E+03  0.11581408116E+03  0.76467711282E+03  0.89900021095E+03  0.00000000000E+00 0. -1.
        -13    1    3    3    0    0 -0.81636093613E+02  0.45464631034E+02  0.22424659448E+03  0.24293624594E+03  0.00000000000E+00 0.  1.
         22    1    1    2    0    0  0.53995627755E+03 -0.16127871219E+03 -0.12793509031E+04  0.13979636397E+04  0.00000000000E+00 0. -1.
<mgrwt>
<rscale>  0 0.25232409E+04</rscale>
<asrwt>0</asrwt>
<pdfrwt beam="1">  1        2 0.21771748E+00 0.25232409E+04</pdfrwt>
<pdfrwt beam="2">  1       -2 0.17303638E+00 0.25232409E+04</pdfrwt>
<totfact> 0.25614392E+00</totfact>
</mgrwt>
</event>
<event>
 6    1  0.2238133E-007  0.2851219E+04  0.7818608E-02  0.8287541E-01
          2   -1    0    0  501    0  0.00000000000E+00  0.00000000000E+00  0.19264885148E+04  0.19264885148E+04  0.00000000000E+00 0. -1.
         -2   -1    0    0    0  501 -0.00000000000E+00 -0.00000000000E+00 -0.10549571058E+04  0.10549571058E+04  0.00000000000E+00 0.  1.
         23    2    1    2    0    0  0.70920592423E+03  0.12209168558E+04  0.62881427050E+03  0.15487828476E+04  0.98538877485E+02 0.  0.
         13    1    3    3    0    0  0.40646269575E+03  0.70209846028E+03  0.30777361251E+03  0.86768586915E+03  0.00000000000E+00 0. -1.
        -13    1    3    3    0    0  0.30274322848E+03  0.51881839554E+03  0.32104065798E+03  0.68109697842E+03  0.00000000000E+00 0.  1.
         22    1    1    2    0    0 -0.70920592423E+03 -0.12209168558E+04  0.24271713850E+03  0.14326627730E+04  0.00000000000E+00 0.  1.
<mgrwt>
<rscale>  0 0.28512192E+04</rscale>
<asrwt>0</asrwt>
<pdfrwt beam="1">  1        2 0.29638285E+00 0.28512192E+04</pdfrwt>
<pdfrwt beam="2">  1       -2 0.16230109E+00 0.28512192E+04</pdfrwt>
<totfact> 0.15410591E+00</totfact>
</mgrwt>
</event>
<event>
 6    1  0.2238133E-007  0.4040223E+04  0.7818608E-02  0.7996481E-01
         -2   -1    0    0    0  501 -0.00000000000E+00  0.00000000000E+00  0.23380230723E+04  0.23380230723E+04  0.00000000000E+00 0.  1.
          2   -1    0    0  501    0  0.00000000000E+00 -0.00000000000E+00 -0.17454278072E+04  0.17454278072E+04  0.00000000000E+00 0. -1.
         23    2    1    2    0    0 -0.68656414500E+03 -0.34693047543E+03  0.21832534263E+04  0.23165540330E+04  0.89977687425E+02 0.  0.
         13    1    3    3    0    0 -0.14824343216E+03 -0.11632305588E+03  0.49948815660E+03  0.53384977951E+03  0.00000000000E+00 0. -1.
        -13    1    3    3    0    0 -0.53832071284E+03 -0.23060741955E+03  0.16837652697E+04  0.17827042535E+04  0.00000000000E+00 0.  1.
         22    1    1    2    0    0  0.68656414500E+03  0.34693047543E+03 -0.15906581612E+04  0.17668968464E+04  0.00000000000E+00 0. -1.
<mgrwt>
<rscale>  0 0.40402230E+04</rscale>
<asrwt>0</asrwt>
<pdfrwt beam="1">  1        2 0.26852736E+00 0.40402230E+04</pdfrwt>
<pdfrwt beam="2">  1       -2 0.35969585E+00 0.40402230E+04</pdfrwt>
<totfact> 0.98246481E-02</totfact>
</mgrwt>
</event>
<event>
 6    1  0.2238133E-007  0.9152967E+03  0.7818608E-02  0.9406659E-01
          1   -1    0    0  501    0  0.00000000000E+00  0.00000000000E+00  0.16919543931E+03  0.16919543931E+03  0.00000000000E+00 0. -1.
         -1   -1    0    0    0  501 -0.00000000000E+00 -0.00000000000E+00 -0.12378704179E+04  0.12378704179E+04  0.00000000000E+00 0.  1.
         23    2    1    2    0    0 -0.28493184758E+03 -0.35071654823E+03 -0.59701468053E+03  0.75388005537E+03  0.87865545841E+02 0.  0.
         13    1    3    3    0    0 -0.82734941018E+02 -0.15846583741E+03 -0.19507497998E+03  0.26459542685E+03  0.00000000000E+00 0.  1.
        -13    1    3    3    0    0 -0.20219690656E+03 -0.19225071082E+03 -0.40193970054E+03  0.48928462852E+03  0.00000000000E+00 0. -1.
         22    1    1    2    0    0  0.28493184758E+03  0.35071654823E+03 -0.47166029806E+03  0.65318580185E+03  0.00000000000E+00 0. -1.
<mgrwt>
<rscale>  0 0.91529674E+03</rscale>
<asrwt>0</asrwt>
<pdfrwt beam="1">  1        1 0.26030069E-01 0.91529674E+03</pdfrwt>
<pdfrwt beam="2">  1       -1 0.19044159E+00 0.91529674E+03</pdfrwt>
<totfact> 0.32818063E+01</totfact>
</mgrwt>
</event>
<event>
 6    1  0.2238133E-007  0.3436298E+04  0.7818608E-02  0.8129055E-01
          2   -1    0    0  501    0  0.00000000000E+00  0.00000000000E+00  0.46720101173E+04  0.46720101173E+04  0.00000000000E+00 0. -1.
         -2   -1    0    0    0  501 -0.00000000000E+00 -0.00000000000E+00 -0.63185548796E+03  0.63185548796E+03  0.00000000000E+00 0.  1.
         23    2    1    2    0    0  0.87466356979E+03 -0.49820094868E+03  0.41683318210E+04  0.42891390716E+04  0.92104612974E+02 0.  0.
         11    1    3    3    0    0  0.71404464377E+03 -0.36475483810E+03  0.33383329374E+04  0.34332743331E+04  0.00000000000E+00 0.  1.
        -11    1    3    3    0    0  0.16061892602E+03 -0.13344611059E+03  0.82999888358E+03  0.85586473848E+03  0.00000000000E+00 0. -1.
         22    1    1    2    0    0 -0.87466356979E+03  0.49820094868E+03 -0.12817719170E+03  0.10147265336E+04  0.00000000000E+00 0.  1.
<mgrwt>
<rscale>  0 0.34362976E+04</rscale>
<asrwt>0</asrwt>
<pdfrwt beam="1">  1        2 0.71877076E+00 0.34362976E+04</pdfrwt>
<pdfrwt beam="2">  1       -2 0.97208540E-01 0.34362976E+04</pdfrwt>
<totfact> 0.59656587E-02</totfact>
</mgrwt>
</event>
<event>
 6    1  0.2238133E-007  0.5970484E+04  0.7818608E-02  0.7694072E-01
          2   -1    0    0  501    0  0.00000000000E+00  0.00000000000E+00  0.34152931450E+04  0.34152931450E+04  0.00000000000E+00 0. -1.
         -2   -1    0    0    0  501 -0.00000000000E+00 -0.00000000000E+00 -0.26093424654E+04  0.26093424654E+04  0.00000000000E+00 0.  1.
         23    2    1    2    0    0  0.78792210720E+03 -0.27310756750E+04  0.13213188077E+04  0.31358296465E+04  0.89154869226E+02 0.  0.
         11    1    3    3    0    0  0.76531435066E+03 -0.26742680361E+04  0.13051094770E+04  0.30725764972E+04  0.00000000000E+00 0.  1.
        -11    1    3    3    0    0  0.22607756539E+02 -0.56807638920E+02  0.16209330663E+02  0.63253149297E+02  0.00000000000E+00 0. -1.
         22    1    1    2    0    0 -0.78792210720E+03  0.27310756750E+04 -0.51536812808E+03  0.28888059639E+04  0.00000000000E+00 0. -1.
<mgrwt>
<rscale>  0 0.59704839E+04</rscale>
<asrwt>0</asrwt>
<pdfrwt beam="1">  1        2 0.52542972E+00 0.59704839E+04</pdfrwt>
<pdfrwt beam="2">  1       -2 0.40143730E+00 0.59704839E+04</pdfrwt>
<totfact> 0.45586377E-03</totfact>
</mgrwt>
</event>
<event>
 6    1  0.2238133E-007  0.1811674E+04  0.7818608E-02  0.8700116E-01
         -2   -1    0    0    0  501 -0.00000000000E+00  0.00000000000E+00  0.48495095036E+03  0.48495095036E+03  0.00000000000E+00 0.  1.
          2   -1    0    0  501    0  0.00000000000E+00 -0.00000000000E+00 -0.16920070842E+04  0.16920070842E+04  0.00000000000E+00 0. -1.
         23    2    1    2    0    0  0.64315316283E+03  0.63399107929E+03 -0.57694130953E+03  0.10757607900E+04  0.93857995285E+02 0.  0.
         11    1    3    3    0    0  0.39092291897E+03  0.44218835644E+03 -0.35266476898E+03  0.68754906037E+03  0.00000000000E+00 0.  1.
        -11    1    3    3    0    0  0.25223024387E+03  0.19180272286E+03 -0.22427654055E+03  0.38821172967E+03  0.00000000000E+00 0. -1.
         22    1    1    2    0    0 -0.64315316283E+03 -0.63399107929E+03 -0.63011482430E+03  0.11011972445E+04  0.00000000000E+00 0.  1.
<mgrwt>
<rscale>  0 0.18116737E+04</rscale>
<asrwt>0</asrwt>
<pdfrwt beam="1">  1        2 0.26030878E+00 0.18116737E+04</pdfrwt>
<pdfrwt beam="2">  1       -2 0.74607839E-01 0.18116737E+04</pdfrwt>
<totfact> 0.15095433E+01</totfact>
</mgrwt>
</event>
<event>
 6    1  0.2238133E-007  0.3465719E+04  0.7818608E-02  0.8121963E-01
          2   -1    0    0  501    0  0.00000000000E+00  0.00000000000E+00  0.10169725835E+04  0.10169725835E+04  0.00000000000E+00 0. -1.
         -2   -1    0    0    0  501 -0.00000000000E+00 -0.00000000000E+00 -0.29526866462E+04  0.29526866462E+04  0.00000000000E+00 0.  1.
         23    2    1    2    0    0  0.40033023685E+02  0.17311450252E+04 -0.96437693457E+03  0.19842218578E+04  0.92993374837E+02 0.  0.
         13    1    3    3    0    0  0.30110687255E+02  0.14228819617E+04 -0.75109553456E+03  0.16092371585E+04  0.00000000000E+00 0. -1.
        -13    1    3    3    0    0  0.99223364309E+01  0.30826306349E+03 -0.21328140001E+03  0.37498469924E+03  0.00000000000E+00 0.  1.
         22    1    1    2    0    0 -0.40033023685E+02 -0.17311450252E+04 -0.97133712815E+03  0.19854373719E+04  0.00000000000E+00 0. -1.
<mgrwt>
<rscale>  0 0.34657186E+04</rscale>
<asrwt>0</asrwt>
<pdfrwt beam="1">  1        2 0.15645732E+00 0.34657186E+04</pdfrwt>
<pdfrwt beam="2">  1       -2 0.45425948E+00 0.34657186E+04</pdfrwt>
<totfact> 0.65771875E-02</totfact>
</mgrwt>
</event>
<event>
 6    1  0.2238133E-007  0.2655383E+04  0.7818608E-02  0.8349629E-01
         -2   -1    0    0    0  501 -0.00000000000E+00  0.00000000000E+00  0.10759786861E+04  0.10759786861E+04  0.00000000000E+00 0.  1.
          2   -1    0    0  501    0  0.00000000000E+00 -0.00000000000E+00 -0.16382892553E+04  0.16382892553E+04  0.00000000000E+00 0. -1.
         23    2    1    2    0    0  0.93749401190E+03  0.74659724556E+03  0.29850581894E+03  0.12386977724E+04  0.94678286184E+02 0.  0.
         11    1    3    3    0    0  0.43288014882E+03  0.33995447132E+03  0.18562873334E+03  0.58087201039E+03  0.00000000000E+00 0. -1.
        -11    1    3    3    0    0  0.50461386309E+03  0.40664277424E+03  0.11287708560E+03  0.65782576197E+03  0.00000000000E+00 0.  1.
         22    1    1    2    0    0 -0.93749401190E+03 -0.74659724556E+03 -0.86081638819E+03  0.14755701690E+04  0.00000000000E+00 0. -1.
<mgrwt>
<rscale>  0 0.26553827E+04</rscale>
<asrwt>0</asrwt>
<pdfrwt beam="1">  1        2 0.25204450E+00 0.26553827E+04</pdfrwt>
<pdfrwt beam="2">  1       -2 0.16553518E+00 0.26553827E+04</pdfrwt>
<totfact> 0.21451527E+00</totfact>
</mgrwt>
</event>
<event>
 6    1  0.2238133E-007  0.2865959E+04  0.7818608E-02  0.8283078E-01
         -2   -1    0    0    0  501 -0.00000000000E+00  0.00000000000E+00  0.22892961292E+04  0.22892961292E+04  0.00000000000E+00 0.  1.
          2   -1    0    0  501    0  0.00000000000E+00 -0.00000000000E+00 -0.89696984884E+03  0.89696984884E+03  0.00000000000E+00 0. -1.
         23    2    1    2    0    0 -0.11295151666E+03  0.76566735899E+03 -0.64195917233E+03  0.10097270161E+04  0.91828745052E+02 0.  0.
         11    1    3    3    0    0 -0.11928854580E+02  0.16507825201E+03 -0.93227541188E+02  0.18995920956E+03  0.00000000000E+00 0.  1.
        -11    1    3    3    0    0 -0.10102266208E+03  0.60058910698E+03 -0.54873163114E+03  0.81976780657E+03  0.00000000000E+00 0. -1.
         22    1    1    2    0    0  0.11295151666E+03 -0.76566735899E+03  0.20342854527E+04  0.21765389619E+04  0.00000000000E+00 0.  1.
<mgrwt>
<rscale>  0 0.28659586E+04</rscale>
<asrwt>0</asrwt>
<pdfrwt beam="1">  1        2 0.13799536E+00 0.28659586E+04</pdfrwt>
<pdfrwt beam="2">  1       -2 0.35219940E+00 0.28659586E+04</pdfrwt>
<totfact> 0.38416043E-01</totfact>
</mgrwt>
</event>
<event>
 6    1  0.2316018E-007  0.2757827E+04  0.7818608E-02  0.8316482E-01
          2   -1    0    0  501    0  0.00000000000E+00  0.00000000000E+00  0.22246346030E+04  0.22246346030E+04  0.00000000000E+00 0. -1.
         -2   -1    0    0    0  501 -0.00000000000E+00 -0.00000000000E+00 -0.85470339021E+03  0.85470339021E+03  0.00000000000E+00 0.  1.
         23    2    1    2    0    0  0.14873102136E+02  0.55857746847E+03 -0.71992326095E+03  0.91607154664E+03  0.93099836013E+02 0.  0.
         13    1    3    3    0    0 -0.95696318745E+01  0.18901458098E+03 -0.31356084233E+03  0.36624922050E+03  0.00000000000E+00 0.  1.
        -13    1    3    3    0    0  0.24442734011E+02  0.36956288749E+03 -0.40636241862E+03  0.54982232614E+03  0.00000000000E+00 0. -1.
         22    1    1    2    0    0 -0.14873102136E+02 -0.55857746847E+03  0.20898544738E+04  0.21632664466E+04  0.00000000000E+00 0. -1.
<mgrwt>
<rscale>  0 0.27578272E+04</rscale>
<asrwt>0</asrwt>
<pdfrwt beam="1">  1        2 0.34225148E+00 0.27578272E+04</pdfrwt>
<pdfrwt beam="2">  1       -2 0.13149283E+00 0.27578272E+04</pdfrwt>
<totfact> 0.18422889E+00</totfact>
</mgrwt>
</event>
<event>
 6    1  0.2238133E-007  0.8484178E+03  0.7818608E-02  0.9492463E-01
         -2   -1    0    0    0  501 -0.00000000000E+00  0.00000000000E+00  0.96007822879E+02  0.96007822879E+02  0.00000000000E+00 0.  1.
          2   -1    0    0  501    0  0.00000000000E+00 -0.00000000000E+00 -0.18743594833E+04  0.18743594833E+04  0.00000000000E+00 0. -1.
         23    2    1    2    0    0  0.12775791203E+03  0.14627573990E+03 -0.17624657505E+04  0.17755057186E+04  0.91740717186E+02 0.  0.
         13    1    3    3    0    0  0.52844090138E+02  0.11889234009E+03 -0.12667453720E+04  0.12734094879E+04  0.00000000000E+00 0. -1.
        -13    1    3    3    0    0  0.74913821890E+02  0.27383399807E+02 -0.49572037846E+03  0.50209623073E+03  0.00000000000E+00 0.  1.
         22    1    1    2    0    0 -0.12775791203E+03 -0.14627573990E+03 -0.15885909971E+02  0.19486158756E+03  0.00000000000E+00 0.  1.
<mgrwt>
<rscale>  0 0.84841776E+03</rscale>
<asrwt>0</asrwt>
<pdfrwt beam="1">  1        2 0.28836299E+00 0.84841776E+03</pdfrwt>
<pdfrwt beam="2">  1       -2 0.14770435E-01 0.84841776E+03</pdfrwt>
<totfact> 0.28591968E+02</totfact>
</mgrwt>
</event>
<event>
 6    1  0.2238133E-007  0.2180357E+04  0.7818608E-02  0.8526649E-01
         -2   -1    0    0    0  501 -0.00000000000E+00  0.00000000000E+00  0.10166119671E+04  0.10166119671E+04  0.00000000000E+00 0.  1.
          2   -1    0    0  501    0  0.00000000000E+00 -0.00000000000E+00 -0.11690685386E+04  0.11690685386E+04  0.00000000000E+00 0. -1.
         23    2    1    2    0    0 -0.98362558235E+03  0.28394755391E+03  0.29353236726E+03  0.10689658451E+04  0.91549045177E+02 0.  0.
         13    1    3    3    0    0 -0.61694583420E+03  0.21985459565E+03  0.20588751729E+03  0.68654779538E+03  0.00000000000E+00 0. -1.
        -13    1    3    3    0    0 -0.36667974816E+03  0.64092958254E+02  0.87644849972E+02  0.38241804970E+03  0.00000000000E+00 0.  1.
         22    1    1    2    0    0  0.98362558235E+03 -0.28394755391E+03 -0.44598893875E+03  0.11167146606E+04  0.00000000000E+00 0.  1.
<mgrwt>
<rscale>  0 0.21803569E+04</rscale>
<asrwt>0</asrwt>
<pdfrwt beam="1">  1        2 0.17985670E+00 0.21803569E+04</pdfrwt>
<pdfrwt beam="2">  1       -2 0.15640184E+00 0.21803569E+04</pdfrwt>
<totfact> 0.48496431E+00</totfact>
</mgrwt>
</event>
<event>
 6    1  0.2238133E-007  0.6478943E+03  0.7818608E-02  0.9810738E-01
         -2   -1    0    0    0  501 -0.00000000000E+00  0.00000000000E+00  0.17573520536E+03  0.17573520536E+03  0.00000000000E+00 0.  1.
          2   -1    0    0  501    0  0.00000000000E+00 -0.00000000000E+00 -0.59715833794E+03  0.59715833794E+03  0.00000000000E+00 0. -1.
         23    2    1    2    0    0  0.17242566700E+03  0.22802579108E+03 -0.50112890525E+02  0.30428105105E+03  0.91374417625E+02 0.  0.
         11    1    3    3    0    0  0.16814972725E+03  0.16142392750E+03 -0.33319815878E+02  0.23546172783E+03  0.00000000000E+00 0. -1.
        -11    1    3    3    0    0  0.42759397547E+01  0.66601863579E+02 -0.16793074647E+02  0.68819323225E+02  0.00000000000E+00 0.  1.
         22    1    1    2    0    0 -0.17242566700E+03 -0.22802579108E+03 -0.37131024205E+03  0.46861249225E+03  0.00000000000E+00 0. -1.
<mgrwt>
<rscale>  0 0.64789426E+03</rscale>
<asrwt>0</asrwt>
<pdfrwt beam="1">  1        2 0.91870514E-01 0.64789426E+03</pdfrwt>
<pdfrwt beam="2">  1       -2 0.27036185E-01 0.64789426E+03</pdfrwt>
<totfact> 0.62351885E+02</totfact>
</mgrwt>
</event>
<event>
 6    1  0.2238133E-007  0.1282302E+04  0.7818608E-02  0.9043718E-01
          2   -1    0    0  501    0  0.00000000000E+00  0.00000000000E+00  0.58924552091E+03  0.58924552091E+03  0.00000000000E+00 0. -1.
         -2   -1    0    0    0  501 -0.00000000000E+00 -0.00000000000E+00 -0.69762922194E+03  0.69762922194E+03  0.00000000000E+00 0.  1.
         23    2    1    2    0    0 -0.44168797901E+03 -0.37303250567E+02 -0.51487741778E+03  0.68544565721E+03  0.90869083571E+02 0.  0.
         11    1    3    3    0    0 -0.20704390522E+03  0.28579192478E+01 -0.17867773444E+03  0.27349785955E+03  0.00000000000E+00 0. -1.
        -11    1    3    3    0    0 -0.23464407379E+03 -0.40161169815E+02 -0.33619968334E+03  0.41194779767E+03  0.00000000000E+00 0.  1.
         22    1    1    2    0    0  0.44168797901E+03  0.37303250567E+02  0.40649371674E+03  0.60142908564E+03  0.00000000000E+00 0. -1.
<mgrwt>
<rscale>  0 0.12823025E+04</rscale>
<asrwt>0</asrwt>
<pdfrwt beam="1">  1        2 0.90653157E-01 0.12823025E+04</pdfrwt>
<pdfrwt beam="2">  1       -2 0.10732757E+00 0.12823025E+04</pdfrwt>
<totfact> 0.34691658E+01</totfact>
</mgrwt>
</event>
<event>
 6    1  0.2238133E-007  0.3311815E+04  0.7818608E-02  0.8159895E-01
         -2   -1    0    0    0  501 -0.00000000000E+00  0.00000000000E+00  0.10707864401E+04  0.10707864401E+04  0.00000000000E+00 0.  1.
          2   -1    0    0  501    0  0.00000000000E+00 -0.00000000000E+00 -0.25607630449E+04  0.25607630449E+04  0.00000000000E+00 0. -1.
         23    2    1    2    0    0  0.10939257383E+04  0.12163768358E+04 -0.47343646710E+03  0.17055172996E+04  0.91657205128E+02 0.  0.
         13    1    3    3    0    0  0.46589146675E+03  0.58530933673E+03 -0.20803412407E+03  0.77647928190E+03  0.00000000000E+00 0.  1.
        -13    1    3    3    0    0  0.62803427154E+03  0.63106749907E+03 -0.26540234303E+03  0.92903801768E+03  0.00000000000E+00 0. -1.
         22    1    1    2    0    0 -0.10939257383E+04 -0.12163768358E+04 -0.10165401377E+04  0.19260321854E+04  0.00000000000E+00 0. -1.
<mgrwt>
<rscale>  0 0.33118154E+04</rscale>
<asrwt>0</asrwt>
<pdfrwt beam="1">  1        2 0.39396354E+00 0.33118154E+04</pdfrwt>
<pdfrwt beam="2">  1       -2 0.16473638E+00 0.33118154E+04</pdfrwt>
<totfact> 0.62246255E-01</totfact>
</mgrwt>
</event>
<event>
 6    1  0.2238133E-007  0.9467843E+03  0.7818608E-02  0.9368917E-01
          1   -1    0    0  501    0  0.00000000000E+00  0.00000000000E+00  0.18032505358E+03  0.18032505358E+03  0.00000000000E+00 0. -1.
         -1   -1    0    0    0  501 -0.00000000000E+00 -0.00000000000E+00 -0.12427563986E+04  0.12427563986E+04  0.00000000000E+00 0.  1.
         23    2    1    2    0    0 -0.40419952074E+03 -0.23760245799E+03 -0.51892313298E+03  0.70528387825E+03  0.91169898303E+02 0.  0.
         13    1    3    3    0    0 -0.29233040882E+03 -0.21408740751E+03 -0.41330856681E+03  0.54964939496E+03  0.00000000000E+00 0.  1.
        -13    1    3    3    0    0 -0.11186911192E+03 -0.23515050481E+02 -0.10561456617E+03  0.15563448329E+03  0.00000000000E+00 0. -1.
         22    1    1    2    0    0  0.40419952074E+03  0.23760245799E+03 -0.54350821208E+03  0.71779757398E+03  0.00000000000E+00 0.  1.
<mgrwt>
<rscale>  0 0.94678427E+03</rscale>
<asrwt>0</asrwt>
<pdfrwt beam="1">  1        1 0.27742317E-01 0.94678427E+03</pdfrwt>
<pdfrwt beam="2">  1       -1 0.19119329E+00 0.94678427E+03</pdfrwt>
<totfact> 0.29758655E+01</totfact>
</mgrwt>
</event>
<event>
 6    1  0.2238133E-007  0.8713929E+03  0.7818608E-02  0.9462066E-01
         -2   -1    0    0    0  501 -0.00000000000E+00  0.00000000000E+00  0.16393159413E+03  0.16393159413E+03  0.00000000000E+00 0.  1.
          2   -1    0    0  501    0  0.00000000000E+00 -0.00000000000E+00 -0.11579915252E+04  0.11579915252E+04  0.00000000000E+00 0. -1.
         23    2    1    2    0    0  0.39161335549E+03  0.12162172106E+03 -0.70312880447E+03  0.81913709760E+03  0.91883653399E+02 0.  0.
         11    1    3    3    0    0  0.16493480677E+03  0.10985814822E+02 -0.23398789548E+03  0.28648649853E+03  0.00000000000E+00 0. -1.
        -11    1    3    3    0    0  0.22667854871E+03  0.11063590624E+03 -0.46914090899E+03  0.53265059906E+03  0.00000000000E+00 0.  1.
         22    1    1    2    0    0 -0.39161335549E+03 -0.12162172106E+03 -0.29093112663E+03  0.50278602175E+03  0.00000000000E+00 0.  1.
<mgrwt>
<rscale>  0 0.87139290E+03</rscale>
<asrwt>0</asrwt>
<pdfrwt beam="1">  1        2 0.17815254E+00 0.87139290E+03</pdfrwt>
<pdfrwt beam="2">  1       -2 0.25220245E-01 0.87139290E+03</pdfrwt>
<totfact> 0.28404313E+02</totfact>
</mgrwt>
</event>
<event>
 6    1  0.2238133E-007  0.1692544E+04  0.7818608E-02  0.8765628E-01
          2   -1    0    0  501    0  0.00000000000E+00  0.00000000000E+00  0.13261902114E+04  0.13261902114E+04  0.00000000000E+00 0. -1.
         -2   -1    0    0    0  501 -0.00000000000E+00 -0.00000000000E+00 -0.54002528824E+03  0.54002528824E+03  0.00000000000E+00 0.  1.
         23    2    1    2    0    0  0.68334749975E+03  0.29894243293E+03  0.82933600870E+03  0.11190915968E+04  0.90760139929E+02 0.  0.
         11    1    3    3    0    0  0.47903537992E+03  0.19017216305E+03  0.62712039809E+03  0.81173908401E+03  0.00000000000E+00 0. -1.
        -11    1    3    3    0    0  0.20431211984E+03  0.10877026988E+03  0.20221561061E+03  0.30735251276E+03  0.00000000000E+00 0.  1.
         22    1    1    2    0    0 -0.68334749975E+03 -0.29894243293E+03 -0.43171085540E+02  0.74712390288E+03  0.00000000000E+00 0.  1.
<mgrwt>
<rscale>  0 0.16925439E+04</rscale>
<asrwt>0</asrwt>
<pdfrwt beam="1">  1        2 0.20402926E+00 0.16925439E+04</pdfrwt>
<pdfrwt beam="2">  1       -2 0.83080814E-01 0.16925439E+04</pdfrwt>
<totfact> 0.19287830E+01</totfact>
</mgrwt>
</event>
<event>
 6    1  0.2238133E-007  0.2396839E+04  0.7818608E-02  0.8440688E-01
          2   -1    0    0  501    0  0.00000000000E+00  0.00000000000E+00  0.15491830317E+04  0.15491830317E+04  0.00000000000E+00 0. -1.
         -2   -1    0    0    0  501 -0.00000000000E+00 -0.00000000000E+00 -0.92707561480E+03  0.92707561480E+03  0.00000000000E+00 0.  1.
         23    2    1    2    0    0  0.48745576322E+03 -0.58917973057E+03  0.12624649612E+04  0.14788602003E+04  0.91999117946E+02 0.  0.
         11    1    3    3    0    0  0.91318357802E+02 -0.16750005937E+03  0.28359194808E+03  0.34178897785E+03  0.00000000000E+00 0.  1.
        -11    1    3    3    0    0  0.39613740542E+03 -0.42167967120E+03  0.97887301309E+03  0.11370712224E+04  0.00000000000E+00 0. -1.
         22    1    1    2    0    0 -0.48745576322E+03  0.58917973057E+03 -0.64035754429E+03  0.99739844623E+03  0.00000000000E+00 0.  1.
<mgrwt>
<rscale>  0 0.23968394E+04</rscale>
<asrwt>0</asrwt>
<pdfrwt beam="1">  1        2 0.23833585E+00 0.23968394E+04</pdfrwt>
<pdfrwt beam="2">  1       -2 0.14262702E+00 0.23968394E+04</pdfrwt>
<totfact> 0.36656773E+00</totfact>
</mgrwt>
</event>
<event>
 6    1  0.2238133E-007  0.2567942E+04  0.7818608E-02  0.8379173E-01
         -2   -1    0    0    0  501 -0.00000000000E+00  0.00000000000E+00  0.33802734760E+03  0.33802734760E+03  0.00000000000E+00 0.  1.
          2   -1    0    0  501    0  0.00000000000E+00 -0.00000000000E+00 -0.48770663336E+04  0.48770663336E+04  0.00000000000E+00 0. -1.
         23    2    1    2    0    0 -0.96065713944E+02  0.12092279622E+04 -0.14262593311E+04  0.18743066383E+04  0.85725194423E+02 0.  0.
         11    1    3    3    0    0 -0.17415976643E+02  0.67053464020E+03 -0.75136170585E+03  0.10072062514E+04  0.00000000000E+00 0. -1.
        -11    1    3    3    0    0 -0.78649737301E+02  0.53869332199E+03 -0.67489762521E+03  0.86710038683E+03  0.00000000000E+00 0.  1.
         22    1    1    2    0    0  0.96065713944E+02 -0.12092279622E+04 -0.31127796550E+04  0.33407870429E+04  0.00000000000E+00 0. -1.
<mgrwt>
<rscale>  0 0.25679422E+04</rscale>
<asrwt>0</asrwt>
<pdfrwt beam="1">  1        2 0.75031793E+00 0.25679422E+04</pdfrwt>
<pdfrwt beam="2">  1       -2 0.52004205E-01 0.25679422E+04</pdfrwt>
<totfact> 0.15123452E-01</totfact>
</mgrwt>
</event>
<event>
 6    1  0.2238133E-007  0.6062401E+04  0.7818608E-02  0.7682713E-01
          2   -1    0    0  501    0  0.00000000000E+00  0.00000000000E+00  0.29081131575E+04  0.29081131575E+04  0.00000000000E+00 0. -1.
         -2   -1    0    0    0  501 -0.00000000000E+00 -0.00000000000E+00 -0.31594978994E+04  0.31594978994E+04  0.00000000000E+00 0.  1.
         23    2    1    2    0    0  0.21987193968E+04 -0.71553076958E+03  0.18350026056E+04  0.29532309530E+04  0.89371308570E+02 0.  0.
         11    1    3    3    0    0  0.18798857144E+04 -0.57832318780E+03  0.15568136937E+04  0.25084052474E+04  0.00000000000E+00 0.  1.
        -11    1    3    3    0    0  0.31883368248E+03 -0.13720758177E+03  0.27818891192E+03  0.44482570552E+03  0.00000000000E+00 0. -1.
         22    1    1    2    0    0 -0.21987193968E+04  0.71553076958E+03 -0.20863873475E+04  0.31143801040E+04  0.00000000000E+00 0.  1.
<mgrwt>
<rscale>  0 0.60624013E+04</rscale>
<asrwt>0</asrwt>
<pdfrwt beam="1">  1        2 0.44740203E+00 0.60624013E+04</pdfrwt>
<pdfrwt beam="2">  1       -2 0.48607660E+00 0.60624013E+04</pdfrwt>
<totfact> 0.27107756E-03</totfact>
</mgrwt>
</event>
<event>
 6    1  0.2238133E-007  0.2769718E+04  0.7818608E-02  0.8312732E-01
         -2   -1    0    0    0  501 -0.00000000000E+00  0.00000000000E+00  0.75146937184E+03  0.75146937184E+03  0.00000000000E+00 0.  1.
          2   -1    0    0  501    0  0.00000000000E+00 -0.00000000000E+00 -0.25521125967E+04  0.25521125967E+04  0.00000000000E+00 0. -1.
         23    2    1    2    0    0 -0.46050499691E+03 -0.12962997569E+04 -0.72890579227E+03  0.15597129837E+04  0.94567572302E+02 0.  0.
         11    1    3    3    0    0 -0.15608143031E+03 -0.57818307944E+03 -0.32351723671E+03  0.68067649342E+03  0.00000000000E+00 0. -1.
        -11    1    3    3    0    0 -0.30442356660E+03 -0.71811667742E+03 -0.40538855556E+03  0.87903649030E+03  0.00000000000E+00 0.  1.
         22    1    1    2    0    0  0.46050499691E+03  0.12962997569E+04 -0.10717374326E+04  0.17438689848E+04  0.00000000000E+00 0. -1.
<mgrwt>
<rscale>  0 0.27697180E+04</rscale>
<asrwt>0</asrwt>
<pdfrwt beam="1">  1        2 0.39263270E+00 0.27697180E+04</pdfrwt>
<pdfrwt beam="2">  1       -2 0.11561067E+00 0.27697180E+04</pdfrwt>
<totfact> 0.16478479E+00</totfact>
</mgrwt>
</event>
<event>
 6    1  0.2238133E-007  0.1987682E+04  0.7818608E-02  0.8612401E-01
         -2   -1    0    0    0  501 -0.00000000000E+00  0.00000000000E+00  0.23179796492E+03  0.23179796492E+03  0.00000000000E+00 0.  1.
          2   -1    0    0  501    0  0.00000000000E+00 -0.00000000000E+00 -0.42611257005E+04  0.42611257005E+04  0.00000000000E+00 0. -1.
         23    2    1    2    0    0  0.36927370619E+02 -0.98259012359E+03 -0.17260858635E+04  0.19885734298E+04  0.90580879042E+02 0.  0.
         13    1    3    3    0    0  0.50679884872E+02 -0.33948045257E+03 -0.55958043330E+03  0.65646453807E+03  0.00000000000E+00 0. -1.
        -13    1    3    3    0    0 -0.13752514253E+02 -0.64310967102E+03 -0.11665054302E+04  0.13321088917E+04  0.00000000000E+00 0.  1.
         22    1    1    2    0    0 -0.36927370619E+02  0.98259012359E+03 -0.23032418720E+04  0.25043502356E+04  0.00000000000E+00 0. -1.
<mgrwt>
<rscale>  0 0.19876823E+04</rscale>
<asrwt>0</asrwt>
<pdfrwt beam="1">  1        2 0.65555782E+00 0.19876823E+04</pdfrwt>
<pdfrwt beam="2">  1       -2 0.35661224E-01 0.19876823E+04</pdfrwt>
<totfact> 0.14320940E+00</totfact>
</mgrwt>
</event>
<event>
 6    1  0.2238133E-007  0.2787345E+04  0.7818608E-02  0.8307208E-01
          2   -1    0    0  501    0  0.00000000000E+00  0.00000000000E+00  0.16220781025E+04  0.16220781025E+04  0.00000000000E+00 0. -1.
         -2   -1    0    0    0  501 -0.00000000000E+00 -0.00000000000E+00 -0.11974291749E+04  0.11974291749E+04  0.00000000000E+00 0.  1.
         23    2    1    2    0    0  0.10047645564E+04 -0.82135989792E+03 -0.29830463871E+03  0.13339616689E+04  0.79272826397E+02 0.  0.
         13    1    3    3    0    0  0.99819674527E+02 -0.11420512693E+03 -0.37509145505E+02  0.15624888619E+03  0.00000000000E+00 0.  1.
        -13    1    3    3    0    0  0.90494488188E+03 -0.70715477099E+03 -0.26079549320E+03  0.11777127827E+04  0.00000000000E+00 0. -1.
         22    1    1    2    0    0 -0.10047645564E+04  0.82135989792E+03  0.72295356638E+03  0.14855456085E+04  0.00000000000E+00 0. -1.
<mgrwt>
<rscale>  0 0.27873454E+04</rscale>
<asrwt>0</asrwt>
<pdfrwt beam="1">  1        2 0.24955048E+00 0.27873454E+04</pdfrwt>
<pdfrwt beam="2">  1       -2 0.18421987E+00 0.27873454E+04</pdfrwt>
<totfact> 0.16016795E+00</totfact>
</mgrwt>
</event>
<event>
 6    1  0.2238133E-007  0.1076890E+04  0.7818608E-02  0.9228014E-01
          2   -1    0    0  501    0  0.00000000000E+00  0.00000000000E+00  0.48207657220E+03  0.48207657220E+03  0.00000000000E+00 0. -1.
         -2   -1    0    0    0  501 -0.00000000000E+00 -0.00000000000E+00 -0.60140438570E+03  0.60140438570E+03  0.00000000000E+00 0.  1.
         23    2    1    2    0    0 -0.28474580734E+03  0.23366430024E+02  0.39571384716E+03  0.49450381311E+03  0.79488411090E+02 0.  0.
         11    1    3    3    0    0 -0.17313902783E+03  0.43651048695E+02  0.19848691962E+03  0.26698238570E+03  0.00000000000E+00 0. -1.
        -11    1    3    3    0    0 -0.11160677951E+03 -0.20284618671E+02  0.19722692754E+03  0.22752142742E+03  0.00000000000E+00 0.  1.
         22    1    1    2    0    0  0.28474580734E+03 -0.23366430024E+02 -0.51504166066E+03  0.58897714478E+03  0.00000000000E+00 0.  1.
<mgrwt>
<rscale>  0 0.10768899E+04</rscale>
<asrwt>0</asrwt>
<pdfrwt beam="1">  1        2 0.74165627E-01 0.10768899E+04</pdfrwt>
<pdfrwt beam="2">  1       -2 0.92523751E-01 0.10768899E+04</pdfrwt>
<totfact> 0.63341096E+01</totfact>
</mgrwt>
</event>
<event>
 6    1  0.2238133E-007  0.6762354E+03  0.7818608E-02  0.9758759E-01
         -2   -1    0    0    0  501 -0.00000000000E+00  0.00000000000E+00  0.85097946619E+02  0.85097946619E+02  0.00000000000E+00 0.  1.
          2   -1    0    0  501    0  0.00000000000E+00 -0.00000000000E+00 -0.13434353781E+04  0.13434353781E+04  0.00000000000E+00 0. -1.
         23    2    1    2    0    0  0.78789048022E+02 -0.31812122984E+03 -0.54489698055E+03  0.64341797779E+03  0.98311463023E+02 0.  0.
         13    1    3    3    0    0  0.25004764042E+02 -0.24860709796E+03 -0.35441844947E+03  0.43363944090E+03  0.00000000000E+00 0.  1.
        -13    1    3    3    0    0  0.53784283980E+02 -0.69514131879E+02 -0.19047853109E+03  0.20977853689E+03  0.00000000000E+00 0. -1.
         22    1    1    2    0    0 -0.78789048022E+02  0.31812122984E+03 -0.71344045092E+03  0.78511534692E+03  0.00000000000E+00 0. -1.
<mgrwt>
<rscale>  0 0.67623544E+03</rscale>
<asrwt>0</asrwt>
<pdfrwt beam="1">  1        2 0.20668238E+00 0.67623544E+03</pdfrwt>
<pdfrwt beam="2">  1       -2 0.13091991E-01 0.67623544E+03</pdfrwt>
<totfact> 0.69564696E+02</totfact>
</mgrwt>
</event>
<event>
 6    1  0.2238133E-007  0.1252433E+04  0.7818608E-02  0.9068161E-01
         -2   -1    0    0    0  501 -0.00000000000E+00  0.00000000000E+00  0.27721238120E+03  0.27721238120E+03  0.00000000000E+00 0.  1.
          2   -1    0    0  501    0  0.00000000000E+00 -0.00000000000E+00 -0.14146080248E+04  0.14146080248E+04  0.00000000000E+00 0. -1.
         23    2    1    2    0    0 -0.82575855297E+02  0.35996846181E+03 -0.12493930932E+04  0.13058936071E+04  0.89324948585E+02 0.  0.
         13    1    3    3    0    0 -0.50894268208E+02  0.22602754916E+03 -0.92367813496E+03  0.95229195970E+03  0.00000000000E+00 0.  1.
        -13    1    3    3    0    0 -0.31681587089E+02  0.13394091265E+03 -0.32571495821E+03  0.35360164740E+03  0.00000000000E+00 0. -1.
         22    1    1    2    0    0  0.82575855297E+02 -0.35996846181E+03  0.11199744960E+03  0.38592679887E+03  0.00000000000E+00 0.  1.
<mgrwt>
<rscale>  0 0.12524326E+04</rscale>
<asrwt>0</asrwt>
<pdfrwt beam="1">  1        2 0.21763200E+00 0.12524326E+04</pdfrwt>
<pdfrwt beam="2">  1       -2 0.42648059E-01 0.12524326E+04</pdfrwt>
<totfact> 0.72715718E+01</totfact>
</mgrwt>
</event>
<event>
 6    1  0.2238133E-007  0.3409041E+04  0.7818608E-02  0.8135691E-01
          2   -1    0    0  501    0  0.00000000000E+00  0.00000000000E+00  0.28380807584E+04  0.28380807584E+04  0.00000000000E+00 0. -1.
         -2   -1    0    0    0  501 -0.00000000000E+00 -0.00000000000E+00 -0.10237164537E+04  0.10237164537E+04  0.00000000000E+00 0.  1.
         23    2    1    2    0    0  0.10683064216E+04  0.70617663906E+03  0.21801080789E+04  0.25299816977E+04  0.89286610874E+02 0.  0.
         11    1    3    3    0    0  0.73577852737E+03  0.52560870311E+03  0.14884769606E+04  0.17416079387E+04  0.00000000000E+00 0.  1.
        -11    1    3    3    0    0  0.33252789427E+03  0.18056793595E+03  0.69163111831E+03  0.78837375893E+03  0.00000000000E+00 0. -1.
         22    1    1    2    0    0 -0.10683064216E+04 -0.70617663906E+03 -0.36574377412E+03  0.13318155144E+04  0.00000000000E+00 0.  1.
<mgrwt>
<rscale>  0 0.34090409E+04</rscale>
<asrwt>0</asrwt>
<pdfrwt beam="1">  1        2 0.43662781E+00 0.34090409E+04</pdfrwt>
<pdfrwt beam="2">  1       -2 0.15749484E+00 0.34090409E+04</pdfrwt>
<totfact> 0.47697676E-01</totfact>
</mgrwt>
</event>
<event>
 6    1  0.2238133E-007  0.1082451E+04  0.7818608E-02  0.9222467E-01
          2   -1    0    0  501    0  0.00000000000E+00  0.00000000000E+00  0.23128927507E+03  0.23128927507E+03  0.00000000000E+00 0. -1.
         -2   -1    0    0    0  501 -0.00000000000E+00 -0.00000000000E+00 -0.12664875941E+04  0.12664875941E+04  0.00000000000E+00 0.  1.
         23    2    1    2    0    0  0.40197577838E+03 -0.29018798511E+03 -0.23375112774E+03  0.55538035308E+03  0.89521806103E+02 0.  0.
         13    1    3    3    0    0  0.33384555865E+03 -0.24294558966E+03 -0.15496735247E+03  0.44101054058E+03  0.00000000000E+00 0. -1.
        -13    1    3    3    0    0  0.68130219730E+02 -0.47242395442E+02 -0.78783775267E+02  0.11436981251E+03  0.00000000000E+00 0.  1.
         22    1    1    2    0    0 -0.40197577838E+03  0.29018798511E+03 -0.80144719127E+03  0.94239651607E+03  0.00000000000E+00 0.  1.
<mgrwt>
<rscale>  0 0.10824509E+04</rscale>
<asrwt>0</asrwt>
<pdfrwt beam="1">  1        2 0.35582965E-01 0.10824509E+04</pdfrwt>
<pdfrwt beam="2">  1       -2 0.19484425E+00 0.10824509E+04</pdfrwt>
<totfact> 0.20995745E+01</totfact>
</mgrwt>
</event>
<event>
 6    1  0.2238133E-007  0.2942213E+04  0.7818608E-02  0.8260428E-01
         -2   -1    0    0    0  501 -0.00000000000E+00  0.00000000000E+00  0.15565507077E+04  0.15565507077E+04  0.00000000000E+00 0.  1.
          2   -1    0    0  501    0  0.00000000000E+00 -0.00000000000E+00 -0.13903524660E+04  0.13903524660E+04  0.00000000000E+00 0. -1.
         23    2    1    2    0    0 -0.91813624155E+03 -0.14585961836E+03  0.12232934286E+04  0.15391747124E+04  0.91448326773E+02 0.  0.
         13    1    3    3    0    0 -0.35414968346E+03 -0.63670560183E+02  0.40229983903E+03  0.53974169657E+03  0.00000000000E+00 0. -1.
        -13    1    3    3    0    0 -0.56398655810E+03 -0.82189058172E+02  0.82099358958E+03  0.99943301583E+03  0.00000000000E+00 0.  1.
         22    1    1    2    0    0  0.91813624155E+03  0.14585961836E+03 -0.10570951869E+04  0.14077284612E+04  0.00000000000E+00 0. -1.
<mgrwt>
<rscale>  0 0.29422129E+04</rscale>
<asrwt>0</asrwt>
<pdfrwt beam="1">  1        2 0.21390038E+00 0.29422129E+04</pdfrwt>
<pdfrwt beam="2">  1       -2 0.23946934E+00 0.29422129E+04</pdfrwt>
<totfact> 0.94088455E-01</totfact>
</mgrwt>
</event>
<event>
 6    1  0.2238133E-007  0.2199698E+04  0.7818608E-02  0.8518554E-01
          2   -1    0    0  501    0  0.00000000000E+00  0.00000000000E+00  0.19369064066E+04  0.19369064066E+04  0.00000000000E+00 0. -1.
         -2   -1    0    0    0  501 -0.00000000000E+00 -0.00000000000E+00 -0.62453603932E+03  0.62453603932E+03  0.00000000000E+00 0.  1.
         23    2    1    2    0    0 -0.10955805068E+04 -0.35611292399E+02  0.73088815864E+03  0.13206014528E+04  0.90696668876E+02 0.  0.
         13    1    3    3    0    0 -0.32698880250E+03 -0.23902588792E+02  0.17216099588E+03  0.37031394683E+03  0.00000000000E+00 0. -1.
        -13    1    3    3    0    0 -0.76859170432E+03 -0.11708703607E+02  0.55872716276E+03  0.95028750602E+03  0.00000000000E+00 0.  1.
         22    1    1    2    0    0  0.10955805068E+04  0.35611292399E+02  0.58148220863E+03  0.12408409930E+04  0.00000000000E+00 0. -1.
<mgrwt>
<rscale>  0 0.21996980E+04</rscale>
<asrwt>0</asrwt>
<pdfrwt beam="1">  1        2 0.29798560E+00 0.21996980E+04</pdfrwt>
<pdfrwt beam="2">  1       -2 0.96082469E-01 0.21996980E+04</pdfrwt>
<totfact> 0.60087747E+00</totfact>
</mgrwt>
</event>
<event>
 6    1  0.2238133E-007  0.2487174E+04  0.7818608E-02  0.8407569E-01
          2   -1    0    0  501    0  0.00000000000E+00  0.00000000000E+00  0.12710939088E+04  0.12710939088E+04  0.00000000000E+00 0. -1.
         -2   -1    0    0    0  501 -0.00000000000E+00 -0.00000000000E+00 -0.12166756248E+04  0.12166756248E+04  0.00000000000E+00 0.  1.
         23    2    1    2    0    0 -0.35182402570E+03 -0.81260317727E+03  0.89822008232E+03  0.12646156007E+04  0.91374134245E+02 0.  0.
         13    1    3    3    0    0 -0.18768661005E+03 -0.39847387067E+03  0.38477756112E+03  0.58486020616E+03  0.00000000000E+00 0. -1.
        -13    1    3    3    0    0 -0.16413741565E+03 -0.41412930660E+03  0.51344252120E+03  0.67975539452E+03  0.00000000000E+00 0.  1.
         22    1    1    2    0    0  0.35182402570E+03  0.81260317727E+03 -0.84380179830E+03  0.12231539329E+04  0.00000000000E+00 0.  1.
<mgrwt>
<rscale>  0 0.24871743E+04</rscale>
<asrwt>0</asrwt>
<pdfrwt beam="1">  1        2 0.19555291E+00 0.24871743E+04</pdfrwt>
<pdfrwt beam="2">  1       -2 0.18718086E+00 0.24871743E+04</pdfrwt>
<totfact> 0.24852179E+00</totfact>
</mgrwt>
</event>
<event>
 6    1  0.2238133E-007  0.1433866E+04  0.7818608E-02  0.8929663E-01
          2   -1    0    0  501    0  0.00000000000E+00  0.00000000000E+00  0.15658912006E+04  0.15658912006E+04  0.00000000000E+00 0. -1.
         -2   -1    0    0    0  501 -0.00000000000E+00 -0.00000000000E+00 -0.32824298692E+03  0.32824298692E+03  0.00000000000E+00 0.  1.
         23    2    1    2    0    0  0.48788412416E+03 -0.16560231350E+03  0.12744546759E+04  0.13775978766E+04  0.89922988514E+02 0.  0.
         13    1    3    3    0    0  0.22040523820E+03 -0.10920148243E+03  0.68551215480E+03  0.72830649260E+03  0.00000000000E+00 0. -1.
        -13    1    3    3    0    0  0.26747888596E+03 -0.56400831069E+02  0.58894252113E+03  0.64929138403E+03  0.00000000000E+00 0.  1.
         22    1    1    2    0    0 -0.48788412416E+03  0.16560231350E+03 -0.36806462210E+02  0.51653631093E+03  0.00000000000E+00 0.  1.
<mgrwt>
<rscale>  0 0.14338658E+04</rscale>
<asrwt>0</asrwt>
<pdfrwt beam="1">  1        2 0.24090633E+00 0.14338658E+04</pdfrwt>
<pdfrwt beam="2">  1       -2 0.50498922E-01 0.14338658E+04</pdfrwt>
<totfact> 0.41950284E+01</totfact>
</mgrwt>
</event>
<event>
 6    1  0.2238133E-007  0.5033068E+03  0.7818608E-02  0.1012919E+00
         -1   -1    0    0    0  501 -0.00000000000E+00  0.00000000000E+00  0.95263836966E+02  0.95263836966E+02  0.00000000000E+00 0.  1.
          1   -1    0    0  501    0  0.00000000000E+00 -0.00000000000E+00 -0.66477929364E+03  0.66477929364E+03  0.00000000000E+00 0. -1.
         23    2    1    2    0    0 -0.22360233839E+03 -0.88304901067E+02 -0.23644632280E+03  0.34927457141E+03  0.91049993873E+02 0.  0.
         13    1    3    3    0    0 -0.16085723176E+03 -0.96340509963E+02 -0.14028256667E+03  0.23417032557E+03  0.00000000000E+00 0. -1.
        -13    1    3    3    0    0 -0.62745106631E+02  0.80356088964E+01 -0.96163756133E+02  0.11510424584E+03  0.00000000000E+00 0.  1.
         22    1    1    2    0    0  0.22360233839E+03  0.88304901067E+02 -0.33306913387E+03  0.41076855919E+03  0.00000000000E+00 0.  1.
<mgrwt>
<rscale>  0 0.50330677E+03</rscale>
<asrwt>0</asrwt>
<pdfrwt beam="1">  1        1 0.10227374E+00 0.50330677E+03</pdfrwt>
<pdfrwt beam="2">  1       -1 0.14655974E-01 0.50330677E+03</pdfrwt>
<totfact> 0.10127764E+03</totfact>
</mgrwt>
</event>
<event>
 6    1  0.2238133E-007  0.6456756E+03  0.7818608E-02  0.9814928E-01
         -2   -1    0    0    0  501 -0.00000000000E+00  0.00000000000E+00  0.53793172689E+02  0.53793172689E+02  0.00000000000E+00 0.  1.
          2   -1    0    0  501    0  0.00000000000E+00 -0.00000000000E+00 -0.19374992413E+04  0.19374992413E+04  0.00000000000E+00 0. -1.
         23    2    1    2    0    0  0.16564219278E+03  0.18925159244E+03 -0.37404599914E+03  0.46082613647E+03  0.95900038133E+02 0.  0.
         13    1    3    3    0    0  0.49424081972E+02  0.67896143953E+02 -0.55447017686E+02  0.10063298670E+03  0.00000000000E+00 0. -1.
        -13    1    3    3    0    0  0.11621811081E+03  0.12135544848E+03 -0.31859898146E+03  0.36019314977E+03  0.00000000000E+00 0.  1.
         22    1    1    2    0    0 -0.16564219278E+03 -0.18925159244E+03 -0.15096600695E+04  0.15304662775E+04  0.00000000000E+00 0. -1.
<mgrwt>
<rscale>  0 0.64567556E+03</rscale>
<asrwt>0</asrwt>
<pdfrwt beam="1">  1        2 0.29807680E+00 0.64567556E+03</pdfrwt>
<pdfrwt beam="2">  1       -2 0.82758730E-02 0.64567556E+03</pdfrwt>
<totfact> 0.69397326E+02</totfact>
</mgrwt>
</event>
<event>
 6    1  0.2238133E-007  0.2478458E+04  0.7818608E-02  0.8410701E-01
         -2   -1    0    0    0  501 -0.00000000000E+00  0.00000000000E+00  0.44112843036E+03  0.44112843036E+03  0.00000000000E+00 0.  1.
          2   -1    0    0  501    0  0.00000000000E+00 -0.00000000000E+00 -0.34812716637E+04  0.34812716637E+04  0.00000000000E+00 0. -1.
         23    2    1    2    0    0 -0.38386857050E+03 -0.11535850479E+04 -0.11611419205E+04  0.16843742953E+04  0.10369505846E+03 0.  0.
         11    1    3    3    0    0 -0.26120794943E+03 -0.65674302706E+03 -0.63002353555E+03  0.94682134100E+03  0.00000000000E+00 0. -1.
        -11    1    3    3    0    0 -0.12266062107E+03 -0.49684202082E+03 -0.53111838497E+03  0.73755295435E+03  0.00000000000E+00 0.  1.
         22    1    1    2    0    0  0.38386857050E+03  0.11535850479E+04 -0.18790013128E+04  0.22380257987E+04  0.00000000000E+00 0. -1.
<mgrwt>
<rscale>  0 0.24784575E+04</rscale>
<asrwt>0</asrwt>
<pdfrwt beam="1">  1        2 0.53558028E+00 0.24784575E+04</pdfrwt>
<pdfrwt beam="2">  1       -2 0.67865909E-01 0.24784575E+04</pdfrwt>
<totfact> 0.14907617E+00</totfact>
</mgrwt>
</event>
<event>
 6    1  0.2238133E-007  0.4439592E+04  0.7818608E-02  0.7921299E-01
          2   -1    0    0  501    0  0.00000000000E+00  0.00000000000E+00  0.19275723134E+04  0.19275723134E+04  0.00000000000E+00 0. -1.
         -2   -1    0    0    0  501 -0.00000000000E+00 -0.00000000000E+00 -0.25563218411E+04  0.25563218411E+04  0.00000000000E+00 0.  1.
         23    2    1    2    0    0  0.92703668685E+03  0.72492712920E+03 -0.22143594546E+04  0.25092865475E+04  0.90635654924E+02 0.  0.
         11    1    3    3    0    0  0.56908684147E+03  0.46938856126E+03 -0.13021305983E+04  0.14965726009E+04  0.00000000000E+00 0. -1.
        -11    1    3    3    0    0  0.35794984538E+03  0.25553856794E+03 -0.91222885622E+03  0.10127139466E+04  0.00000000000E+00 0.  1.
         22    1    1    2    0    0 -0.92703668685E+03 -0.72492712920E+03  0.15856099269E+04  0.19746076070E+04  0.00000000000E+00 0. -1.
<mgrwt>
<rscale>  0 0.44395924E+04</rscale>
<asrwt>0</asrwt>
<pdfrwt beam="1">  1        2 0.29654959E+00 0.44395924E+04</pdfrwt>
<pdfrwt beam="2">  1       -2 0.39328028E+00 0.44395924E+04</pdfrwt>
<totfact> 0.45831368E-02</totfact>
</mgrwt>
</event>
<event>
 6    1  0.2238133E-007  0.3122799E+04  0.7818608E-02  0.8209509E-01
          2   -1    0    0  501    0  0.00000000000E+00  0.00000000000E+00  0.58551198726E+03  0.58551198726E+03  0.00000000000E+00 0. -1.
         -2   -1    0    0    0  501 -0.00000000000E+00 -0.00000000000E+00 -0.41638221870E+04  0.41638221870E+04  0.00000000000E+00 0.  1.
         23    2    1    2    0    0  0.25028666321E+03 -0.90053875049E+03  0.10909617615E+03  0.94531271850E+03  0.90003917667E+02 0.  0.
         11    1    3    3    0    0  0.75210536273E+02 -0.43578093148E+03  0.43456457814E+02  0.44435358526E+03  0.00000000000E+00 0.  1.
        -11    1    3    3    0    0  0.17507612694E+03 -0.46475781900E+03  0.65639718334E+02  0.50095913324E+03  0.00000000000E+00 0. -1.
         22    1    1    2    0    0 -0.25028666321E+03  0.90053875049E+03 -0.36874063759E+04  0.38040214558E+04  0.00000000000E+00 0.  1.
<mgrwt>
<rscale>  0 0.31227986E+04</rscale>
<asrwt>0</asrwt>
<pdfrwt beam="1">  1        2 0.90078764E-01 0.31227986E+04</pdfrwt>
<pdfrwt beam="2">  1       -2 0.64058805E+00 0.31227986E+04</pdfrwt>
<totfact> 0.15472460E-02</totfact>
</mgrwt>
</event>
<event>
 6    1  0.2238133E-007  0.4138598E+04  0.7818608E-02  0.7977156E-01
         -1   -1    0    0    0  501 -0.00000000000E+00  0.00000000000E+00  0.14315782164E+04  0.14315782164E+04  0.00000000000E+00 0.  1.
          1   -1    0    0  501    0  0.00000000000E+00 -0.00000000000E+00 -0.29911034761E+04  0.29911034761E+04  0.00000000000E+00 0. -1.
         23    2    1    2    0    0  0.14524952499E+04 -0.14724281871E+04 -0.79053294038E+03  0.22160697183E+04  0.90749375531E+02 0.  0.
         11    1    3    3    0    0  0.95055646723E+03 -0.10222896319E+04 -0.52185131823E+03  0.14902893972E+04  0.00000000000E+00 0. -1.
        -11    1    3    3    0    0  0.50193878269E+03 -0.45013855519E+03 -0.26868162215E+03  0.72578032112E+03  0.00000000000E+00 0.  1.
         22    1    1    2    0    0 -0.14524952499E+04  0.14724281871E+04 -0.76899231930E+03  0.22066119741E+04  0.00000000000E+00 0.  1.
<mgrwt>
<rscale>  0 0.41385981E+04</rscale>
<asrwt>0</asrwt>
<pdfrwt beam="1">  1        1 0.46016976E+00 0.41385981E+04</pdfrwt>
<pdfrwt beam="2">  1       -1 0.22024280E+00 0.41385981E+04</pdfrwt>
<totfact> 0.51456773E-02</totfact>
</mgrwt>
</event>
<event>
 6    1  0.2238133E-007  0.3353664E+04  0.7818608E-02  0.8149373E-01
          2   -1    0    0  501    0  0.00000000000E+00  0.00000000000E+00  0.21554656171E+04  0.21554656171E+04  0.00000000000E+00 0. -1.
         -2   -1    0    0    0  501 -0.00000000000E+00 -0.00000000000E+00 -0.13044817492E+04  0.13044817492E+04  0.00000000000E+00 0.  1.
         23    2    1    2    0    0 -0.15817576795E+04  0.11396601897E+03 -0.13250743705E+03  0.15938817841E+04  0.89192548483E+02 0.  0.
         13    1    3    3    0    0 -0.76938820497E+02 -0.89015318707E+01 -0.19279161553E+02  0.79815446119E+02  0.00000000000E+00 0. -1.
        -13    1    3    3    0    0 -0.15048188590E+04  0.12286755084E+03 -0.11322827549E+03  0.15140663380E+04  0.00000000000E+00 0.  1.
         22    1    1    2    0    0  0.15817576795E+04 -0.11396601897E+03  0.98349130493E+03  0.18660655822E+04  0.00000000000E+00 0. -1.
<mgrwt>
<rscale>  0 0.33536640E+04</rscale>
<asrwt>0</asrwt>
<pdfrwt beam="1">  1        2 0.33161010E+00 0.33536640E+04</pdfrwt>
<pdfrwt beam="2">  1       -2 0.20068950E+00 0.33536640E+04</pdfrwt>
<totfact> 0.59873918E-01</totfact>
</mgrwt>
</event>
<event>
 6    1  0.2238133E-007  0.4490653E+04  0.7818608E-02  0.7912275E-01
         -2   -1    0    0    0  501 -0.00000000000E+00  0.00000000000E+00  0.13359395703E+04  0.13359395703E+04  0.00000000000E+00 0.  1.
          2   -1    0    0  501    0  0.00000000000E+00 -0.00000000000E+00 -0.37737413739E+04  0.37737413739E+04  0.00000000000E+00 0. -1.
         23    2    1    2    0    0  0.20567851573E+04  0.38453170507E+03 -0.21431080740E+04  0.29966087236E+04  0.92313649992E+02 0.  0.
         13    1    3    3    0    0  0.44552898310E+03  0.50008370177E+02 -0.48640101884E+03  0.66150046334E+03  0.00000000000E+00 0.  1.
        -13    1    3    3    0    0  0.16112561742E+04  0.33452333490E+03 -0.16567070552E+04  0.23351082602E+04  0.00000000000E+00 0. -1.
         22    1    1    2    0    0 -0.20567851573E+04 -0.38453170507E+03 -0.29469372961E+03  0.21130722207E+04  0.00000000000E+00 0.  1.
<mgrwt>
<rscale>  0 0.44906527E+04</rscale>
<asrwt>0</asrwt>
<pdfrwt beam="1">  1        2 0.58057558E+00 0.44906527E+04</pdfrwt>
<pdfrwt beam="2">  1       -2 0.20552917E+00 0.44906527E+04</pdfrwt>
<totfact> 0.47571503E-02</totfact>
</mgrwt>
</event>
<event>
 6    1  0.2238133E-007  0.7686923E+03  0.7818608E-02  0.9606473E-01
          2   -1    0    0  501    0  0.00000000000E+00  0.00000000000E+00  0.15129634862E+04  0.15129634862E+04  0.00000000000E+00 0. -1.
         -2   -1    0    0    0  501 -0.00000000000E+00 -0.00000000000E+00 -0.97637505196E+02  0.97637505196E+02  0.00000000000E+00 0.  1.
         23    2    1    2    0    0 -0.35393999919E+03 -0.99739462897E+02  0.90405970639E+03  0.98082747096E+03  0.97350354811E+02 0.  0.
         13    1    3    3    0    0 -0.26870145161E+03 -0.11375830810E+03  0.65017629685E+03  0.71265043306E+03  0.00000000000E+00 0. -1.
        -13    1    3    3    0    0 -0.85238547578E+02  0.14018845202E+02  0.25388340955E+03  0.26817703790E+03  0.00000000000E+00 0.  1.
         22    1    1    2    0    0  0.35393999919E+03  0.99739462897E+02  0.51126627462E+03  0.62977352044E+03  0.00000000000E+00 0. -1.
<mgrwt>
<rscale>  0 0.76869234E+03</rscale>
<asrwt>0</asrwt>
<pdfrwt beam="1">  1        2 0.23276360E+00 0.76869234E+03</pdfrwt>
<pdfrwt beam="2">  1       -2 0.15021156E-01 0.76869234E+03</pdfrwt>
<totfact> 0.44134328E+02</totfact>
</mgrwt>
</event>
<event>
 6    1  0.2238133E-007  0.1931995E+04  0.7818608E-02  0.8639092E-01
          2   -1    0    0  501    0  0.00000000000E+00  0.00000000000E+00  0.10306118122E+04  0.10306118122E+04  0.00000000000E+00 0. -1.
         -2   -1    0    0    0  501 -0.00000000000E+00 -0.00000000000E+00 -0.90543455885E+03  0.90543455885E+03  0.00000000000E+00 0.  1.
         23    2    1    2    0    0 -0.39308848785E+03 -0.30882866819E+03 -0.76306279756E+03  0.91679954442E+03  0.91448707177E+02 0.  0.
         11    1    3    3    0    0 -0.32557421425E+03 -0.25494899469E+03 -0.56001630153E+03  0.69614353180E+03  0.00000000000E+00 0.  1.
        -11    1    3    3    0    0 -0.67514273597E+02 -0.53879673499E+02 -0.20304649603E+03  0.22065601262E+03  0.00000000000E+00 0. -1.
         22    1    1    2    0    0  0.39308848785E+03  0.30882866819E+03  0.88824005093E+03  0.10192468267E+04  0.00000000000E+00 0. -1.
<mgrwt>
<rscale>  0 0.19319954E+04</rscale>
<asrwt>0</asrwt>
<pdfrwt beam="1">  1        2 0.15855566E+00 0.19319954E+04</pdfrwt>
<pdfrwt beam="2">  1       -2 0.13929762E+00 0.19319954E+04</pdfrwt>
<totfact> 0.81849145E+00</totfact>
</mgrwt>
</event>
<event>
 6    1  0.2238133E-007  0.3004467E+04  0.7818608E-02  0.8242456E-01
         -2   -1    0    0    0  501 -0.00000000000E+00  0.00000000000E+00  0.13531779345E+04  0.13531779345E+04  0.00000000000E+00 0.  1.
          2   -1    0    0  501    0  0.00000000000E+00 -0.00000000000E+00 -0.16677082808E+04  0.16677082808E+04  0.00000000000E+00 0. -1.
         23    2    1    2    0    0  0.81025217610E+03 -0.50540879368E+03 -0.13215680145E+04  0.16330564336E+04  0.91567793248E+02 0.  0.
         11    1    3    3    0    0  0.21439684347E+03 -0.98518367761E+02 -0.37081924322E+03  0.43952108757E+03  0.00000000000E+00 0.  1.
        -11    1    3    3    0    0  0.59585533264E+03 -0.40689042592E+03 -0.95074877131E+03  0.11935353461E+04  0.00000000000E+00 0. -1.
         22    1    1    2    0    0 -0.81025217610E+03  0.50540879368E+03  0.10070376682E+04  0.13878297816E+04  0.00000000000E+00 0.  1.
<mgrwt>
<rscale>  0 0.30044674E+04</rscale>
<asrwt>0</asrwt>
<pdfrwt beam="1">  1        2 0.25657050E+00 0.30044674E+04</pdfrwt>
<pdfrwt beam="2">  1       -2 0.20818122E+00 0.30044674E+04</pdfrwt>
<totfact> 0.10290963E+00</totfact>
</mgrwt>
</event>
<event>
 6    1  0.2238133E-007  0.4724963E+04  0.7818608E-02  0.7872394E-01
         -2   -1    0    0    0  501 -0.00000000000E+00  0.00000000000E+00  0.16908671990E+04  0.16908671990E+04  0.00000000000E+00 0.  1.
          2   -1    0    0  501    0  0.00000000000E+00 -0.00000000000E+00 -0.33008616041E+04  0.33008616041E+04  0.00000000000E+00 0. -1.
         23    2    1    2    0    0 -0.25460767994E+03 -0.20085245216E+04  0.47930222658E+03  0.20824065040E+04  0.87694918012E+02 0.  0.
         11    1    3    3    0    0 -0.24590749209E+02 -0.34453911708E+03  0.54182085021E+02  0.34963925192E+03  0.00000000000E+00 0.  1.
        -11    1    3    3    0    0 -0.23001693074E+03 -0.16639854046E+04  0.42512014156E+03  0.17327672520E+04  0.00000000000E+00 0. -1.
         22    1    1    2    0    0  0.25460767994E+03  0.20085245216E+04 -0.20892966318E+04  0.29093222991E+04  0.00000000000E+00 0. -1.
<mgrwt>
<rscale>  0 0.47249629E+04</rscale>
<asrwt>0</asrwt>
<pdfrwt beam="1">  1        2 0.50782486E+00 0.47249629E+04</pdfrwt>
<pdfrwt beam="2">  1       -2 0.26013342E+00 0.47249629E+04</pdfrwt>
<totfact> 0.46035022E-02</totfact>
</mgrwt>
</event>
<event>
 6    1  0.2996877E-007  0.4612928E+04  0.7818608E-02  0.7891159E-01
         -2   -1    0    0    0  501 -0.00000000000E+00  0.00000000000E+00  0.28000037280E+04  0.28000037280E+04  0.00000000000E+00 0.  1.
          2   -1    0    0  501    0  0.00000000000E+00 -0.00000000000E+00 -0.18999177590E+04  0.18999177590E+04  0.00000000000E+00 0. -1.
         23    2    1    2    0    0 -0.66175705708E+03  0.67887567286E+03  0.25914755467E+04  0.27609544204E+04  0.91264563952E+02 0.  0.
         11    1    3    3    0    0 -0.37523515214E+03  0.34005936420E+03  0.14765824557E+04  0.15610052976E+04  0.00000000000E+00 0.  1.
        -11    1    3    3    0    0 -0.28652190494E+03  0.33881630867E+03  0.11148930910E+04  0.11999491228E+04  0.00000000000E+00 0. -1.
         22    1    1    2    0    0  0.66175705708E+03 -0.67887567286E+03 -0.16913895777E+04  0.19389670666E+04  0.00000000000E+00 0. -1.
<mgrwt>
<rscale>  0 0.46129283E+04</rscale>
<asrwt>0</asrwt>
<pdfrwt beam="1">  1        2 0.29229504E+00 0.46129283E+04</pdfrwt>
<pdfrwt beam="2">  1       -2 0.43076980E+00 0.46129283E+04</pdfrwt>
<totfact> 0.26559326E-02</totfact>
</mgrwt>
</event>
<event>
 6    1  0.2238133E-007  0.6901412E+03  0.7818608E-02  0.9734242E-01
         -2   -1    0    0    0  501 -0.00000000000E+00  0.00000000000E+00  0.13567637173E+03  0.13567637173E+03  0.00000000000E+00 0.  1.
          2   -1    0    0  501    0  0.00000000000E+00 -0.00000000000E+00 -0.87763049790E+03  0.87763049790E+03  0.00000000000E+00 0. -1.
         23    2    1    2    0    0 -0.87108201465E+02 -0.17139677892E+03  0.33346460029E+02  0.21452298550E+03  0.89125923979E+02 0.  0.
         13    1    3    3    0    0 -0.25816311605E+02 -0.55719251315E+02 -0.30844169005E+02  0.68720300302E+02  0.00000000000E+00 0. -1.
        -13    1    3    3    0    0 -0.61291889860E+02 -0.11567752761E+03  0.64190629034E+02  0.14580268520E+03  0.00000000000E+00 0.  1.
         22    1    1    2    0    0  0.87108201465E+02  0.17139677892E+03 -0.77530058620E+03  0.79878388413E+03  0.00000000000E+00 0. -1.
<mgrwt>
<rscale>  0 0.69014121E+03</rscale>
<asrwt>0</asrwt>
<pdfrwt beam="1">  1        2 0.13502007E+00 0.69014121E+03</pdfrwt>
<pdfrwt beam="2">  1       -2 0.20873288E-01 0.69014121E+03</pdfrwt>
<totfact> 0.60485389E+02</totfact>
</mgrwt>
</event>
<event>
 6    1  0.2238133E-007  0.2905751E+04  0.7818608E-02  0.8271168E-01
          2   -1    0    0  501    0  0.00000000000E+00  0.00000000000E+00  0.64589400912E+03  0.64589400912E+03  0.00000000000E+00 0. -1.
         -2   -1    0    0    0  501 -0.00000000000E+00 -0.00000000000E+00 -0.32681018254E+04  0.32681018254E+04  0.00000000000E+00 0.  1.
         23    2    1    2    0    0 -0.39542440560E+03 -0.37302249393E+03 -0.31251513756E+04  0.31734160175E+04  0.92151279928E+02 0.  0.
         13    1    3    3    0    0 -0.73722773371E+02 -0.11875535781E+03 -0.90165203196E+03  0.91242219890E+03  0.00000000000E+00 0. -1.
        -13    1    3    3    0    0 -0.32170163223E+03 -0.25426713612E+03 -0.22234993436E+04  0.22609938186E+04  0.00000000000E+00 0.  1.
         22    1    1    2    0    0  0.39542440560E+03  0.37302249393E+03  0.50294355929E+03  0.74057981701E+03  0.00000000000E+00 0. -1.
<mgrwt>
<rscale>  0 0.29057511E+04</rscale>
<asrwt>0</asrwt>
<pdfrwt beam="1">  1        2 0.99368309E-01 0.29057511E+04</pdfrwt>
<pdfrwt beam="2">  1       -2 0.50278490E+00 0.29057511E+04</pdfrwt>
<totfact> 0.61753943E-02</totfact>
</mgrwt>
</event>
<event>
 6    1  0.2238133E-007  0.6369672E+04  0.7818608E-02  0.7646183E-01
          2   -1    0    0  501    0  0.00000000000E+00  0.00000000000E+00  0.44648751885E+04  0.44648751885E+04  0.00000000000E+00 0. -1.
         -2   -1    0    0    0  501 -0.00000000000E+00 -0.00000000000E+00 -0.22717720977E+04  0.22717720977E+04  0.00000000000E+00 0.  1.
         23    2    1    2    0    0 -0.23527797155E+04  0.79738714649E+03 -0.10097861715E+04  0.26832661941E+04  0.94078186016E+02 0.  0.
         11    1    3    3    0    0 -0.50625693644E+03  0.19999334168E+03 -0.19106143782E+03  0.57688638000E+03  0.00000000000E+00 0.  1.
        -11    1    3    3    0    0 -0.18465227791E+04  0.59739380481E+03 -0.81872473372E+03  0.21063798141E+04  0.00000000000E+00 0. -1.
         22    1    1    2    0    0  0.23527797155E+04 -0.79738714649E+03  0.32028892623E+04  0.40533810921E+04  0.00000000000E+00 0. -1.
<mgrwt>
<rscale>  0 0.63696715E+04</rscale>
<asrwt>0</asrwt>
<pdfrwt beam="1">  1        2 0.68690387E+00 0.63696715E+04</pdfrwt>
<pdfrwt beam="2">  1       -2 0.34950340E+00 0.63696715E+04</pdfrwt>
<totfact> 0.13492763E-03</totfact>
</mgrwt>
</event>
<event>
 6    1  0.2238133E-007  0.1760490E+04  0.7818608E-02  0.8727597E-01
         -2   -1    0    0    0  501 -0.00000000000E+00  0.00000000000E+00  0.69397922050E+03  0.69397922050E+03  0.00000000000E+00 0.  1.
          2   -1    0    0  501    0  0.00000000000E+00 -0.00000000000E+00 -0.11165051056E+04  0.11165051056E+04  0.00000000000E+00 0. -1.
         23    2    1    2    0    0 -0.39899471272E+03  0.67653729724E+03  0.19166944259E+03  0.81342094002E+03  0.89537450860E+02 0.  0.
         11    1    3    3    0    0 -0.28346184539E+03  0.55006913622E+03  0.13925336990E+03  0.63428556143E+03  0.00000000000E+00 0.  1.
        -11    1    3    3    0    0 -0.11553286733E+03  0.12646816101E+03  0.52416072694E+02  0.17913537858E+03  0.00000000000E+00 0. -1.
         22    1    1    2    0    0  0.39899471272E+03 -0.67653729724E+03 -0.61419532774E+03  0.99706338612E+03  0.00000000000E+00 0.  1.
<mgrwt>
<rscale>  0 0.17604901E+04</rscale>
<asrwt>0</asrwt>
<pdfrwt beam="1">  1        2 0.17177001E+00 0.17604901E+04</pdfrwt>
<pdfrwt beam="2">  1       -2 0.10676604E+00 0.17604901E+04</pdfrwt>
<totfact> 0.14234886E+01</totfact>
</mgrwt>
</event>
<event>
 6    1  0.2238133E-007  0.1386899E+04  0.7818608E-02  0.8963356E-01
          2   -1    0    0  501    0  0.00000000000E+00  0.00000000000E+00  0.34360688609E+04  0.34360688609E+04  0.00000000000E+00 0. -1.
         -2   -1    0    0    0  501 -0.00000000000E+00 -0.00000000000E+00 -0.13994845179E+03  0.13994845179E+03  0.00000000000E+00 0.  1.
         23    2    1    2    0    0 -0.61016487783E+03  0.20419759044E+03  0.10107479671E+04  0.12017963810E+04  0.93301951603E+02 0.  0.
         11    1    3    3    0    0 -0.13887943264E+03  0.41510229053E+02  0.16146906903E+03  0.21698584327E+03  0.00000000000E+00 0. -1.
        -11    1    3    3    0    0 -0.47128544519E+03  0.16268736139E+03  0.84927889810E+03  0.98481053769E+03  0.00000000000E+00 0.  1.
         22    1    1    2    0    0  0.61016487783E+03 -0.20419759044E+03  0.22853724420E+04  0.23742209317E+04  0.00000000000E+00 0.  1.
<mgrwt>
<rscale>  0 0.13868994E+04</rscale>
<asrwt>0</asrwt>
<pdfrwt beam="1">  1        2 0.52862592E+00 0.13868994E+04</pdfrwt>
<pdfrwt beam="2">  1       -2 0.21530534E-01 0.13868994E+04</pdfrwt>
<totfact> 0.16734151E+01</totfact>
</mgrwt>
</event>
<event>
 6    1  0.2238133E-007  0.1179906E+04  0.7818608E-02  0.9130628E-01
          1   -1    0    0  501    0  0.00000000000E+00  0.00000000000E+00  0.11067974326E+04  0.11067974326E+04  0.00000000000E+00 0. -1.
         -1   -1    0    0    0  501 -0.00000000000E+00 -0.00000000000E+00 -0.31446114480E+03  0.31446114480E+03  0.00000000000E+00 0.  1.
         23    2    1    2    0    0  0.46969456855E+03  0.13748699611E+03  0.78759059536E+03  0.93183219534E+03  0.92177180223E+02 0.  0.
         11    1    3    3    0    0  0.11148697666E+03  0.16159300188E+00  0.22184640087E+03  0.24828450950E+03  0.00000000000E+00 0. -1.
        -11    1    3    3    0    0  0.35820759190E+03  0.13732540311E+03  0.56574419448E+03  0.68354768584E+03  0.00000000000E+00 0.  1.
         22    1    1    2    0    0 -0.46969456855E+03 -0.13748699611E+03  0.47456924186E+01  0.48942638203E+03  0.00000000000E+00 0.  1.
<mgrwt>
<rscale>  0 0.11799064E+04</rscale>
<asrwt>0</asrwt>
<pdfrwt beam="1">  1        1 0.17027653E+00 0.11799064E+04</pdfrwt>
<pdfrwt beam="2">  1       -1 0.48378638E-01 0.11799064E+04</pdfrwt>
<totfact> 0.53052620E+01</totfact>
</mgrwt>
</event>
<event>
 6    1  0.2238133E-007  0.3780071E+04  0.7818608E-02  0.8050445E-01
          1   -1    0    0  501    0  0.00000000000E+00  0.00000000000E+00  0.28845016625E+04  0.28845016625E+04  0.00000000000E+00 0. -1.
         -1   -1    0    0    0  501 -0.00000000000E+00 -0.00000000000E+00 -0.12384231877E+04  0.12384231877E+04  0.00000000000E+00 0.  1.
         23    2    1    2    0    0  0.71842126331E+02 -0.12705858352E+04  0.23460513336E+04  0.26705090493E+04  0.90067010263E+02 0.  0.
         13    1    3    3    0    0  0.31852665333E+02 -0.39737040459E+03  0.82212316892E+03  0.91367627506E+03  0.00000000000E+00 0.  1.
        -13    1    3    3    0    0  0.39989460998E+02 -0.87321543064E+03  0.15239281647E+04  0.17568327742E+04  0.00000000000E+00 0. -1.
         22    1    1    2    0    0 -0.71842126331E+02  0.12705858352E+04 -0.69997285883E+03  0.14524158010E+04  0.00000000000E+00 0.  1.
<mgrwt>
<rscale>  0 0.37800708E+04</rscale>
<asrwt>0</asrwt>
<pdfrwt beam="1">  1        1 0.44376948E+00 0.37800708E+04</pdfrwt>
<pdfrwt beam="2">  1       -1 0.19052665E+00 0.37800708E+04</pdfrwt>
<totfact> 0.10117349E-01</totfact>
</mgrwt>
</event>
<event>
 6    1  0.2238133E-007  0.2673397E+04  0.7818608E-02  0.8343689E-01
         -2   -1    0    0    0  501 -0.00000000000E+00  0.00000000000E+00  0.85442978864E+03  0.85442978864E+03  0.00000000000E+00 0.  1.
          2   -1    0    0  501    0  0.00000000000E+00 -0.00000000000E+00 -0.20911758477E+04  0.20911758477E+04  0.00000000000E+00 0. -1.
         23    2    1    2    0    0  0.66790486173E+03  0.17085719080E+03  0.64076709128E+03  0.94551945977E+03  0.90197004158E+02 0.  0.
         13    1    3    3    0    0  0.49959069325E+03  0.15971115098E+03  0.45225347183E+03  0.69255448544E+03  0.00000000000E+00 0.  1.
        -13    1    3    3    0    0  0.16831416849E+03  0.11146039820E+02  0.18851361945E+03  0.25296497433E+03  0.00000000000E+00 0. -1.
         22    1    1    2    0    0 -0.66790486173E+03 -0.17085719080E+03 -0.18775131503E+04  0.20000861765E+04  0.00000000000E+00 0. -1.
<mgrwt>
<rscale>  0 0.26733970E+04</rscale>
<asrwt>0</asrwt>
<pdfrwt beam="1">  1        2 0.32171936E+00 0.26733970E+04</pdfrwt>
<pdfrwt beam="2">  1       -2 0.13145074E+00 0.26733970E+04</pdfrwt>
<totfact> 0.22062523E+00</totfact>
</mgrwt>
</event>
<event>
 6    1  0.2238133E-007  0.4093065E+04  0.7818608E-02  0.7986031E-01
          2   -1    0    0  501    0  0.00000000000E+00  0.00000000000E+00  0.17234025755E+04  0.17234025755E+04  0.00000000000E+00 0. -1.
         -2   -1    0    0    0  501 -0.00000000000E+00 -0.00000000000E+00 -0.24302472881E+04  0.24302472881E+04  0.00000000000E+00 0.  1.
         23    2    1    2    0    0 -0.78450230742E+03  0.58910562966E+03 -0.21750914862E+04  0.23877965568E+04  0.89778115163E+02 0.  0.
         11    1    3    3    0    0 -0.53645192407E+03  0.45000937032E+03 -0.15831175547E+04  0.17310546762E+04  0.00000000000E+00 0.  1.
        -11    1    3    3    0    0 -0.24805038335E+03  0.13909625933E+03 -0.59197393152E+03  0.65674188053E+03  0.00000000000E+00 0. -1.
         22    1    1    2    0    0  0.78450230742E+03 -0.58910562966E+03  0.14682467736E+04  0.17658533069E+04  0.00000000000E+00 0. -1.
<mgrwt>
<rscale>  0 0.40930646E+04</rscale>
<asrwt>0</asrwt>
<pdfrwt beam="1">  1        2 0.26513886E+00 0.40930646E+04</pdfrwt>
<pdfrwt beam="2">  1       -2 0.37388420E+00 0.40930646E+04</pdfrwt>
<totfact> 0.81664942E-02</totfact>
</mgrwt>
</event>
<event>
 6    1  0.2238133E-007  0.3373641E+04  0.7818608E-02  0.8144406E-01
          2   -1    0    0  501    0  0.00000000000E+00  0.00000000000E+00  0.18502694211E+04  0.18502694211E+04  0.00000000000E+00 0. -1.
         -2   -1    0    0    0  501 -0.00000000000E+00 -0.00000000000E+00 -0.15378101583E+04  0.15378101583E+04  0.00000000000E+00 0.  1.
         23    2    1    2    0    0  0.15087802058E+04 -0.24439312745E+03 -0.55737090678E+03  0.16294578935E+04  0.91241375720E+02 0.  0.
         13    1    3    3    0    0  0.10561193922E+04 -0.12872826869E+03 -0.38291024035E+03  0.11307428487E+04  0.00000000000E+00 0.  1.
        -13    1    3    3    0    0  0.45266081361E+03 -0.11566485875E+03 -0.17446066643E+03  0.49871504475E+03  0.00000000000E+00 0. -1.
         22    1    1    2    0    0 -0.15087802058E+04  0.24439312745E+03  0.86983016953E+03  0.17586216859E+04  0.00000000000E+00 0. -1.
<mgrwt>
<rscale>  0 0.33736408E+04</rscale>
<asrwt>0</asrwt>
<pdfrwt beam="1">  1        2 0.28465684E+00 0.33736408E+04</pdfrwt>
<pdfrwt beam="2">  1       -2 0.23658618E+00 0.33736408E+04</pdfrwt>
<totfact> 0.52254991E-01</totfact>
</mgrwt>
</event>
<event>
 6    1  0.2238133E-007  0.2478081E+04  0.7818608E-02  0.8410836E-01
          2   -1    0    0  501    0  0.00000000000E+00  0.00000000000E+00  0.27557835762E+04  0.27557835762E+04  0.00000000000E+00 0. -1.
         -2   -1    0    0    0  501 -0.00000000000E+00 -0.00000000000E+00 -0.55709066066E+03  0.55709066066E+03  0.00000000000E+00 0.  1.
         23    2    1    2    0    0 -0.28524827099E+03 -0.92511116714E+02  0.27057215416E+04  0.27238047074E+04  0.90874310821E+02 0.  0.
         13    1    3    3    0    0 -0.65682945727E+02  0.21779620548E+01  0.36198449585E+03  0.36790184577E+03  0.00000000000E+00 0. -1.
        -13    1    3    3    0    0 -0.21956532526E+03 -0.94689078769E+02  0.23437370458E+04  0.23559028616E+04  0.00000000000E+00 0.  1.
         22    1    1    2    0    0  0.28524827099E+03  0.92511116714E+02 -0.50702862611E+03  0.58906952944E+03  0.00000000000E+00 0.  1.
<mgrwt>
<rscale>  0 0.24780809E+04</rscale>
<asrwt>0</asrwt>
<pdfrwt beam="1">  1        2 0.42396670E+00 0.24780809E+04</pdfrwt>
<pdfrwt beam="2">  1       -2 0.85706257E-01 0.24780809E+04</pdfrwt>
<totfact> 0.25975949E+00</totfact>
</mgrwt>
</event>
<event>
 6    1  0.2424052E-007  0.3179384E+04  0.7818608E-02  0.8194283E-01
          2   -1    0    0  501    0  0.00000000000E+00  0.00000000000E+00  0.16289481710E+04  0.16289481710E+04  0.00000000000E+00 0. -1.
         -2   -1    0    0    0  501 -0.00000000000E+00 -0.00000000000E+00 -0.15513817105E+04  0.15513817105E+04  0.00000000000E+00 0.  1.
         23    2    1    2    0    0 -0.37583006412E+03 -0.75680153500E+03  0.13844262528E+04  0.16240910447E+04  0.83897983031E+02 0.  0.
         13    1    3    3    0    0 -0.34352852122E+03 -0.62393928365E+03  0.11501770317E+04  0.13528559712E+04  0.00000000000E+00 0.  1.
        -13    1    3    3    0    0 -0.32301542896E+02 -0.13286225135E+03  0.23424922112E+03  0.27123507352E+03  0.00000000000E+00 0. -1.
         22    1    1    2    0    0  0.37583006412E+03  0.75680153500E+03 -0.13068597923E+04  0.15562388368E+04  0.00000000000E+00 0.  1.
<mgrwt>
<rscale>  0 0.31793838E+04</rscale>
<asrwt>0</asrwt>
<pdfrwt beam="1">  1        2 0.25060741E+00 0.31793838E+04</pdfrwt>
<pdfrwt beam="2">  1       -2 0.23867411E+00 0.31793838E+04</pdfrwt>
<totfact> 0.68415699E-01</totfact>
</mgrwt>
</event>
<event>
 6    1  0.2238133E-007  0.1809623E+04  0.7818608E-02  0.8701199E-01
         -1   -1    0    0    0  501 -0.00000000000E+00  0.00000000000E+00  0.33402302984E+03  0.33402302984E+03  0.00000000000E+00 0.  1.
          1   -1    0    0  501    0  0.00000000000E+00 -0.00000000000E+00 -0.24509793053E+04  0.24509793053E+04  0.00000000000E+00 0. -1.
         23    2    1    2    0    0 -0.23247602316E+03  0.86956082863E+03 -0.11630963414E+04  0.14735032273E+04  0.90760814881E+02 0.  0.
         13    1    3    3    0    0 -0.12268256076E+03  0.57264219646E+03 -0.70220018261E+03  0.91436053739E+03  0.00000000000E+00 0. -1.
        -13    1    3    3    0    0 -0.10979346241E+03  0.29691863217E+03 -0.46089615878E+03  0.55914268992E+03  0.00000000000E+00 0.  1.
         22    1    1    2    0    0  0.23247602316E+03 -0.86956082863E+03 -0.95385993411E+03  0.13114991079E+04  0.00000000000E+00 0.  1.
<mgrwt>
<rscale>  0 0.18096226E+04</rscale>
<asrwt>0</asrwt>
<pdfrwt beam="1">  1        1 0.37707374E+00 0.18096226E+04</pdfrwt>
<pdfrwt beam="2">  1       -1 0.51388158E-01 0.18096226E+04</pdfrwt>
<totfact> 0.52661505E+00</totfact>
</mgrwt>
</event>
<event>
 6    1  0.2238133E-007  0.1541477E+04  0.7818608E-02  0.8857330E-01
          2   -1    0    0  501    0  0.00000000000E+00  0.00000000000E+00  0.21400271916E+04  0.21400271916E+04  0.00000000000E+00 0. -1.
         -2   -1    0    0    0  501 -0.00000000000E+00 -0.00000000000E+00 -0.27758411484E+03  0.27758411484E+03  0.00000000000E+00 0.  1.
         23    2    1    2    0    0  0.38309789486E+03  0.32061488240E+03  0.18494075140E+04  0.19178835548E+04  0.91713014250E+02 0.  0.
         11    1    3    3    0    0  0.21390976495E+03  0.15033394843E+03  0.11149447888E+04  0.11451897510E+04  0.00000000000E+00 0. -1.
        -11    1    3    3    0    0  0.16918812991E+03  0.17028093396E+03  0.73446272516E+03  0.77269380380E+03  0.00000000000E+00 0.  1.
         22    1    1    2    0    0 -0.38309789486E+03 -0.32061488240E+03  0.13035562727E+02  0.49972775164E+03  0.00000000000E+00 0.  1.
<mgrwt>
<rscale>  0 0.15414766E+04</rscale>
<asrwt>0</asrwt>
<pdfrwt beam="1">  1        2 0.32923494E+00 0.15414766E+04</pdfrwt>
<pdfrwt beam="2">  1       -2 0.42705250E-01 0.15414766E+04</pdfrwt>
<totfact> 0.27959829E+01</totfact>
</mgrwt>
</event>
<event>
 6    1  0.2238133E-007  0.1830743E+04  0.7818608E-02  0.8690120E-01
          2   -1    0    0  501    0  0.00000000000E+00  0.00000000000E+00  0.80630723126E+03  0.80630723126E+03  0.00000000000E+00 0. -1.
         -2   -1    0    0    0  501 -0.00000000000E+00 -0.00000000000E+00 -0.10391879012E+04  0.10391879012E+04  0.00000000000E+00 0.  1.
         23    2    1    2    0    0 -0.32428228129E+03 -0.60695795602E+03  0.48826080620E+03  0.84869927223E+03  0.91295572078E+02 0.  0.
         11    1    3    3    0    0 -0.19582414214E+03 -0.28880487752E+03  0.27948244764E+03  0.44706351949E+03  0.00000000000E+00 0. -1.
        -11    1    3    3    0    0 -0.12845813914E+03 -0.31815307851E+03  0.20877835856E+03  0.40163575274E+03  0.00000000000E+00 0.  1.
         22    1    1    2    0    0  0.32428228129E+03  0.60695795602E+03 -0.72114147611E+03  0.99679586020E+03  0.00000000000E+00 0.  1.
<mgrwt>
<rscale>  0 0.18307427E+04</rscale>
<asrwt>0</asrwt>
<pdfrwt beam="1">  1        2 0.12404727E+00 0.18307427E+04</pdfrwt>
<pdfrwt beam="2">  1       -2 0.15987506E+00 0.18307427E+04</pdfrwt>
<totfact> 0.80997312E+00</totfact>
</mgrwt>
</event>
<event>
 6    1  0.2238133E-007  0.1876164E+04  0.7818608E-02  0.8666813E-01
          2   -1    0    0  501    0  0.00000000000E+00  0.00000000000E+00  0.29817606030E+04  0.29817606030E+04  0.00000000000E+00 0. -1.
         -2   -1    0    0    0  501 -0.00000000000E+00 -0.00000000000E+00 -0.29512697484E+03  0.29512697484E+03  0.00000000000E+00 0.  1.
         23    2    1    2    0    0  0.46287904648E+02 -0.90635126435E+03  0.17457157237E+04  0.19696226133E+04  0.90965193917E+02 0.  0.
         13    1    3    3    0    0  0.66776054607E+02 -0.43223747022E+03  0.85561825999E+03  0.96092189014E+03  0.00000000000E+00 0.  1.
        -13    1    3    3    0    0 -0.20488149959E+02 -0.47411379413E+03  0.89009746368E+03  0.10087007232E+04  0.00000000000E+00 0. -1.
         22    1    1    2    0    0 -0.46287904648E+02  0.90635126435E+03  0.94091790453E+03  0.13072649646E+04  0.00000000000E+00 0. -1.
<mgrwt>
<rscale>  0 0.18761642E+04</rscale>
<asrwt>0</asrwt>
<pdfrwt beam="1">  1        2 0.45873238E+00 0.18761642E+04</pdfrwt>
<pdfrwt beam="2">  1       -2 0.45404152E-01 0.18761642E+04</pdfrwt>
<totfact> 0.77399231E+00</totfact>
</mgrwt>
</event>
<event>
 6    1  0.2238133E-007  0.2420654E+04  0.7818608E-02  0.8431811E-01
          2   -1    0    0  501    0  0.00000000000E+00  0.00000000000E+00  0.15228952605E+04  0.15228952605E+04  0.00000000000E+00 0. -1.
         -2   -1    0    0    0  501 -0.00000000000E+00 -0.00000000000E+00 -0.96191182415E+03  0.96191182415E+03  0.00000000000E+00 0.  1.
         23    2    1    2    0    0  0.45581115054E+03  0.40799793794E+03  0.13509637621E+04  0.14856599296E+04  0.88635306525E+02 0.  0.
         11    1    3    3    0    0  0.75723329007E+02  0.74842595885E+02  0.32425116892E+03  0.34128325078E+03  0.00000000000E+00 0.  1.
        -11    1    3    3    0    0  0.38008782153E+03  0.33315534205E+03  0.10267125932E+04  0.11443766788E+04  0.00000000000E+00 0. -1.
         22    1    1    2    0    0 -0.45581115054E+03 -0.40799793794E+03 -0.78998032577E+03  0.99914715503E+03  0.00000000000E+00 0.  1.
<mgrwt>
<rscale>  0 0.24206536E+04</rscale>
<asrwt>0</asrwt>
<pdfrwt beam="1">  1        2 0.23429158E+00 0.24206536E+04</pdfrwt>
<pdfrwt beam="2">  1       -2 0.14798643E+00 0.24206536E+04</pdfrwt>
<totfact> 0.34355021E+00</totfact>
</mgrwt>
</event>
<event>
 6    1  0.2238133E-007  0.2283608E+04  0.7818608E-02  0.8484413E-01
         -2   -1    0    0    0  501 -0.00000000000E+00  0.00000000000E+00  0.95037949522E+03  0.95037949522E+03  0.00000000000E+00 0.  1.
          2   -1    0    0  501    0  0.00000000000E+00 -0.00000000000E+00 -0.13717846380E+04  0.13717846380E+04  0.00000000000E+00 0. -1.
         23    2    1    2    0    0 -0.42364322387E+03  0.10554243113E+04 -0.13051829264E+03  0.11482777598E+04  0.90070699688E+02 0.  0.
         11    1    3    3    0    0 -0.10025310208E+03  0.29599415338E+03  0.59061510047E+00  0.31251171520E+03  0.00000000000E+00 0. -1.
        -11    1    3    3    0    0 -0.32339012179E+03  0.75943015796E+03 -0.13110890774E+03  0.83576604464E+03  0.00000000000E+00 0.  1.
         22    1    1    2    0    0  0.42364322387E+03 -0.10554243113E+04 -0.29088685019E+03  0.11738863734E+04  0.00000000000E+00 0.  1.
<mgrwt>
<rscale>  0 0.22836077E+04</rscale>
<asrwt>0</asrwt>
<pdfrwt beam="1">  1        2 0.21104379E+00 0.22836077E+04</pdfrwt>
<pdfrwt beam="2">  1       -2 0.14621223E+00 0.22836077E+04</pdfrwt>
<totfact> 0.43722137E+00</totfact>
</mgrwt>
</event>
<event>
 6    1  0.2238133E-007  0.1465033E+04  0.7818608E-02  0.8908044E-01
         -2   -1    0    0    0  501 -0.00000000000E+00  0.00000000000E+00  0.29594678777E+03  0.29594678777E+03  0.00000000000E+00 0.  1.
          2   -1    0    0  501    0  0.00000000000E+00 -0.00000000000E+00 -0.18130988040E+04  0.18130988040E+04  0.00000000000E+00 0. -1.
         23    2    1    2    0    0 -0.71460059923E+03  0.14712824701E+03 -0.74745454215E+03  0.10485103783E+04  0.91569554384E+02 0.  0.
         13    1    3    3    0    0 -0.46133821408E+03  0.13342596192E+03 -0.51982699652E+03  0.70771148175E+03  0.00000000000E+00 0. -1.
        -13    1    3    3    0    0 -0.25326238514E+03  0.13702285088E+02 -0.22762754563E+03  0.34079889653E+03  0.00000000000E+00 0.  1.
         22    1    1    2    0    0  0.71460059923E+03 -0.14712824701E+03 -0.76969747411E+03  0.10605352135E+04  0.00000000000E+00 0.  1.
<mgrwt>
<rscale>  0 0.14650335E+04</rscale>
<asrwt>0</asrwt>
<pdfrwt beam="1">  1        2 0.27893828E+00 0.14650335E+04</pdfrwt>
<pdfrwt beam="2">  1       -2 0.45530275E-01 0.14650335E+04</pdfrwt>
<totfact> 0.37602493E+01</totfact>
</mgrwt>
</event>
<event>
 6    1  0.2238133E-007  0.7980619E+03  0.7818608E-02  0.9562827E-01
          2   -1    0    0  501    0  0.00000000000E+00  0.00000000000E+00  0.84529895196E+03  0.84529895196E+03  0.00000000000E+00 0. -1.
         -2   -1    0    0    0  501 -0.00000000000E+00 -0.00000000000E+00 -0.18836613246E+03  0.18836613246E+03  0.00000000000E+00 0.  1.
         23    2    1    2    0    0  0.28678062190E+03 -0.11850455588E+03  0.64729889384E+03  0.72321497992E+03  0.88077206806E+02 0.  0.
         13    1    3    3    0    0  0.57735989113E+02 -0.61198870867E+02  0.21043802486E+03  0.22663386450E+03  0.00000000000E+00 0. -1.
        -13    1    3    3    0    0  0.22904463279E+03 -0.57305685010E+02  0.43686086898E+03  0.49658111542E+03  0.00000000000E+00 0.  1.
         22    1    1    2    0    0 -0.28678062190E+03  0.11850455588E+03  0.96339256590E+01  0.31045010450E+03  0.00000000000E+00 0.  1.
<mgrwt>
<rscale>  0 0.79806189E+03</rscale>
<asrwt>0</asrwt>
<pdfrwt beam="1">  1        2 0.13004599E+00 0.79806189E+03</pdfrwt>
<pdfrwt beam="2">  1       -2 0.28979405E-01 0.79806189E+03</pdfrwt>
<totfact> 0.35124890E+02</totfact>
</mgrwt>
</event>
<event>
 6    1  0.2238133E-007  0.2902223E+04  0.7818608E-02  0.8272216E-01
         -2   -1    0    0    0  501 -0.00000000000E+00  0.00000000000E+00  0.98859180546E+03  0.98859180546E+03  0.00000000000E+00 0.  1.
          2   -1    0    0  501    0  0.00000000000E+00 -0.00000000000E+00 -0.21300240334E+04  0.21300240334E+04  0.00000000000E+00 0. -1.
         23    2    1    2    0    0 -0.33275469969E+03  0.12824795261E+03 -0.20812025700E+04  0.21134583768E+04  0.90160665108E+02 0.  0.
         13    1    3    3    0    0 -0.19574423703E+03  0.44741467068E+02 -0.95476239462E+03  0.97564790543E+03  0.00000000000E+00 0.  1.
        -13    1    3    3    0    0 -0.13701046266E+03  0.83506485547E+02 -0.11264401754E+04  0.11378104714E+04  0.00000000000E+00 0. -1.
         22    1    1    2    0    0  0.33275469969E+03 -0.12824795261E+03  0.93977034212E+03  0.10051574620E+04  0.00000000000E+00 0.  1.
<mgrwt>
<rscale>  0 0.29022228E+04</rscale>
<asrwt>0</asrwt>
<pdfrwt beam="1">  1        2 0.32769600E+00 0.29022228E+04</pdfrwt>
<pdfrwt beam="2">  1       -2 0.15209105E+00 0.29022228E+04</pdfrwt>
<totfact> 0.14086840E+00</totfact>
</mgrwt>
</event>
<event>
 6    1  0.2238133E-007  0.1281493E+04  0.7818608E-02  0.9044372E-01
         -2   -1    0    0    0  501 -0.00000000000E+00  0.00000000000E+00  0.78696058081E+03  0.78696058081E+03  0.00000000000E+00 0.  1.
          2   -1    0    0  501    0  0.00000000000E+00 -0.00000000000E+00 -0.52169820998E+03  0.52169820998E+03  0.00000000000E+00 0. -1.
         23    2    1    2    0    0  0.47256266020E+03 -0.12032350624E+03  0.55298051062E+03  0.74246541222E+03  0.87602678304E+02 0.  0.
         11    1    3    3    0    0  0.35004934660E+02  0.13024563467E+02  0.52621592648E+02  0.64529192749E+02  0.00000000000E+00 0. -1.
        -11    1    3    3    0    0  0.43755772555E+03 -0.13334806970E+03  0.50035891797E+03  0.67793621947E+03  0.00000000000E+00 0.  1.
         22    1    1    2    0    0 -0.47256266020E+03  0.12032350624E+03 -0.28771813978E+03  0.56619337857E+03  0.00000000000E+00 0. -1.
<mgrwt>
<rscale>  0 0.12814928E+04</rscale>
<asrwt>0</asrwt>
<pdfrwt beam="1">  1        2 0.80261263E-01 0.12814928E+04</pdfrwt>
<pdfrwt beam="2">  1       -2 0.12107086E+00 0.12814928E+04</pdfrwt>
<totfact> 0.29858408E+01</totfact>
</mgrwt>
</event>
<event>
 6    1  0.2238133E-007  0.2058350E+04  0.7818608E-02  0.8579816E-01
          2   -1    0    0  501    0  0.00000000000E+00  0.00000000000E+00  0.36242506313E+04  0.36242506313E+04  0.00000000000E+00 0. -1.
         -2   -1    0    0    0  501 -0.00000000000E+00 -0.00000000000E+00 -0.29225390912E+03  0.29225390912E+03  0.00000000000E+00 0.  1.
         23    2    1    2    0    0 -0.74025938421E+03  0.44899822134E+03  0.61748732476E+03  0.10672687433E+04  0.90490969686E+02 0.  0.
         11    1    3    3    0    0 -0.59897680992E+03  0.38506629353E+03  0.54149351590E+03  0.89457503709E+03  0.00000000000E+00 0. -1.
        -11    1    3    3    0    0 -0.14128257429E+03  0.63931927812E+02  0.75993808869E+02  0.17269370625E+03  0.00000000000E+00 0.  1.
         22    1    1    2    0    0  0.74025938421E+03 -0.44899822134E+03  0.27145093974E+04  0.28492357971E+04  0.00000000000E+00 0. -1.
<mgrwt>
<rscale>  0 0.20583502E+04</rscale>
<asrwt>0</asrwt>
<pdfrwt beam="1">  1        2 0.55757699E+00 0.20583502E+04</pdfrwt>
<pdfrwt beam="2">  1       -2 0.44962143E-01 0.20583502E+04</pdfrwt>
<totfact> 0.28936865E+00</totfact>
</mgrwt>
</event>
<event>
 6    1  0.2238133E-007  0.7273701E+03  0.7818608E-02  0.9671538E-01
         -2   -1    0    0    0  501 -0.00000000000E+00  0.00000000000E+00  0.12808827008E+03  0.12808827008E+03  0.00000000000E+00 0.  1.
          2   -1    0    0  501    0  0.00000000000E+00 -0.00000000000E+00 -0.10326223713E+04  0.10326223713E+04  0.00000000000E+00 0. -1.
         23    2    1    2    0    0 -0.68035972306E+02  0.17397981978E+03  0.28176489086E+02  0.20947622418E+03  0.90490346110E+02 0.  0.
         11    1    3    3    0    0 -0.86911736122E+02  0.14274837532E+03  0.69717152963E+01  0.16727030026E+03  0.00000000000E+00 0.  1.
        -11    1    3    3    0    0  0.18875763816E+02  0.31231444459E+02  0.21204773790E+02  0.42205923922E+02  0.00000000000E+00 0. -1.
         22    1    1    2    0    0  0.68035972306E+02 -0.17397981978E+03 -0.93271059034E+03  0.95123441725E+03  0.00000000000E+00 0. -1.
<mgrwt>
<rscale>  0 0.72737009E+03</rscale>
<asrwt>0</asrwt>
<pdfrwt beam="1">  1        2 0.15886498E+00 0.72737009E+03</pdfrwt>
<pdfrwt beam="2">  1       -2 0.19705887E-01 0.72737009E+03</pdfrwt>
<totfact> 0.52936630E+02</totfact>
</mgrwt>
</event>
<event>
 6    1  0.2238133E-007  0.6325225E+03  0.7818608E-02  0.9840139E-01
         -2   -1    0    0    0  501 -0.00000000000E+00  0.00000000000E+00  0.15536364279E+03  0.15536364279E+03  0.00000000000E+00 0.  1.
          2   -1    0    0  501    0  0.00000000000E+00 -0.00000000000E+00 -0.64378749645E+03  0.64378749645E+03  0.00000000000E+00 0. -1.
         23    2    1    2    0    0 -0.22239427802E+03 -0.15589425574E+03 -0.43605863278E+03  0.52255694149E+03  0.95689038083E+02 0.  0.
         11    1    3    3    0    0 -0.11589998048E+03 -0.50177576650E+02 -0.27393538645E+03  0.30164746083E+03  0.00000000000E+00 0.  1.
        -11    1    3    3    0    0 -0.10649429754E+03 -0.10571667909E+03 -0.16212324632E+03  0.22090948066E+03  0.00000000000E+00 0. -1.
         22    1    1    2    0    0  0.22239427802E+03  0.15589425574E+03 -0.52365220884E+02  0.27659419775E+03  0.00000000000E+00 0. -1.
<mgrwt>
<rscale>  0 0.63252248E+03</rscale>
<asrwt>0</asrwt>
<pdfrwt beam="1">  1        2 0.99044233E-01 0.63252248E+03</pdfrwt>
<pdfrwt beam="2">  1       -2 0.23902098E-01 0.63252248E+03</pdfrwt>
<totfact> 0.71112048E+02</totfact>
</mgrwt>
</event>
<event>
 6    1  0.2238133E-007  0.1261443E+04  0.7818608E-02  0.9060713E-01
          2   -1    0    0  501    0  0.00000000000E+00  0.00000000000E+00  0.51336870358E+03  0.51336870358E+03  0.00000000000E+00 0. -1.
         -2   -1    0    0    0  501 -0.00000000000E+00 -0.00000000000E+00 -0.77490008107E+03  0.77490008107E+03  0.00000000000E+00 0.  1.
         23    2    1    2    0    0 -0.36223993621E+03  0.59551378124E+02  0.38835782530E+03  0.54186399239E+03  0.89613881481E+02 0.  0.
         13    1    3    3    0    0 -0.71879955672E+02  0.46567881509E+02  0.68450139913E+02  0.10963903169E+03  0.00000000000E+00 0.  1.
        -13    1    3    3    0    0 -0.29035998053E+03  0.12983496616E+02  0.31990768539E+03  0.43222496070E+03  0.00000000000E+00 0. -1.
         22    1    1    2    0    0  0.36223993621E+03 -0.59551378124E+02 -0.64988920279E+03  0.74640479227E+03  0.00000000000E+00 0.  1.
<mgrwt>
<rscale>  0 0.12614427E+04</rscale>
<asrwt>0</asrwt>
<pdfrwt beam="1">  1        2 0.78979800E-01 0.12614427E+04</pdfrwt>
<pdfrwt beam="2">  1       -2 0.11921540E+00 0.12614427E+04</pdfrwt>
<totfact> 0.31663460E+01</totfact>
</mgrwt>
</event>
<event>
 6    1  0.2238133E-007  0.8792574E+03  0.7818608E-02  0.9451889E-01
          2   -1    0    0  501    0  0.00000000000E+00  0.00000000000E+00  0.10331890528E+04  0.10331890528E+04  0.00000000000E+00 0. -1.
         -2   -1    0    0    0  501 -0.00000000000E+00 -0.00000000000E+00 -0.18706489597E+03  0.18706489597E+03  0.00000000000E+00 0.  1.
         23    2    1    2    0    0 -0.15307668707E+03 -0.27700048560E+03  0.84155768100E+03  0.90373760825E+03  0.91436278131E+02 0.  0.
         11    1    3    3    0    0 -0.35974514109E+02 -0.73086186970E+02  0.34253046177E+03  0.35208361739E+03  0.00000000000E+00 0. -1.
        -11    1    3    3    0    0 -0.11710217296E+03 -0.20391429863E+03  0.49902721923E+03  0.55165399086E+03  0.00000000000E+00 0.  1.
         22    1    1    2    0    0  0.15307668707E+03  0.27700048560E+03  0.45664758668E+01  0.31651634057E+03  0.00000000000E+00 0.  1.
<mgrwt>
<rscale>  0 0.87925742E+03</rscale>
<asrwt>0</asrwt>
<pdfrwt beam="1">  1        2 0.15895216E+00 0.87925742E+03</pdfrwt>
<pdfrwt beam="2">  1       -2 0.28779215E-01 0.87925742E+03</pdfrwt>
<totfact> 0.26624210E+02</totfact>
</mgrwt>
</event>
<event>
 6    1  0.2238133E-007  0.7458549E+03  0.7818608E-02  0.9641876E-01
         -2   -1    0    0    0  501 -0.00000000000E+00  0.00000000000E+00  0.24745836838E+03  0.24745836838E+03  0.00000000000E+00 0.  1.
          2   -1    0    0  501    0  0.00000000000E+00 -0.00000000000E+00 -0.56201328322E+03  0.56201328322E+03  0.00000000000E+00 0. -1.
         23    2    1    2    0    0  0.17245848228E+02  0.22929143964E+03 -0.47030748541E+03  0.53174724358E+03  0.93241710866E+02 0.  0.
         11    1    3    3    0    0 -0.14233865245E+02  0.21121942275E+03 -0.39525571458E+03  0.44837855365E+03  0.00000000000E+00 0. -1.
        -11    1    3    3    0    0  0.31479713473E+02  0.18072016884E+02 -0.75051770833E+02  0.83368689925E+02  0.00000000000E+00 0.  1.
         22    1    1    2    0    0 -0.17245848228E+02 -0.22929143964E+03  0.15575257057E+03  0.27772440802E+03  0.00000000000E+00 0.  1.
<mgrwt>
<rscale>  0 0.74585492E+03</rscale>
<asrwt>0</asrwt>
<pdfrwt beam="1">  1        2 0.86463582E-01 0.74585492E+03</pdfrwt>
<pdfrwt beam="2">  1       -2 0.38070518E-01 0.74585492E+03</pdfrwt>
<totfact> 0.35190391E+02</totfact>
</mgrwt>
</event>
<event>
 6    1  0.2238133E-007  0.3067944E+04  0.7818608E-02  0.8224591E-01
         -2   -1    0    0    0  501 -0.00000000000E+00  0.00000000000E+00  0.51598824737E+03  0.51598824737E+03  0.00000000000E+00 0.  1.
          2   -1    0    0  501    0  0.00000000000E+00 -0.00000000000E+00 -0.45603186761E+04  0.45603186761E+04  0.00000000000E+00 0. -1.
         23    2    1    2    0    0  0.81891242633E+03 -0.56060262224E+03 -0.91316440266E+02  0.10006214038E+04  0.89507762061E+02 0.  0.
         13    1    3    3    0    0  0.62928525967E+03 -0.42184557061E+03 -0.10704932616E+03  0.76512298470E+03  0.00000000000E+00 0.  1.
        -13    1    3    3    0    0  0.18962716666E+03 -0.13875705163E+03  0.15732885897E+02  0.23549841912E+03  0.00000000000E+00 0. -1.
         22    1    1    2    0    0 -0.81891242633E+03  0.56060262224E+03 -0.39530139884E+04  0.40756855196E+04  0.00000000000E+00 0. -1.
<mgrwt>
<rscale>  0 0.30679445E+04</rscale>
<asrwt>0</asrwt>
<pdfrwt beam="1">  1        2 0.70158744E+00 0.30679445E+04</pdfrwt>
<pdfrwt beam="2">  1       -2 0.79382813E-01 0.30679445E+04</pdfrwt>
<totfact> 0.12819173E-01</totfact>
</mgrwt>
</event>
<event>
 6    1  0.2238133E-007  0.3846188E+04  0.7818608E-02  0.8036315E-01
         -2   -1    0    0    0  501 -0.00000000000E+00  0.00000000000E+00  0.15767974769E+04  0.15767974769E+04  0.00000000000E+00 0.  1.
          2   -1    0    0  501    0  0.00000000000E+00 -0.00000000000E+00 -0.23454442828E+04  0.23454442828E+04  0.00000000000E+00 0. -1.
         23    2    1    2    0    0  0.15855955649E+04  0.10435151529E+04 -0.76703319282E+02  0.19018895730E+04  0.90903127719E+02 0.  0.
         11    1    3    3    0    0  0.34679524723E+03  0.19294630770E+03  0.62549325360E+01  0.39690596536E+03  0.00000000000E+00 0. -1.
        -11    1    3    3    0    0  0.12388003177E+04  0.85056884520E+03 -0.82958251818E+02  0.15049836076E+04  0.00000000000E+00 0.  1.
         22    1    1    2    0    0 -0.15855955649E+04 -0.10435151529E+04 -0.69194348658E+03  0.20203521868E+04  0.00000000000E+00 0. -1.
<mgrwt>
<rscale>  0 0.38461880E+04</rscale>
<asrwt>0</asrwt>
<pdfrwt beam="1">  1        2 0.36083758E+00 0.38461880E+04</pdfrwt>
<pdfrwt beam="2">  1       -2 0.24258423E+00 0.38461880E+04</pdfrwt>
<totfact> 0.24362454E-01</totfact>
</mgrwt>
</event>
<event>
 6    1  0.2238133E-007  0.2772423E+04  0.7818608E-02  0.8311881E-01
         -2   -1    0    0    0  501 -0.00000000000E+00  0.00000000000E+00  0.11722472123E+04  0.11722472123E+04  0.00000000000E+00 0.  1.
          2   -1    0    0  501    0  0.00000000000E+00 -0.00000000000E+00 -0.16392300721E+04  0.16392300721E+04  0.00000000000E+00 0. -1.
         23    2    1    2    0    0 -0.12993613333E+04  0.15398602380E+03  0.22588565834E+03  0.13308968735E+04  0.90612291046E+02 0.  0.
         13    1    3    3    0    0 -0.87268328552E+03  0.13860457142E+03  0.12775170352E+03  0.89280896153E+03  0.00000000000E+00 0. -1.
        -13    1    3    3    0    0 -0.42667804777E+03  0.15381452378E+02  0.98133954821E+02  0.43808791197E+03  0.00000000000E+00 0.  1.
         22    1    1    2    0    0  0.12993613333E+04 -0.15398602380E+03 -0.69286851811E+03  0.14805804110E+04  0.00000000000E+00 0. -1.
<mgrwt>
<rscale>  0 0.27724234E+04</rscale>
<asrwt>0</asrwt>
<pdfrwt beam="1">  1        2 0.25218924E+00 0.27724234E+04</pdfrwt>
<pdfrwt beam="2">  1       -2 0.18034573E+00 0.27724234E+04</pdfrwt>
<totfact> 0.16677446E+00</totfact>
</mgrwt>
</event>
<event>
 6    1  0.2238133E-007  0.2316897E+04  0.7818608E-02  0.8471289E-01
         -2   -1    0    0    0  501 -0.00000000000E+00  0.00000000000E+00  0.14015683533E+04  0.14015683533E+04  0.00000000000E+00 0.  1.
          2   -1    0    0  501    0  0.00000000000E+00 -0.00000000000E+00 -0.95750060591E+03  0.95750060591E+03  0.00000000000E+00 0. -1.
         23    2    1    2    0    0  0.90273231147E+02 -0.43182586173E+03 -0.86602654587E+03  0.97669061435E+03  0.96435195330E+02 0.  0.
         11    1    3    3    0    0  0.10110115506E+03 -0.27617331104E+03 -0.52772385383E+03  0.60414038699E+03  0.00000000000E+00 0. -1.
        -11    1    3    3    0    0 -0.10827923911E+02 -0.15565255069E+03 -0.33830269204E+03  0.37255022737E+03  0.00000000000E+00 0.  1.
         22    1    1    2    0    0 -0.90273231147E+02  0.43182586173E+03  0.13100942932E+04  0.13823783448E+04  0.00000000000E+00 0.  1.
<mgrwt>
<rscale>  0 0.23168967E+04</rscale>
<asrwt>0</asrwt>
<pdfrwt beam="1">  1        2 0.14730778E+00 0.23168967E+04</pdfrwt>
<pdfrwt beam="2">  1       -2 0.21562590E+00 0.23168967E+04</pdfrwt>
<totfact> 0.25602733E+00</totfact>
</mgrwt>
</event>
<event>
 6    1  0.2238133E-007  0.2351853E+04  0.7818608E-02  0.8457752E-01
          2   -1    0    0  501    0  0.00000000000E+00  0.00000000000E+00  0.32776719518E+04  0.32776719518E+04  0.00000000000E+00 0. -1.
         -2   -1    0    0    0  501 -0.00000000000E+00 -0.00000000000E+00 -0.42188583308E+03  0.42188583308E+03  0.00000000000E+00 0.  1.
         23    2    1    2    0    0  0.11551169377E+01 -0.53469981712E+03  0.30744052501E+04  0.31218904469E+04  0.91252902419E+02 0.  0.
         13    1    3    3    0    0  0.12285295130E+02 -0.46695308104E+03  0.28180203696E+04  0.28564724595E+04  0.00000000000E+00 0.  1.
        -13    1    3    3    0    0 -0.11130178192E+02 -0.67746736083E+02  0.25638488046E+03  0.26541798741E+03  0.00000000000E+00 0. -1.
         22    1    1    2    0    0 -0.11551169377E+01  0.53469981712E+03 -0.21861913136E+03  0.57766733794E+03  0.00000000000E+00 0.  1.
<mgrwt>
<rscale>  0 0.23518532E+04</rscale>
<asrwt>0</asrwt>
<pdfrwt beam="1">  1        2 0.50425721E+00 0.23518532E+04</pdfrwt>
<pdfrwt beam="2">  1       -2 0.64905515E-01 0.23518532E+04</pdfrwt>
<totfact> 0.22821449E+00</totfact>
</mgrwt>
</event>
<event>
 6    1  0.2238133E-007  0.2097320E+04  0.7818608E-02  0.8562425E-01
         -2   -1    0    0    0  501 -0.00000000000E+00  0.00000000000E+00  0.91405161547E+03  0.91405161547E+03  0.00000000000E+00 0.  1.
          2   -1    0    0  501    0  0.00000000000E+00 -0.00000000000E+00 -0.12030918583E+04  0.12030918583E+04  0.00000000000E+00 0. -1.
         23    2    1    2    0    0 -0.86899437093E+03  0.25423864716E+03 -0.67434725910E+03  0.11331465209E+04  0.97407933538E+02 0.  0.
         11    1    3    3    0    0 -0.67637043230E+03  0.16715583370E+03 -0.55210095853E+03  0.88895078764E+03  0.00000000000E+00 0.  1.
        -11    1    3    3    0    0 -0.19262393863E+03  0.87082813455E+02 -0.12224630057E+03  0.24419573325E+03  0.00000000000E+00 0. -1.
         22    1    1    2    0    0  0.86899437093E+03 -0.25423864716E+03  0.38530701631E+03  0.98399695286E+03  0.00000000000E+00 0.  1.
<mgrwt>
<rscale>  0 0.20973202E+04</rscale>
<asrwt>0</asrwt>
<pdfrwt beam="1">  1        2 0.18509105E+00 0.20973202E+04</pdfrwt>
<pdfrwt beam="2">  1       -2 0.14062333E+00 0.20973202E+04</pdfrwt>
<totfact> 0.61727359E+00</totfact>
</mgrwt>
</event>
<event>
 6    1  0.2238133E-007  0.2877066E+04  0.7818608E-02  0.8279734E-01
          1   -1    0    0  501    0  0.00000000000E+00  0.00000000000E+00  0.27887773465E+04  0.27887773465E+04  0.00000000000E+00 0. -1.
         -1   -1    0    0    0  501 -0.00000000000E+00 -0.00000000000E+00 -0.74203720286E+03  0.74203720286E+03  0.00000000000E+00 0.  1.
         23    2    1    2    0    0 -0.13923204834E+03 -0.11652048386E+04  0.20424264097E+04  0.23573127439E+04  0.91268036030E+02 0.  0.
         13    1    3    3    0    0 -0.12936021154E+03 -0.75430306534E+03  0.13672418597E+04  0.15668623046E+04  0.00000000000E+00 0. -1.
        -13    1    3    3    0    0 -0.98718368009E+01 -0.41090177325E+03  0.67518455003E+03  0.79045043932E+03  0.00000000000E+00 0.  1.
         22    1    1    2    0    0  0.13923204834E+03  0.11652048386E+04  0.43137339607E+01  0.11735018055E+04  0.00000000000E+00 0.  1.
<mgrwt>
<rscale>  0 0.28770655E+04</rscale>
<asrwt>0</asrwt>
<pdfrwt beam="1">  1        1 0.42904266E+00 0.28770655E+04</pdfrwt>
<pdfrwt beam="2">  1       -1 0.11415957E+00 0.28770655E+04</pdfrwt>
<totfact> 0.50972757E-01</totfact>
</mgrwt>
</event>
<event>
 6    1  0.2238133E-007  0.4982418E+04  0.7818608E-02  0.7831225E-01
          2   -1    0    0  501    0  0.00000000000E+00  0.00000000000E+00  0.30447191544E+04  0.30447191544E+04  0.00000000000E+00 0. -1.
         -2   -1    0    0    0  501 -0.00000000000E+00 -0.00000000000E+00 -0.20383231673E+04  0.20383231673E+04  0.00000000000E+00 0.  1.
         23    2    1    2    0    0 -0.28261958666E+03 -0.20050662324E+04 -0.97562343104E+03  0.22495699994E+04  0.92518515652E+02 0.  0.
         13    1    3    3    0    0 -0.19946950673E+03 -0.12805086427E+04 -0.66872207290E+03  0.14583139851E+04  0.00000000000E+00 0. -1.
        -13    1    3    3    0    0 -0.83150079931E+02 -0.72455758970E+03 -0.30690135813E+03  0.79125601433E+03  0.00000000000E+00 0.  1.
         22    1    1    2    0    0  0.28261958666E+03  0.20050662324E+04  0.19820194182E+04  0.28334723223E+04  0.00000000000E+00 0. -1.
<mgrwt>
<rscale>  0 0.49824177E+04</rscale>
<asrwt>0</asrwt>
<pdfrwt beam="1">  1        2 0.46841833E+00 0.49824177E+04</pdfrwt>
<pdfrwt beam="2">  1       -2 0.31358818E+00 0.49824177E+04</pdfrwt>
<totfact> 0.31182584E-02</totfact>
</mgrwt>
</event>
<event>
 6    1  0.2238133E-007  0.2122792E+04  0.7818608E-02  0.8551269E-01
         -2   -1    0    0    0  501 -0.00000000000E+00  0.00000000000E+00  0.63911338329E+03  0.63911338329E+03  0.00000000000E+00 0.  1.
          2   -1    0    0  501    0  0.00000000000E+00 -0.00000000000E+00 -0.17626942934E+04  0.17626942934E+04  0.00000000000E+00 0. -1.
         23    2    1    2    0    0  0.55441832436E+03 -0.59435515654E+03 -0.13315739042E+04  0.15628208972E+04  0.93179203399E+02 0.  0.
         11    1    3    3    0    0  0.26895098688E+03 -0.22466754653E+03 -0.60056794591E+03  0.69533588823E+03  0.00000000000E+00 0.  1.
        -11    1    3    3    0    0  0.28546733747E+03 -0.36968761001E+03 -0.73100595826E+03  0.86748500896E+03  0.00000000000E+00 0. -1.
         22    1    1    2    0    0 -0.55441832436E+03  0.59435515654E+03  0.20799299410E+03  0.83898677945E+03  0.00000000000E+00 0. -1.
<mgrwt>
<rscale>  0 0.21227920E+04</rscale>
<asrwt>0</asrwt>
<pdfrwt beam="1">  1        2 0.27118373E+00 0.21227920E+04</pdfrwt>
<pdfrwt beam="2">  1       -2 0.98325139E-01 0.21227920E+04</pdfrwt>
<totfact> 0.71566861E+00</totfact>
</mgrwt>
</event>
<event>
 6    1  0.2238133E-007  0.3367890E+04  0.7818608E-02  0.8145833E-01
         -2   -1    0    0    0  501 -0.00000000000E+00  0.00000000000E+00  0.10481100809E+04  0.10481100809E+04  0.00000000000E+00 0.  1.
          2   -1    0    0  501    0  0.00000000000E+00 -0.00000000000E+00 -0.27055077847E+04  0.27055077847E+04  0.00000000000E+00 0. -1.
         23    2    1    2    0    0  0.72184991905E+03  0.42761259964E+03  0.79619775259E+03  0.11605404460E+04  0.94886376684E+02 0.  0.
         11    1    3    3    0    0  0.88465912455E+02  0.87316355889E+02  0.97632892141E+02  0.15805867676E+03  0.00000000000E+00 0. -1.
        -11    1    3    3    0    0  0.63338400660E+03  0.34029624375E+03  0.69856486045E+03  0.10024817692E+04  0.00000000000E+00 0.  1.
         22    1    1    2    0    0 -0.72184991905E+03 -0.42761259964E+03 -0.24535954564E+04  0.25930774197E+04  0.00000000000E+00 0. -1.
<mgrwt>
<rscale>  0 0.33678895E+04</rscale>
<asrwt>0</asrwt>
<pdfrwt beam="1">  1        2 0.41623196E+00 0.33678895E+04</pdfrwt>
<pdfrwt beam="2">  1       -2 0.16124771E+00 0.33678895E+04</pdfrwt>
<totfact> 0.53964955E-01</totfact>
</mgrwt>
</event>
<event>
 6    1  0.2238133E-007  0.1088508E+04  0.7818608E-02  0.9216466E-01
         -2   -1    0    0    0  501 -0.00000000000E+00  0.00000000000E+00  0.24067995853E+03  0.24067995853E+03  0.00000000000E+00 0.  1.
          2   -1    0    0  501    0  0.00000000000E+00 -0.00000000000E+00 -0.12307309448E+04  0.12307309448E+04  0.00000000000E+00 0. -1.
         23    2    1    2    0    0  0.46238853585E+03  0.14373627128E+03 -0.82295498374E+03  0.95917624240E+03  0.91109192496E+02 0.  0.
         11    1    3    3    0    0  0.30207238459E+03  0.77925349703E+02 -0.44579721188E+03  0.54410958435E+03  0.00000000000E+00 0.  1.
        -11    1    3    3    0    0  0.16031615126E+03  0.65810921577E+02 -0.37715777186E+03  0.41506665805E+03  0.00000000000E+00 0. -1.
         22    1    1    2    0    0 -0.46238853585E+03 -0.14373627128E+03 -0.16709600248E+03  0.51223466088E+03  0.00000000000E+00 0. -1.
<mgrwt>
<rscale>  0 0.10885077E+04</rscale>
<asrwt>0</asrwt>
<pdfrwt beam="1">  1        2 0.18934322E+00 0.10885077E+04</pdfrwt>
<pdfrwt beam="2">  1       -2 0.37027686E-01 0.10885077E+04</pdfrwt>
<totfact> 0.12389287E+02</totfact>
</mgrwt>
</event>
<event>
 6    1  0.2555454E-007  0.2108522E+04  0.7818608E-02  0.8557499E-01
          2   -1    0    0  501    0  0.00000000000E+00  0.00000000000E+00  0.20710964470E+04  0.20710964470E+04  0.00000000000E+00 0. -1.
         -2   -1    0    0    0  501 -0.00000000000E+00 -0.00000000000E+00 -0.53665584129E+03  0.53665584129E+03  0.00000000000E+00 0.  1.
         23    2    1    2    0    0  0.30589798857E+00 -0.41177011666E+03 -0.42881451939E+03  0.60177985359E+03  0.93286534936E+02 0.  0.
         13    1    3    3    0    0 -0.20622033772E+02 -0.21233420648E+03 -0.16129481186E+03  0.26744550819E+03  0.00000000000E+00 0. -1.
        -13    1    3    3    0    0  0.20927931761E+02 -0.19943591018E+03 -0.26751970754E+03  0.33433434540E+03  0.00000000000E+00 0.  1.
         22    1    1    2    0    0 -0.30589798857E+00  0.41177011666E+03  0.19632551251E+04  0.20059724347E+04  0.00000000000E+00 0. -1.
<mgrwt>
<rscale>  0 0.21085218E+04</rscale>
<asrwt>0</asrwt>
<pdfrwt beam="1">  1        2 0.31863022E+00 0.21085218E+04</pdfrwt>
<pdfrwt beam="2">  1       -2 0.82562438E-01 0.21085218E+04</pdfrwt>
<totfact> 0.72288389E+00</totfact>
</mgrwt>
</event>
<event>
 6    1  0.2238133E-007  0.3264841E+04  0.7818608E-02  0.8171900E-01
         -1   -1    0    0    0  501 -0.00000000000E+00  0.00000000000E+00  0.13326295958E+04  0.13326295958E+04  0.00000000000E+00 0.  1.
          1   -1    0    0  501    0  0.00000000000E+00 -0.00000000000E+00 -0.19996533019E+04  0.19996533019E+04  0.00000000000E+00 0. -1.
         23    2    1    2    0    0 -0.63189997826E+03  0.43617450567E+03  0.11349122774E+04  0.13735794821E+04  0.95650061615E+02 0.  0.
         13    1    3    3    0    0 -0.34869706454E+03  0.18303031583E+03  0.58814062526E+03  0.70781292331E+03  0.00000000000E+00 0.  1.
        -13    1    3    3    0    0 -0.28320291372E+03  0.25314418985E+03  0.54677165216E+03  0.66576655879E+03  0.00000000000E+00 0. -1.
         22    1    1    2    0    0  0.63189997826E+03 -0.43617450567E+03 -0.18019359834E+04  0.19587034156E+04  0.00000000000E+00 0. -1.
<mgrwt>
<rscale>  0 0.32648413E+04</rscale>
<asrwt>0</asrwt>
<pdfrwt beam="1">  1        1 0.30763897E+00 0.32648413E+04</pdfrwt>
<pdfrwt beam="2">  1       -1 0.20501994E+00 0.32648413E+04</pdfrwt>
<totfact> 0.34488735E-01</totfact>
</mgrwt>
</event>
<event>
 6    1  0.2238133E-007  0.2703408E+04  0.7818608E-02  0.8333900E-01
         -2   -1    0    0    0  501 -0.00000000000E+00  0.00000000000E+00  0.91865951519E+03  0.91865951519E+03  0.00000000000E+00 0.  1.
          2   -1    0    0  501    0  0.00000000000E+00 -0.00000000000E+00 -0.19888798423E+04  0.19888798423E+04  0.00000000000E+00 0. -1.
         23    2    1    2    0    0 -0.39395762631E+03  0.12913701547E+04 -0.52836408422E+03  0.14527377642E+04  0.91863585336E+02 0.  0.
         13    1    3    3    0    0 -0.28280453717E+03  0.10419454090E+04 -0.40520168864E+03  0.11531769379E+04  0.00000000000E+00 0. -1.
        -13    1    3    3    0    0 -0.11115308913E+03  0.24942474574E+03 -0.12316239559E+03  0.29956082638E+03  0.00000000000E+00 0.  1.
         22    1    1    2    0    0  0.39395762631E+03 -0.12913701547E+04 -0.54185624293E+03  0.14548015933E+04  0.00000000000E+00 0.  1.
<mgrwt>
<rscale>  0 0.27034078E+04</rscale>
<asrwt>0</asrwt>
<pdfrwt beam="1">  1        2 0.30598151E+00 0.27034078E+04</pdfrwt>
<pdfrwt beam="2">  1       -2 0.14133224E+00 0.27034078E+04</pdfrwt>
<totfact> 0.20829194E+00</totfact>
</mgrwt>
</event>
<event>
 6    1  0.2238133E-007  0.1317059E+04  0.7818608E-02  0.9016146E-01
         -2   -1    0    0    0  501 -0.00000000000E+00  0.00000000000E+00  0.65958293728E+03  0.65958293728E+03  0.00000000000E+00 0.  1.
          2   -1    0    0  501    0  0.00000000000E+00 -0.00000000000E+00 -0.65747778484E+03  0.65747778484E+03  0.00000000000E+00 0. -1.
         23    2    1    2    0    0  0.34376869057E+03  0.15309422359E+03  0.53704613123E+03  0.66301438989E+03  0.97748556049E+02 0.  0.
         13    1    3    3    0    0  0.15678101404E+03  0.78619644493E+02  0.33322578964E+03  0.37656441912E+03  0.00000000000E+00 0. -1.
        -13    1    3    3    0    0  0.18698767653E+03  0.74474579094E+02  0.20382034159E+03  0.28644997077E+03  0.00000000000E+00 0.  1.
         22    1    1    2    0    0 -0.34376869057E+03 -0.15309422359E+03 -0.53494097880E+03  0.65404633224E+03  0.00000000000E+00 0. -1.
<mgrwt>
<rscale>  0 0.13170590E+04</rscale>
<asrwt>0</asrwt>
<pdfrwt beam="1">  1        2 0.10115043E+00 0.13170590E+04</pdfrwt>
<pdfrwt beam="2">  1       -2 0.10147430E+00 0.13170590E+04</pdfrwt>
<totfact> 0.34627373E+01</totfact>
</mgrwt>
</event>
<event>
 6    1  0.2238133E-007  0.1123991E+04  0.7818608E-02  0.9182119E-01
          2   -1    0    0  501    0  0.00000000000E+00  0.00000000000E+00  0.28563174406E+04  0.28563174406E+04  0.00000000000E+00 0. -1.
         -2   -1    0    0    0  501 -0.00000000000E+00 -0.00000000000E+00 -0.11057562302E+03  0.11057562302E+03  0.00000000000E+00 0.  1.
         23    2    1    2    0    0  0.18136932048E+01  0.43375394785E+02  0.28511026415E+04  0.28529386096E+04  0.92669971707E+02 0.  0.
         13    1    3    3    0    0  0.21386162264E+02 -0.12612665235E+02  0.17950936052E+04  0.17952653004E+04  0.00000000000E+00 0.  1.
        -13    1    3    3    0    0 -0.19572469059E+02  0.55988060020E+02  0.10560090363E+04  0.10576733093E+04  0.00000000000E+00 0. -1.
         22    1    1    2    0    0 -0.18136932048E+01 -0.43375394785E+02 -0.10536082394E+03  0.11395445396E+03  0.00000000000E+00 0.  1.
<mgrwt>
<rscale>  0 0.11239912E+04</rscale>
<asrwt>0</asrwt>
<pdfrwt beam="1">  1        2 0.43943340E+00 0.11239912E+04</pdfrwt>
<pdfrwt beam="2">  1       -2 0.17011636E-01 0.11239912E+04</pdfrwt>
<totfact> 0.60894283E+01</totfact>
</mgrwt>
</event>
<event>
 6    1  0.2238133E-007  0.3469551E+03  0.7818608E-02  0.1063872E+00
          2   -1    0    0  501    0  0.00000000000E+00  0.00000000000E+00  0.35740673113E+03  0.35740673113E+03  0.00000000000E+00 0. -1.
         -2   -1    0    0    0  501 -0.00000000000E+00 -0.00000000000E+00 -0.84202281181E+02  0.84202281181E+02  0.00000000000E+00 0.  1.
         23    2    1    2    0    0  0.15655279627E+03 -0.34553143092E+02  0.17703578369E+03  0.25465685242E+03  0.88350133334E+02 0.  0.
         11    1    3    3    0    0  0.14193159682E+03  0.24570714123E+01  0.12496462947E+03  0.18912105646E+03  0.00000000000E+00 0.  1.
        -11    1    3    3    0    0  0.14621199448E+02 -0.37010214504E+02  0.52071154215E+02  0.65535795961E+02  0.00000000000E+00 0. -1.
         22    1    1    2    0    0 -0.15655279627E+03  0.34553143092E+02  0.96168666256E+02  0.18695215989E+03  0.00000000000E+00 0.  1.
<mgrwt>
<rscale>  0 0.34695511E+03</rscale>
<asrwt>0</asrwt>
<pdfrwt beam="1">  1        2 0.54985650E-01 0.34695511E+03</pdfrwt>
<pdfrwt beam="2">  1       -2 0.12954197E-01 0.34695511E+03</pdfrwt>
<totfact> 0.39533141E+03</totfact>
</mgrwt>
</event>
<event>
 6    1  0.2238133E-007  0.2792730E+04  0.7818608E-02  0.8305529E-01
         -2   -1    0    0    0  501 -0.00000000000E+00  0.00000000000E+00  0.11206631155E+04  0.11206631155E+04  0.00000000000E+00 0.  1.
          2   -1    0    0  501    0  0.00000000000E+00 -0.00000000000E+00 -0.17398935735E+04  0.17398935735E+04  0.00000000000E+00 0. -1.
         23    2    1    2    0    0 -0.68229815182E+01 -0.83182470928E+03  0.83702257723E+03  0.11834604477E+04  0.89403223880E+02 0.  0.
         13    1    3    3    0    0  0.11206444100E+02 -0.25125485922E+03  0.19960155335E+03  0.32108467539E+03  0.00000000000E+00 0. -1.
        -13    1    3    3    0    0 -0.18029425618E+02 -0.58056985006E+03  0.63742102389E+03  0.86237577232E+03  0.00000000000E+00 0.  1.
         22    1    1    2    0    0  0.68229815182E+01  0.83182470928E+03 -0.14562530352E+04  0.16770962413E+04  0.00000000000E+00 0. -1.
<mgrwt>
<rscale>  0 0.27927295E+04</rscale>
<asrwt>0</asrwt>
<pdfrwt beam="1">  1        2 0.26767593E+00 0.27927295E+04</pdfrwt>
<pdfrwt beam="2">  1       -2 0.17240971E+00 0.27927295E+04</pdfrwt>
<totfact> 0.16627479E+00</totfact>
</mgrwt>
</event>
<event>
 6    1  0.2238133E-007  0.3089223E+04  0.7818608E-02  0.8218702E-01
         -2   -1    0    0    0  501 -0.00000000000E+00  0.00000000000E+00  0.13716283966E+04  0.13716283966E+04  0.00000000000E+00 0.  1.
          2   -1    0    0  501    0  0.00000000000E+00 -0.00000000000E+00 -0.17394102580E+04  0.17394102580E+04  0.00000000000E+00 0. -1.
         23    2    1    2    0    0 -0.14275656026E+03 -0.15350867560E+04 -0.25420553815E+03  0.15651504422E+04  0.90579617301E+02 0.  0.
         11    1    3    3    0    0 -0.12236228746E+03 -0.84287239237E+03 -0.15091697265E+03  0.86497533597E+03  0.00000000000E+00 0.  1.
        -11    1    3    3    0    0 -0.20394272806E+02 -0.69221436366E+03 -0.10328856550E+03  0.70017510623E+03  0.00000000000E+00 0. -1.
         22    1    1    2    0    0  0.14275656026E+03  0.15350867560E+04 -0.11357632325E+03  0.15458882124E+04  0.00000000000E+00 0.  1.
<mgrwt>
<rscale>  0 0.30892229E+04</rscale>
<asrwt>0</asrwt>
<pdfrwt beam="1">  1        2 0.26760158E+00 0.30892229E+04</pdfrwt>
<pdfrwt beam="2">  1       -2 0.21101975E+00 0.30892229E+04</pdfrwt>
<totfact> 0.89377017E-01</totfact>
</mgrwt>
</event>
<event>
 6    1  0.2238133E-007  0.1704865E+04  0.7818608E-02  0.8758595E-01
          2   -1    0    0  501    0  0.00000000000E+00  0.00000000000E+00  0.22720259532E+04  0.22720259532E+04  0.00000000000E+00 0. -1.
         -2   -1    0    0    0  501 -0.00000000000E+00 -0.00000000000E+00 -0.31982080036E+03  0.31982080036E+03  0.00000000000E+00 0.  1.
         23    2    1    2    0    0  0.35708990816E+03  0.59451918746E+03  0.17261899195E+04  0.18624297587E+04  0.89144270882E+02 0.  0.
         13    1    3    3    0    0  0.29448587843E+03  0.44227202196E+03  0.13901650268E+04  0.14882490637E+04  0.00000000000E+00 0. -1.
        -13    1    3    3    0    0  0.62604029724E+02  0.15224716549E+03  0.33602489273E+03  0.37418069495E+03  0.00000000000E+00 0.  1.
         22    1    1    2    0    0 -0.35708990816E+03 -0.59451918746E+03  0.22601523338E+03  0.72941699492E+03  0.00000000000E+00 0.  1.
<mgrwt>
<rscale>  0 0.17048650E+04</rscale>
<asrwt>0</asrwt>
<pdfrwt beam="1">  1        2 0.34954244E+00 0.17048650E+04</pdfrwt>
<pdfrwt beam="2">  1       -2 0.49203202E-01 0.17048650E+04</pdfrwt>
<totfact> 0.17502318E+01</totfact>
</mgrwt>
</event>
<event>
 6    1  0.2238133E-007  0.1644405E+04  0.7818608E-02  0.8793724E-01
         -1   -1    0    0    0  501 -0.00000000000E+00  0.00000000000E+00  0.27862813745E+03  0.27862813745E+03  0.00000000000E+00 0.  1.
          1   -1    0    0  501    0  0.00000000000E+00 -0.00000000000E+00 -0.24262323147E+04  0.24262323147E+04  0.00000000000E+00 0. -1.
         23    2    1    2    0    0  0.48836848598E+03 -0.59770923858E+03 -0.62316565698E+03  0.99615541204E+03  0.90719661185E+02 0.  0.
         13    1    3    3    0    0  0.12940154237E+03 -0.22057723683E+03 -0.18454679781E+03  0.31536740027E+03  0.00000000000E+00 0.  1.
        -13    1    3    3    0    0  0.35896694361E+03 -0.37713200176E+03 -0.43861885917E+03  0.68078801177E+03  0.00000000000E+00 0. -1.
         22    1    1    2    0    0 -0.48836848598E+03  0.59770923858E+03 -0.15244385203E+04  0.17087050401E+04  0.00000000000E+00 0.  1.
<mgrwt>
<rscale>  0 0.16444046E+04</rscale>
<asrwt>0</asrwt>
<pdfrwt beam="1">  1        1 0.37326650E+00 0.16444046E+04</pdfrwt>
<pdfrwt beam="2">  1       -1 0.42865868E-01 0.16444046E+04</pdfrwt>
<totfact> 0.78222725E+00</totfact>
</mgrwt>
</event>
<event>
 6    1  0.2238133E-007  0.2987984E+04  0.7818608E-02  0.8247171E-01
         -2   -1    0    0    0  501 -0.00000000000E+00  0.00000000000E+00  0.13542952050E+04  0.13542952050E+04  0.00000000000E+00 0.  1.
          2   -1    0    0  501    0  0.00000000000E+00 -0.00000000000E+00 -0.16480983328E+04  0.16480983328E+04  0.00000000000E+00 0. -1.
         23    2    1    2    0    0 -0.70202904372E+03 -0.12289278644E+04 -0.62338154313E+03  0.15492141250E+04  0.91385899534E+02 0.  0.
         13    1    3    3    0    0 -0.12000085507E+03 -0.26510814012E+03 -0.10123479798E+03  0.30810877218E+03  0.00000000000E+00 0.  1.
        -13    1    3    3    0    0 -0.58202818864E+03 -0.96381972425E+03 -0.52214674515E+03  0.12411053528E+04  0.00000000000E+00 0. -1.
         22    1    1    2    0    0  0.70202904372E+03  0.12289278644E+04  0.32957841537E+03  0.14531794128E+04  0.00000000000E+00 0.  1.
<mgrwt>
<rscale>  0 0.29879837E+04</rscale>
<asrwt>0</asrwt>
<pdfrwt beam="1">  1        2 0.25355359E+00 0.29879837E+04</pdfrwt>
<pdfrwt beam="2">  1       -2 0.20835311E+00 0.29879837E+04</pdfrwt>
<totfact> 0.10540775E+00</totfact>
</mgrwt>
</event>
<event>
 6    1  0.2238133E-007  0.2501571E+04  0.7818608E-02  0.8402426E-01
          2   -1    0    0  501    0  0.00000000000E+00  0.00000000000E+00  0.15161950750E+04  0.15161950750E+04  0.00000000000E+00 0. -1.
         -2   -1    0    0    0  501 -0.00000000000E+00 -0.00000000000E+00 -0.10318355587E+04  0.10318355587E+04  0.00000000000E+00 0.  1.
         23    2    1    2    0    0  0.80546336719E+03  0.38008206761E+03  0.11345204854E+04  0.14453326243E+04  0.92822675288E+02 0.  0.
         11    1    3    3    0    0  0.13991284409E+03  0.28838214092E+02  0.18706776313E+03  0.23537543316E+03  0.00000000000E+00 0.  1.
        -11    1    3    3    0    0  0.66555052310E+03  0.35124385352E+03  0.94745272230E+03  0.12099571912E+04  0.00000000000E+00 0. -1.
         22    1    1    2    0    0 -0.80546336719E+03 -0.38008206761E+03 -0.65016096914E+03  0.11026980093E+04  0.00000000000E+00 0. -1.
<mgrwt>
<rscale>  0 0.25015707E+04</rscale>
<asrwt>0</asrwt>
<pdfrwt beam="1">  1        2 0.23326078E+00 0.25015707E+04</pdfrwt>
<pdfrwt beam="2">  1       -2 0.15874393E+00 0.25015707E+04</pdfrwt>
<totfact> 0.28529751E+00</totfact>
</mgrwt>
</event>
<event>
 6    1  0.2238133E-007  0.5266766E+04  0.7818608E-02  0.7788624E-01
         -2   -1    0    0    0  501 -0.00000000000E+00  0.00000000000E+00  0.21193762167E+04  0.21193762167E+04  0.00000000000E+00 0.  1.
          2   -1    0    0  501    0  0.00000000000E+00 -0.00000000000E+00 -0.32720500350E+04  0.32720500350E+04  0.00000000000E+00 0. -1.
         23    2    1    2    0    0 -0.20672784851E+04  0.14957283997E+04 -0.12396034772E+04  0.28383104011E+04  0.92441180261E+02 0.  0.
         13    1    3    3    0    0 -0.76638723273E+03  0.54364140025E+03 -0.40807961631E+03  0.10244141427E+04  0.00000000000E+00 0. -1.
        -13    1    3    3    0    0 -0.13008912524E+04  0.95208699940E+03 -0.83152386092E+03  0.18138962584E+04  0.00000000000E+00 0.  1.
         22    1    1    2    0    0  0.20672784851E+04 -0.14957283997E+04  0.86929658931E+02  0.25531158505E+04  0.00000000000E+00 0.  1.
<mgrwt>
<rscale>  0 0.52667656E+04</rscale>
<asrwt>0</asrwt>
<pdfrwt beam="1">  1        2 0.50339231E+00 0.52667656E+04</pdfrwt>
<pdfrwt beam="2">  1       -2 0.32605788E+00 0.52667656E+04</pdfrwt>
<totfact> 0.18179834E-02</totfact>
</mgrwt>
</event>
<event>
 6    1  0.2238133E-007  0.3618849E+03  0.7818608E-02  0.1057840E+00
          2   -1    0    0  501    0  0.00000000000E+00  0.00000000000E+00  0.45697021069E+03  0.45697021069E+03  0.00000000000E+00 0. -1.
         -2   -1    0    0    0  501 -0.00000000000E+00 -0.00000000000E+00 -0.71646190561E+02  0.71646190561E+02  0.00000000000E+00 0.  1.
         23    2    1    2    0    0 -0.74863867045E+02 -0.50060988966E+02  0.41430663664E+03  0.43400829767E+03  0.92749728163E+02 0.  0.
         13    1    3    3    0    0 -0.10767783914E+02 -0.14625702590E+01  0.25791128623E+03  0.25814010895E+03  0.00000000000E+00 0.  1.
        -13    1    3    3    0    0 -0.64096083131E+02 -0.48598418707E+02  0.15639535040E+03  0.17586818871E+03  0.00000000000E+00 0. -1.
         22    1    1    2    0    0  0.74863867045E+02  0.50060988966E+02 -0.28982616506E+02  0.94608103589E+02  0.00000000000E+00 0.  1.
<mgrwt>
<rscale>  0 0.36188493E+03</rscale>
<asrwt>0</asrwt>
<pdfrwt beam="1">  1        2 0.70303108E-01 0.36188493E+03</pdfrwt>
<pdfrwt beam="2">  1       -2 0.11022491E-01 0.36188493E+03</pdfrwt>
<totfact> 0.39254791E+03</totfact>
</mgrwt>
</event>
<event>
 6    1  0.2238133E-007  0.9248166E+03  0.7818608E-02  0.9395080E-01
         -2   -1    0    0    0  501 -0.00000000000E+00  0.00000000000E+00  0.34305605838E+03  0.34305605838E+03  0.00000000000E+00 0.  1.
          2   -1    0    0  501    0  0.00000000000E+00 -0.00000000000E+00 -0.62328425227E+03  0.62328425227E+03  0.00000000000E+00 0. -1.
         23    2    1    2    0    0  0.37939467420E+03  0.75358832807E+02 -0.39764303085E+03  0.56210582866E+03  0.90684674221E+02 0.  0.
         13    1    3    3    0    0  0.44948215757E+02  0.36588903066E+02 -0.37168569493E+02  0.68851960651E+02  0.00000000000E+00 0. -1.
        -13    1    3    3    0    0  0.33444645844E+03  0.38769929741E+02 -0.36047446136E+03  0.49325386801E+03  0.00000000000E+00 0.  1.
         22    1    1    2    0    0 -0.37939467420E+03 -0.75358832807E+02  0.11741483697E+03  0.40423448199E+03  0.00000000000E+00 0.  1.
<mgrwt>
<rscale>  0 0.92481661E+03</rscale>
<asrwt>0</asrwt>
<pdfrwt beam="1">  1        2 0.95889885E-01 0.92481661E+03</pdfrwt>
<pdfrwt beam="2">  1       -2 0.52777855E-01 0.92481661E+03</pdfrwt>
<totfact> 0.16072821E+02</totfact>
</mgrwt>
</event>
<event>
 6    1  0.2238133E-007  0.1694925E+04  0.7818608E-02  0.8764264E-01
         -2   -1    0    0    0  501 -0.00000000000E+00  0.00000000000E+00  0.47524056464E+03  0.47524056464E+03  0.00000000000E+00 0.  1.
          2   -1    0    0  501    0  0.00000000000E+00 -0.00000000000E+00 -0.15112186150E+04  0.15112186150E+04  0.00000000000E+00 0. -1.
         23    2    1    2    0    0 -0.68042176309E+03  0.78737905814E+02  0.60485327649E+02  0.69363074058E+03  0.91058749776E+02 0.  0.
         11    1    3    3    0    0 -0.37375459683E+03  0.80802674270E+02  0.78326849340E+01  0.38246950437E+03  0.00000000000E+00 0. -1.
        -11    1    3    3    0    0 -0.30666716626E+03 -0.20647684561E+01  0.52652642715E+02  0.31116123620E+03  0.00000000000E+00 0.  1.
         22    1    1    2    0    0  0.68042176309E+03 -0.78737905814E+02 -0.10964633780E+04  0.12928284390E+04  0.00000000000E+00 0. -1.
<mgrwt>
<rscale>  0 0.16949246E+04</rscale>
<asrwt>0</asrwt>
<pdfrwt beam="1">  1        2 0.23249517E+00 0.16949246E+04</pdfrwt>
<pdfrwt beam="2">  1       -2 0.73113933E-01 0.16949246E+04</pdfrwt>
<totfact> 0.20117348E+01</totfact>
</mgrwt>
</event>
<event>
 6    1  0.2238133E-007  0.3778877E+04  0.7818608E-02  0.8050703E-01
         -2   -1    0    0    0  501 -0.00000000000E+00  0.00000000000E+00  0.10228438672E+04  0.10228438672E+04  0.00000000000E+00 0.  1.
          2   -1    0    0  501    0  0.00000000000E+00 -0.00000000000E+00 -0.34902479878E+04  0.34902479878E+04  0.00000000000E+00 0. -1.
         23    2    1    2    0    0 -0.95552176503E+03 -0.37993332144E+03  0.65709278912E+03  0.12237374942E+04  0.91604307231E+02 0.  0.
         13    1    3    3    0    0 -0.78018048523E+03 -0.27172020175E+03  0.53470493672E+03  0.98408476613E+03  0.00000000000E+00 0. -1.
        -13    1    3    3    0    0 -0.17534127980E+03 -0.10821311969E+03  0.12238785241E+03  0.23965272811E+03  0.00000000000E+00 0.  1.
         22    1    1    2    0    0  0.95552176503E+03  0.37993332144E+03 -0.31244969097E+04  0.32893543608E+04  0.00000000000E+00 0. -1.
<mgrwt>
<rscale>  0 0.37788775E+04</rscale>
<asrwt>0</asrwt>
<pdfrwt beam="1">  1        2 0.53696123E+00 0.37788775E+04</pdfrwt>
<pdfrwt beam="2">  1       -2 0.15736059E+00 0.37788775E+04</pdfrwt>
<totfact> 0.17450900E-01</totfact>
</mgrwt>
</event>
<event>
 6    1  0.2238133E-007  0.4880917E+04  0.7818608E-02  0.7847144E-01
          2   -1    0    0  501    0  0.00000000000E+00  0.00000000000E+00  0.29875054777E+04  0.29875054777E+04  0.00000000000E+00 0. -1.
         -2   -1    0    0    0  501 -0.00000000000E+00 -0.00000000000E+00 -0.19935820174E+04  0.19935820174E+04  0.00000000000E+00 0.  1.
         23    2    1    2    0    0 -0.13096867852E+04  0.20451385116E+04  0.25917051500E+03  0.24438187081E+04  0.84908864271E+02 0.  0.
         13    1    3    3    0    0 -0.75926335538E+03  0.12096483473E+04  0.19233801178E+03  0.14410842715E+04  0.00000000000E+00 0. -1.
        -13    1    3    3    0    0 -0.55042342979E+03  0.83549016438E+03  0.66832503219E+02  0.10027344366E+04  0.00000000000E+00 0.  1.
         22    1    1    2    0    0  0.13096867852E+04 -0.20451385116E+04  0.73475294534E+03  0.25372687870E+04  0.00000000000E+00 0. -1.
<mgrwt>
<rscale>  0 0.48809168E+04</rscale>
<asrwt>0</asrwt>
<pdfrwt beam="1">  1        2 0.45961623E+00 0.48809168E+04</pdfrwt>
<pdfrwt beam="2">  1       -2 0.30670493E+00 0.48809168E+04</pdfrwt>
<totfact> 0.37652076E-02</totfact>
</mgrwt>
</event>
<event>
 6    1  0.2238133E-007  0.1482644E+04  0.7818608E-02  0.8896077E-01
          2   -1    0    0  501    0  0.00000000000E+00  0.00000000000E+00  0.26575109829E+04  0.26575109829E+04  0.00000000000E+00 0. -1.
         -2   -1    0    0    0  501 -0.00000000000E+00 -0.00000000000E+00 -0.20679441082E+03  0.20679441082E+03  0.00000000000E+00 0.  1.
         23    2    1    2    0    0  0.20043899547E+02  0.48657001637E+03  0.15728678212E+03  0.51974310190E+03  0.90783376287E+02 0.  0.
         11    1    3    3    0    0 -0.81254480948E+01  0.15319996241E+02 -0.85973547185E+01  0.19355611582E+02  0.00000000000E+00 0. -1.
        -11    1    3    3    0    0  0.28169347642E+02  0.47125002013E+03  0.16588413684E+03  0.50038749032E+03  0.00000000000E+00 0.  1.
         22    1    1    2    0    0 -0.20043899547E+02 -0.48657001637E+03  0.22934297900E+04  0.23445622918E+04  0.00000000000E+00 0. -1.
<mgrwt>
<rscale>  0 0.14826441E+04</rscale>
<asrwt>0</asrwt>
<pdfrwt beam="1">  1        2 0.40884782E+00 0.14826441E+04</pdfrwt>
<pdfrwt beam="2">  1       -2 0.31814527E-01 0.14826441E+04</pdfrwt>
<totfact> 0.25112056E+01</totfact>
</mgrwt>
</event>
<event>
 6    1  0.2238133E-007  0.4053961E+04  0.7818608E-02  0.7993749E-01
         -2   -1    0    0    0  501 -0.00000000000E+00  0.00000000000E+00  0.14174498701E+04  0.14174498701E+04  0.00000000000E+00 0.  1.
          2   -1    0    0  501    0  0.00000000000E+00 -0.00000000000E+00 -0.28986206841E+04  0.28986206841E+04  0.00000000000E+00 0. -1.
         23    2    1    2    0    0 -0.61030372650E+03 -0.13724547541E+04 -0.21884241761E+04  0.26558567099E+04  0.90949426585E+02 0.  0.
         13    1    3    3    0    0 -0.34605500217E+03 -0.69172668405E+03 -0.11765234066E+04  0.14079940327E+04  0.00000000000E+00 0. -1.
        -13    1    3    3    0    0 -0.26424872433E+03 -0.68072807005E+03 -0.10119007695E+04  0.12478626772E+04  0.00000000000E+00 0.  1.
         22    1    1    2    0    0  0.61030372650E+03  0.13724547541E+04  0.70725336216E+03  0.16602138443E+04  0.00000000000E+00 0.  1.
<mgrwt>
<rscale>  0 0.40539608E+04</rscale>
<asrwt>0</asrwt>
<pdfrwt beam="1">  1        2 0.44594164E+00 0.40539608E+04</pdfrwt>
<pdfrwt beam="2">  1       -2 0.21806921E+00 0.40539608E+04</pdfrwt>
<totfact> 0.16067838E-01</totfact>
</mgrwt>
</event>
<event>
 6    1  0.2238133E-007  0.9581633E+03  0.7818608E-02  0.9355659E-01
          2   -1    0    0  501    0  0.00000000000E+00  0.00000000000E+00  0.33708524075E+04  0.33708524075E+04  0.00000000000E+00 0. -1.
         -2   -1    0    0    0  501 -0.00000000000E+00 -0.00000000000E+00 -0.68089373464E+02  0.68089373464E+02  0.00000000000E+00 0.  1.
         23    2    1    2    0    0  0.49912966524E+02 -0.30728631248E+02  0.33572069201E+04  0.33589437201E+04  0.90714152556E+02 0.  0.
         11    1    3    3    0    0  0.51516167909E+02 -0.57387721615E+02  0.28408820651E+04  0.28419286011E+04  0.00000000000E+00 0.  1.
        -11    1    3    3    0    0 -0.16032013849E+01  0.26659090367E+02  0.51632485499E+03  0.51701511896E+03  0.00000000000E+00 0. -1.
         22    1    1    2    0    0 -0.49912966524E+02  0.30728631248E+02 -0.54443886085E+02  0.79998060836E+02  0.00000000000E+00 0.  1.
<mgrwt>
<rscale>  0 0.95816330E+03</rscale>
<asrwt>0</asrwt>
<pdfrwt beam="1">  1        2 0.51859255E+00 0.95816330E+03</pdfrwt>
<pdfrwt beam="2">  1       -2 0.10475291E-01 0.95816330E+03</pdfrwt>
<totfact> 0.66178921E+01</totfact>
</mgrwt>
</event>
<event>
 6    1  0.2238133E-007  0.5253690E+04  0.7818608E-02  0.7790522E-01
         -2   -1    0    0    0  501 -0.00000000000E+00  0.00000000000E+00  0.22347599989E+04  0.22347599989E+04  0.00000000000E+00 0.  1.
          2   -1    0    0  501    0  0.00000000000E+00 -0.00000000000E+00 -0.30877212472E+04  0.30877212472E+04  0.00000000000E+00 0. -1.
         23    2    1    2    0    0 -0.10817700873E+04 -0.62765055471E+02 -0.28499873645E+04  0.30504162639E+04  0.91899028640E+02 0.  0.
         11    1    3    3    0    0 -0.43505597437E+03  0.18203477529E+02 -0.11754998343E+04  0.12535569105E+04  0.00000000000E+00 0. -1.
        -11    1    3    3    0    0 -0.64671411296E+03 -0.80968533001E+02 -0.16744875302E+04  0.17968593534E+04  0.00000000000E+00 0.  1.
         22    1    1    2    0    0  0.10817700873E+04  0.62765055471E+02  0.19970261163E+04  0.22720649822E+04  0.00000000000E+00 0.  1.
<mgrwt>
<rscale>  0 0.52536905E+04</rscale>
<asrwt>0</asrwt>
<pdfrwt beam="1">  1        2 0.47503404E+00 0.52536905E+04</pdfrwt>
<pdfrwt beam="2">  1       -2 0.34380923E+00 0.52536905E+04</pdfrwt>
<totfact> 0.18596427E-02</totfact>
</mgrwt>
</event>
<event>
 6    1  0.2238133E-007  0.1296233E+04  0.7818608E-02  0.9032557E-01
          2   -1    0    0  501    0  0.00000000000E+00  0.00000000000E+00  0.12155168111E+04  0.12155168111E+04  0.00000000000E+00 0. -1.
         -2   -1    0    0    0  501 -0.00000000000E+00 -0.00000000000E+00 -0.34557751937E+03  0.34557751937E+03  0.00000000000E+00 0.  1.
         23    2    1    2    0    0 -0.59015033360E+03 -0.12371452001E+02  0.12417033020E+03  0.60998875638E+03  0.90760910830E+02 0.  0.
         13    1    3    3    0    0 -0.32575794445E+03 -0.47798601263E+02  0.49225996607E+02  0.33290560734E+03  0.00000000000E+00 0.  1.
        -13    1    3    3    0    0 -0.26439238915E+03  0.35427149262E+02  0.74944333590E+02  0.27708314904E+03  0.00000000000E+00 0. -1.
         22    1    1    2    0    0  0.59015033360E+03  0.12371452001E+02  0.74576896155E+03  0.95110557410E+03  0.00000000000E+00 0. -1.
<mgrwt>
<rscale>  0 0.12962334E+04</rscale>
<asrwt>0</asrwt>
<pdfrwt beam="1">  1        2 0.18700258E+00 0.12962334E+04</pdfrwt>
<pdfrwt beam="2">  1       -2 0.53165773E-01 0.12962334E+04</pdfrwt>
<totfact> 0.60625271E+01</totfact>
</mgrwt>
</event>
<event>
 6    1  0.2238133E-007  0.6349034E+03  0.7818608E-02  0.9835527E-01
         -2   -1    0    0    0  501 -0.00000000000E+00  0.00000000000E+00  0.54704837203E+02  0.54704837203E+02  0.00000000000E+00 0.  1.
          2   -1    0    0  501    0  0.00000000000E+00 -0.00000000000E+00 -0.18421697609E+04  0.18421697609E+04  0.00000000000E+00 0. -1.
         23    2    1    2    0    0  0.14112140061E+03  0.88083187655E+02 -0.16970803440E+04  0.17075514091E+04  0.89309702024E+02 0.  0.
         11    1    3    3    0    0  0.46858600676E+02  0.38364464511E+02 -0.28025202915E+03  0.28672070109E+03  0.00000000000E+00 0. -1.
        -11    1    3    3    0    0  0.94262799937E+02  0.49718723145E+02 -0.14168283149E+04  0.14208307080E+04  0.00000000000E+00 0.  1.
         22    1    1    2    0    0 -0.14112140061E+03 -0.88083187655E+02 -0.90384579646E+02  0.18932318901E+03  0.00000000000E+00 0.  1.
<mgrwt>
<rscale>  0 0.63490345E+03</rscale>
<asrwt>0</asrwt>
<pdfrwt beam="1">  1        2 0.28341070E+00 0.63490345E+03</pdfrwt>
<pdfrwt beam="2">  1       -2 0.84161296E-02 0.63490345E+03</pdfrwt>
<totfact> 0.76143257E+02</totfact>
</mgrwt>
</event>
<event>
 6    1  0.2238133E-007  0.3487310E+04  0.7818608E-02  0.8116804E-01
         -2   -1    0    0    0  501 -0.00000000000E+00  0.00000000000E+00  0.99378224826E+03  0.99378224826E+03  0.00000000000E+00 0.  1.
          2   -1    0    0  501    0  0.00000000000E+00 -0.00000000000E+00 -0.30593545520E+04  0.30593545520E+04  0.00000000000E+00 0. -1.
         23    2    1    2    0    0  0.60028464668E+03 -0.15524732244E+04 -0.43360542035E+03  0.17220789550E+04  0.83830168931E+02 0.  0.
         13    1    3    3    0    0  0.43879885557E+03 -0.12254848846E+04 -0.32682657418E+03  0.13420779589E+04  0.00000000000E+00 0. -1.
        -13    1    3    3    0    0  0.16148579112E+03 -0.32698833975E+03 -0.10677884616E+03  0.38000099612E+03  0.00000000000E+00 0.  1.
         22    1    1    2    0    0 -0.60028464668E+03  0.15524732244E+04 -0.16319668834E+04  0.23310578453E+04  0.00000000000E+00 0. -1.
<mgrwt>
<rscale>  0 0.34873097E+04</rscale>
<asrwt>0</asrwt>
<pdfrwt beam="1">  1        2 0.47066993E+00 0.34873097E+04</pdfrwt>
<pdfrwt beam="2">  1       -2 0.15288958E+00 0.34873097E+04</pdfrwt>
<totfact> 0.37386907E-01</totfact>
</mgrwt>
</event>
<event>
 6    1  0.2238133E-007  0.5440844E+04  0.7818608E-02  0.7763882E-01
          2   -1    0    0  501    0  0.00000000000E+00  0.00000000000E+00  0.42015645072E+04  0.42015645072E+04  0.00000000000E+00 0. -1.
         -2   -1    0    0    0  501 -0.00000000000E+00 -0.00000000000E+00 -0.17614141829E+04  0.17614141829E+04  0.00000000000E+00 0.  1.
         23    2    1    2    0    0 -0.23805150512E+04  0.75803996083E+03  0.42533710387E+02  0.25003146985E+04  0.91038363809E+02 0.  0.
         11    1    3    3    0    0 -0.10494379336E+04  0.29856676236E+03 -0.11220359030E+02  0.10911406805E+04  0.00000000000E+00 0. -1.
        -11    1    3    3    0    0 -0.13310771176E+04  0.45947319847E+03  0.53754069418E+02  0.14091740180E+04  0.00000000000E+00 0.  1.
         22    1    1    2    0    0  0.23805150512E+04 -0.75803996083E+03  0.23976166139E+04  0.34626639916E+04  0.00000000000E+00 0. -1.
<mgrwt>
<rscale>  0 0.54408438E+04</rscale>
<asrwt>0</asrwt>
<pdfrwt beam="1">  1        2 0.64639453E+00 0.54408438E+04</pdfrwt>
<pdfrwt beam="2">  1       -2 0.27098680E+00 0.54408438E+04</pdfrwt>
<totfact> 0.77363789E-03</totfact>
</mgrwt>
</event>
<event>
 6    1  0.2238133E-007  0.2172041E+04  0.7818608E-02  0.8530156E-01
          2   -1    0    0  501    0  0.00000000000E+00  0.00000000000E+00  0.83986812732E+03  0.83986812732E+03  0.00000000000E+00 0. -1.
         -2   -1    0    0    0  501 -0.00000000000E+00 -0.00000000000E+00 -0.14043158750E+04  0.14043158750E+04  0.00000000000E+00 0.  1.
         23    2    1    2    0    0 -0.20523886335E+03 -0.97708175613E+03  0.15360056953E+03  0.10143851834E+04  0.92587343274E+02 0.  0.
         11    1    3    3    0    0 -0.12921993221E+03 -0.48868760639E+03  0.38911743123E+02  0.50697878779E+03  0.00000000000E+00 0.  1.
        -11    1    3    3    0    0 -0.76018931139E+02 -0.48839414974E+03  0.11468882641E+03  0.50740639560E+03  0.00000000000E+00 0. -1.
         22    1    1    2    0    0  0.20523886335E+03  0.97708175613E+03 -0.71804831722E+03  0.12297988189E+04  0.00000000000E+00 0.  1.
<mgrwt>
<rscale>  0 0.21720406E+04</rscale>
<asrwt>0</asrwt>
<pdfrwt beam="1">  1        2 0.12921048E+00 0.21720406E+04</pdfrwt>
<pdfrwt beam="2">  1       -2 0.21604860E+00 0.21720406E+04</pdfrwt>
<totfact> 0.30940833E+00</totfact>
</mgrwt>
</event>
<event>
 6    1  0.2238133E-007  0.5014508E+04  0.7818608E-02  0.7826273E-01
          2   -1    0    0  501    0  0.00000000000E+00  0.00000000000E+00  0.40812485960E+04  0.40812485960E+04  0.00000000000E+00 0. -1.
         -2   -1    0    0    0  501 -0.00000000000E+00 -0.00000000000E+00 -0.15402937758E+04  0.15402937758E+04  0.00000000000E+00 0.  1.
         23    2    1    2    0    0  0.13454245795E+04 -0.15618814403E+03 -0.10933707359E+04  0.17430266398E+04  0.90112515668E+02 0.  0.
         11    1    3    3    0    0  0.62019446248E+03 -0.45423730360E+02 -0.54837453261E+03  0.82910742041E+03  0.00000000000E+00 0.  1.
        -11    1    3    3    0    0  0.72523011702E+03 -0.11076441367E+03 -0.54499620334E+03  0.91391921942E+03  0.00000000000E+00 0. -1.
         22    1    1    2    0    0 -0.13454245795E+04  0.15618814403E+03  0.36343255561E+04  0.38785157320E+04  0.00000000000E+00 0. -1.
<mgrwt>
<rscale>  0 0.50145077E+04</rscale>
<asrwt>0</asrwt>
<pdfrwt beam="1">  1        2 0.62788440E+00 0.50145077E+04</pdfrwt>
<pdfrwt beam="2">  1       -2 0.23696827E+00 0.50145077E+04</pdfrwt>
<totfact> 0.16416505E-02</totfact>
</mgrwt>
</event>
<event>
 6    1  0.2238133E-007  0.2590506E+04  0.7818608E-02  0.8371433E-01
          2   -1    0    0  501    0  0.00000000000E+00  0.00000000000E+00  0.15343080444E+04  0.15343080444E+04  0.00000000000E+00 0. -1.
         -2   -1    0    0    0  501 -0.00000000000E+00 -0.00000000000E+00 -0.10934442423E+04  0.10934442423E+04  0.00000000000E+00 0.  1.
         23    2    1    2    0    0 -0.58231088555E+03  0.99577101947E+03  0.81470853576E+03  0.14151493939E+04  0.90840068445E+02 0.  0.
         13    1    3    3    0    0 -0.16659466152E+03  0.26300085340E+03  0.17343499260E+03  0.35637469999E+03  0.00000000000E+00 0. -1.
        -13    1    3    3    0    0 -0.41571622403E+03  0.73277016607E+03  0.64127354316E+03  0.10587746939E+04  0.00000000000E+00 0.  1.
         22    1    1    2    0    0  0.58231088555E+03 -0.99577101947E+03 -0.37384473365E+03  0.12126028928E+04  0.00000000000E+00 0.  1.
<mgrwt>
<rscale>  0 0.25905060E+04</rscale>
<asrwt>0</asrwt>
<pdfrwt beam="1">  1        2 0.23604739E+00 0.25905060E+04</pdfrwt>
<pdfrwt beam="2">  1       -2 0.16822219E+00 0.25905060E+04</pdfrwt>
<totfact> 0.23589790E+00</totfact>
</mgrwt>
</event>
<event>
 6    1  0.2238133E-007  0.3650181E+04  0.7818608E-02  0.8079093E-01
          2   -1    0    0  501    0  0.00000000000E+00  0.00000000000E+00  0.18569236618E+04  0.18569236618E+04  0.00000000000E+00 0. -1.
         -2   -1    0    0    0  501 -0.00000000000E+00 -0.00000000000E+00 -0.17938026295E+04  0.17938026295E+04  0.00000000000E+00 0.  1.
         23    2    1    2    0    0 -0.26060879764E+03  0.78774305226E+03 -0.15929313248E+04  0.17984397391E+04  0.92191256952E+02 0.  0.
         13    1    3    3    0    0 -0.97744301176E+02  0.35106497040E+03 -0.60890633110E+03  0.70962488817E+03  0.00000000000E+00 0. -1.
        -13    1    3    3    0    0 -0.16286449647E+03  0.43667808186E+03 -0.98402499370E+03  0.10888148509E+04  0.00000000000E+00 0.  1.
         22    1    1    2    0    0  0.26060879764E+03 -0.78774305226E+03  0.16560523571E+04  0.18522865521E+04  0.00000000000E+00 0. -1.
<mgrwt>
<rscale>  0 0.36501806E+04</rscale>
<asrwt>0</asrwt>
<pdfrwt beam="1">  1        2 0.28568056E+00 0.36501806E+04</pdfrwt>
<pdfrwt beam="2">  1       -2 0.27596964E+00 0.36501806E+04</pdfrwt>
<totfact> 0.29024107E-01</totfact>
</mgrwt>
</event>
<event>
 6    1  0.2238133E-007  0.2136014E+04  0.7818608E-02  0.8545543E-01
          2   -1    0    0  501    0  0.00000000000E+00  0.00000000000E+00  0.36138083586E+04  0.36138083586E+04  0.00000000000E+00 0. -1.
         -2   -1    0    0    0  501 -0.00000000000E+00 -0.00000000000E+00 -0.31563359537E+03  0.31563359537E+03  0.00000000000E+00 0.  1.
         23    2    1    2    0    0  0.50945142991E+03  0.93641258159E+03  0.16311821397E+04  0.19507369004E+04  0.90609044954E+02 0.  0.
         13    1    3    3    0    0  0.28240503531E+03  0.46272212122E+03  0.89477657174E+03  0.10461785119E+04  0.00000000000E+00 0. -1.
        -13    1    3    3    0    0  0.22704639460E+03  0.47369046037E+03  0.73640556799E+03  0.90455838845E+03  0.00000000000E+00 0.  1.
         22    1    1    2    0    0 -0.50945142991E+03 -0.93641258159E+03  0.16669926235E+04  0.19787050536E+04  0.00000000000E+00 0.  1.
<mgrwt>
<rscale>  0 0.21360143E+04</rscale>
<asrwt>0</asrwt>
<pdfrwt beam="1">  1        2 0.55597049E+00 0.21360143E+04</pdfrwt>
<pdfrwt beam="2">  1       -2 0.48559017E-01 0.21360143E+04</pdfrwt>
<totfact> 0.25026229E+00</totfact>
</mgrwt>
</event>
<event>
 6    1  0.2238133E-007  0.2048730E+04  0.7818608E-02  0.8584171E-01
          1   -1    0    0  501    0  0.00000000000E+00  0.00000000000E+00  0.15539633146E+04  0.15539633146E+04  0.00000000000E+00 0. -1.
         -1   -1    0    0    0  501 -0.00000000000E+00 -0.00000000000E+00 -0.67525615673E+03  0.67525615673E+03  0.00000000000E+00 0.  1.
         23    2    1    2    0    0  0.76256859244E+03 -0.62421860899E+03  0.14437233102E+03  0.10002331541E+04  0.91995992761E+02 0.  0.
         13    1    3    3    0    0  0.67557438003E+03 -0.51663563546E+03  0.13909545491E+03  0.86177762118E+03  0.00000000000E+00 0. -1.
        -13    1    3    3    0    0  0.86994212408E+02 -0.10758297353E+03  0.52768761087E+01  0.13845553296E+03  0.00000000000E+00 0.  1.
         22    1    1    2    0    0 -0.76256859244E+03  0.62421860899E+03  0.73433482688E+03  0.12289863172E+04  0.00000000000E+00 0.  1.
<mgrwt>
<rscale>  0 0.20487297E+04</rscale>
<asrwt>0</asrwt>
<pdfrwt beam="1">  1        1 0.23907128E+00 0.20487297E+04</pdfrwt>
<pdfrwt beam="2">  1       -1 0.10388556E+00 0.20487297E+04</pdfrwt>
<totfact> 0.48394061E+00</totfact>
</mgrwt>
</event>
<event>
 6    1  0.2238133E-007  0.1936317E+04  0.7818608E-02  0.8636987E-01
          2   -1    0    0  501    0  0.00000000000E+00  0.00000000000E+00  0.17731999489E+04  0.17731999489E+04  0.00000000000E+00 0. -1.
         -2   -1    0    0    0  501 -0.00000000000E+00 -0.00000000000E+00 -0.52860971950E+03  0.52860971950E+03  0.00000000000E+00 0.  1.
         23    2    1    2    0    0 -0.47123331630E+03  0.23546906123E+03 -0.33893129650E+03  0.63296367786E+03  0.90895965544E+02 0.  0.
         11    1    3    3    0    0 -0.17212134766E+03  0.13414636764E+03 -0.12453259304E+03  0.25125559297E+03  0.00000000000E+00 0. -1.
        -11    1    3    3    0    0 -0.29911196864E+03  0.10132269359E+03 -0.21439870346E+03  0.38170808488E+03  0.00000000000E+00 0.  1.
         22    1    1    2    0    0  0.47123331630E+03 -0.23546906123E+03  0.15835215259E+04  0.16688459906E+04  0.00000000000E+00 0. -1.
<mgrwt>
<rscale>  0 0.19363168E+04</rscale>
<asrwt>0</asrwt>
<pdfrwt beam="1">  1        2 0.27279999E+00 0.19363168E+04</pdfrwt>
<pdfrwt beam="2">  1       -2 0.81324573E-01 0.19363168E+04</pdfrwt>
<totfact> 0.11106917E+01</totfact>
</mgrwt>
</event>
<event>
 6    1  0.2238133E-007  0.1433506E+04  0.7818608E-02  0.8929916E-01
          2   -1    0    0  501    0  0.00000000000E+00  0.00000000000E+00  0.82486065770E+03  0.82486065770E+03  0.00000000000E+00 0. -1.
         -2   -1    0    0    0  501 -0.00000000000E+00 -0.00000000000E+00 -0.62281441012E+03  0.62281441012E+03  0.00000000000E+00 0.  1.
         23    2    1    2    0    0 -0.41082089274E+03 -0.30483012685E+03 -0.40150037637E+03  0.65649636523E+03  0.89942832946E+02 0.  0.
         11    1    3    3    0    0 -0.22659693172E+03 -0.15564908154E+03 -0.27042506790E+03  0.38561966159E+03  0.00000000000E+00 0. -1.
        -11    1    3    3    0    0 -0.18422396102E+03 -0.14918104530E+03 -0.13107530847E+03  0.27087670365E+03  0.00000000000E+00 0.  1.
         22    1    1    2    0    0  0.41082089274E+03  0.30483012685E+03  0.60354662396E+03  0.79117870259E+03  0.00000000000E+00 0. -1.
<mgrwt>
<rscale>  0 0.14335063E+04</rscale>
<asrwt>0</asrwt>
<pdfrwt beam="1">  1        2 0.12690164E+00 0.14335063E+04</pdfrwt>
<pdfrwt beam="2">  1       -2 0.95817601E-01 0.14335063E+04</pdfrwt>
<totfact> 0.29330906E+01</totfact>
</mgrwt>
</event>
<event>
 6    1  0.2238133E-007  0.2873585E+04  0.7818608E-02  0.8280780E-01
         -2   -1    0    0    0  501 -0.00000000000E+00  0.00000000000E+00  0.17213371703E+04  0.17213371703E+04  0.00000000000E+00 0.  1.
          2   -1    0    0  501    0  0.00000000000E+00 -0.00000000000E+00 -0.11992844361E+04  0.11992844361E+04  0.00000000000E+00 0. -1.
         23    2    1    2    0    0  0.38017515416E+03  0.12407984420E+04 -0.36200671433E+03  0.13503748010E+04  0.91374616263E+02 0.  0.
         13    1    3    3    0    0  0.71281301760E+02  0.16666629353E+03 -0.76982451640E+02  0.19693901401E+03  0.00000000000E+00 0. -1.
        -13    1    3    3    0    0  0.30889385240E+03  0.10741321484E+04 -0.28502426269E+03  0.11534357870E+04  0.00000000000E+00 0.  1.
         22    1    1    2    0    0 -0.38017515416E+03 -0.12407984420E+04  0.88405944856E+03  0.15702468054E+04  0.00000000000E+00 0. -1.
<mgrwt>
<rscale>  0 0.28735851E+04</rscale>
<asrwt>0</asrwt>
<pdfrwt beam="1">  1        2 0.18450530E+00 0.28735851E+04</pdfrwt>
<pdfrwt beam="2">  1       -2 0.26482110E+00 0.28735851E+04</pdfrwt>
<totfact> 0.85486722E-01</totfact>
</mgrwt>
</event>
<event>
 6    1  0.2238133E-007  0.3209890E+04  0.7818608E-02  0.8186210E-01
          2   -1    0    0  501    0  0.00000000000E+00  0.00000000000E+00  0.32522423123E+04  0.32522423123E+04  0.00000000000E+00 0. -1.
         -2   -1    0    0    0  501 -0.00000000000E+00 -0.00000000000E+00 -0.79202206069E+03  0.79202206069E+03  0.00000000000E+00 0.  1.
         23    2    1    2    0    0  0.16544718658E+03  0.15888005396E+04  0.14091221300E+04  0.21320752643E+04  0.91977329102E+02 0.  0.
         11    1    3    3    0    0  0.85682856551E+02  0.10332463908E+04  0.86290774844E+03  0.13489067567E+04  0.00000000000E+00 0.  1.
        -11    1    3    3    0    0  0.79764330025E+02  0.55555414881E+03  0.54621438154E+03  0.78316850754E+03  0.00000000000E+00 0. -1.
         22    1    1    2    0    0 -0.16544718658E+03 -0.15888005396E+04  0.10510981216E+04  0.19121891087E+04  0.00000000000E+00 0.  1.
<mgrwt>
<rscale>  0 0.32098895E+04</rscale>
<asrwt>0</asrwt>
<pdfrwt beam="1">  1        2 0.50034496E+00 0.32098895E+04</pdfrwt>
<pdfrwt beam="2">  1       -2 0.12184955E+00 0.32098895E+04</pdfrwt>
<totfact> 0.51479535E-01</totfact>
</mgrwt>
</event>
<event>
 6    1  0.2238133E-007  0.1569908E+04  0.7818608E-02  0.8839251E-01
          2   -1    0    0  501    0  0.00000000000E+00  0.00000000000E+00  0.84878794649E+03  0.84878794649E+03  0.00000000000E+00 0. -1.
         -2   -1    0    0    0  501 -0.00000000000E+00 -0.00000000000E+00 -0.72592036204E+03  0.72592036204E+03  0.00000000000E+00 0.  1.
         23    2    1    2    0    0  0.22574624551E+03 -0.14707941361E+03  0.79777589034E+03  0.84800689624E+03  0.10037730614E+03 0.  0.
         13    1    3    3    0    0  0.51185897300E+01 -0.36487579234E+02  0.15901189131E+03  0.16322476827E+03  0.00000000000E+00 0. -1.
        -13    1    3    3    0    0  0.22062765578E+03 -0.11059183438E+03  0.63876399904E+03  0.68478212797E+03  0.00000000000E+00 0.  1.
         22    1    1    2    0    0 -0.22574624551E+03  0.14707941361E+03 -0.67490830589E+03  0.72670141229E+03  0.00000000000E+00 0.  1.
<mgrwt>
<rscale>  0 0.15699076E+04</rscale>
<asrwt>0</asrwt>
<pdfrwt beam="1">  1        2 0.13058276E+00 0.15699076E+04</pdfrwt>
<pdfrwt beam="2">  1       -2 0.11168006E+00 0.15699076E+04</pdfrwt>
<totfact> 0.19357678E+01</totfact>
</mgrwt>
</event>
<event>
 6    1  0.2238133E-007  0.1167315E+04  0.7818608E-02  0.9141957E-01
         -1   -1    0    0    0  501 -0.00000000000E+00  0.00000000000E+00  0.94475742924E+03  0.94475742924E+03  0.00000000000E+00 0.  1.
          1   -1    0    0  501    0  0.00000000000E+00 -0.00000000000E+00 -0.36057514018E+03  0.36057514018E+03  0.00000000000E+00 0. -1.
         23    2    1    2    0    0 -0.13783420404E+03  0.54156125414E+03  0.11962491665E+03  0.57862739395E+03  0.90623840964E+02 0.  0.
         13    1    3    3    0    0 -0.13834922978E+03  0.47119972421E+03  0.12871751757E+03  0.50767892294E+03  0.00000000000E+00 0. -1.
        -13    1    3    3    0    0  0.51502573814E+00  0.70361529937E+02 -0.90926009147E+01  0.70948471005E+02  0.00000000000E+00 0.  1.
         22    1    1    2    0    0  0.13783420404E+03 -0.54156125414E+03  0.46455737241E+03  0.72670517547E+03  0.00000000000E+00 0.  1.
<mgrwt>
<rscale>  0 0.11673149E+04</rscale>
<asrwt>0</asrwt>
<pdfrwt beam="1">  1        1 0.55473099E-01 0.11673149E+04</pdfrwt>
<pdfrwt beam="2">  1       -1 0.14534730E+00 0.11673149E+04</pdfrwt>
<totfact> 0.25936489E+01</totfact>
</mgrwt>
</event>
<event>
 6    1  0.2238133E-007  0.1847890E+04  0.7818608E-02  0.8681239E-01
          2   -1    0    0  501    0  0.00000000000E+00  0.00000000000E+00  0.99323036154E+03  0.99323036154E+03  0.00000000000E+00 0. -1.
         -2   -1    0    0    0  501 -0.00000000000E+00 -0.00000000000E+00 -0.85949293952E+03  0.85949293952E+03  0.00000000000E+00 0.  1.
         23    2    1    2    0    0 -0.80252138074E+03 -0.24928697114E+03 -0.31270759900E+03  0.90114686307E+03  0.89972583667E+02 0.  0.
         13    1    3    3    0    0 -0.69836372365E+03 -0.18949049833E+03 -0.24944825816E+03  0.76540379733E+03  0.00000000000E+00 0. -1.
        -13    1    3    3    0    0 -0.10415765709E+03 -0.59796472815E+02 -0.63259340841E+02  0.13574306574E+03  0.00000000000E+00 0.  1.
         22    1    1    2    0    0  0.80252138074E+03  0.24928697114E+03  0.44644502102E+03  0.95157643798E+03  0.00000000000E+00 0. -1.
<mgrwt>
<rscale>  0 0.18478901E+04</rscale>
<asrwt>0</asrwt>
<pdfrwt beam="1">  1        2 0.15280467E+00 0.18478901E+04</pdfrwt>
<pdfrwt beam="2">  1       -2 0.13222968E+00 0.18478901E+04</pdfrwt>
<totfact> 0.99526160E+00</totfact>
</mgrwt>
</event>
<event>
 6    1  0.2238133E-007  0.3536322E+04  0.7818608E-02  0.8105236E-01
          1   -1    0    0  501    0  0.00000000000E+00  0.00000000000E+00  0.27175689806E+04  0.27175689806E+04  0.00000000000E+00 0. -1.
         -1   -1    0    0    0  501 -0.00000000000E+00 -0.00000000000E+00 -0.11504373050E+04  0.11504373050E+04  0.00000000000E+00 0.  1.
         23    2    1    2    0    0  0.21656999888E+02  0.10760232177E+04 -0.74879415524E+03  0.13142233181E+04  0.90527633032E+02 0.  0.
         11    1    3    3    0    0  0.50668694259E+01  0.25520548121E+03 -0.22589440059E+03  0.34085743504E+03  0.00000000000E+00 0. -1.
        -11    1    3    3    0    0  0.16590130463E+02  0.82081773646E+03 -0.52289975466E+03  0.97336588308E+03  0.00000000000E+00 0.  1.
         22    1    1    2    0    0 -0.21656999888E+02 -0.10760232177E+04  0.23159258309E+04  0.25537829675E+04  0.00000000000E+00 0. -1.
<mgrwt>
<rscale>  0 0.35363217E+04</rscale>
<asrwt>0</asrwt>
<pdfrwt beam="1">  1        1 0.41808753E+00 0.35363217E+04</pdfrwt>
<pdfrwt beam="2">  1       -1 0.17699036E+00 0.35363217E+04</pdfrwt>
<totfact> 0.16965160E-01</totfact>
</mgrwt>
</event>
<event>
 6    1  0.2238133E-007  0.9884229E+03  0.7818608E-02  0.9321334E-01
          2   -1    0    0  501    0  0.00000000000E+00  0.00000000000E+00  0.16617888935E+04  0.16617888935E+04  0.00000000000E+00 0. -1.
         -2   -1    0    0    0  501 -0.00000000000E+00 -0.00000000000E+00 -0.14697713099E+03  0.14697713099E+03  0.00000000000E+00 0.  1.
         23    2    1    2    0    0 -0.15454862659E+03  0.46225972392E+03  0.85480922030E+03  0.98829500973E+03  0.91972239260E+02 0.  0.
         11    1    3    3    0    0 -0.88902485907E+02  0.16790506325E+03  0.39636402779E+03  0.43954545247E+03  0.00000000000E+00 0.  1.
        -11    1    3    3    0    0 -0.65646140687E+02  0.29435466067E+03  0.45844519251E+03  0.54874955725E+03  0.00000000000E+00 0. -1.
         22    1    1    2    0    0  0.15454862659E+03 -0.46225972392E+03  0.66000254224E+03  0.82047101479E+03  0.00000000000E+00 0.  1.
<mgrwt>
<rscale>  0 0.98842291E+03</rscale>
<asrwt>0</asrwt>
<pdfrwt beam="1">  1        2 0.25565982E+00 0.98842291E+03</pdfrwt>
<pdfrwt beam="2">  1       -2 0.22611868E-01 0.98842291E+03</pdfrwt>
<totfact> 0.17693199E+02</totfact>
</mgrwt>
</event>
<event>
 6    1  0.2238133E-007  0.2688089E+04  0.7818608E-02  0.8338880E-01
         -1   -1    0    0    0  501 -0.00000000000E+00  0.00000000000E+00  0.91962636913E+03  0.91962636913E+03  0.00000000000E+00 0.  1.
          1   -1    0    0  501    0  0.00000000000E+00 -0.00000000000E+00 -0.19643371672E+04  0.19643371672E+04  0.00000000000E+00 0. -1.
         23    2    1    2    0    0 -0.24073535044E+03  0.86696140402E+03 -0.15920844046E+04  0.18307810023E+04  0.86317679919E+02 0.  0.
         11    1    3    3    0    0 -0.97887432019E+02  0.38194482765E+03 -0.61316060304E+03  0.72899226733E+03  0.00000000000E+00 0. -1.
        -11    1    3    3    0    0 -0.14284791842E+03  0.48501657637E+03 -0.97892380158E+03  0.11017887349E+04  0.00000000000E+00 0.  1.
         22    1    1    2    0    0  0.24073535044E+03 -0.86696140402E+03  0.54737360650E+03  0.10531825341E+04  0.00000000000E+00 0.  1.
<mgrwt>
<rscale>  0 0.26880895E+04</rscale>
<asrwt>0</asrwt>
<pdfrwt beam="1">  1        1 0.30220571E+00 0.26880895E+04</pdfrwt>
<pdfrwt beam="2">  1       -1 0.14148098E+00 0.26880895E+04</pdfrwt>
<totfact> 0.11227657E+00</totfact>
</mgrwt>
</event>
<event>
 6    1  0.2238133E-007  0.3821241E+04  0.7818608E-02  0.8041612E-01
          2   -1    0    0  501    0  0.00000000000E+00  0.00000000000E+00  0.17995849973E+04  0.17995849973E+04  0.00000000000E+00 0. -1.
         -2   -1    0    0    0  501 -0.00000000000E+00 -0.00000000000E+00 -0.20285065719E+04  0.20285065719E+04  0.00000000000E+00 0.  1.
         23    2    1    2    0    0 -0.16659413118E+04  0.42994062393E+03 -0.94433725601E+03  0.19647534378E+04  0.90960561655E+02 0.  0.
         11    1    3    3    0    0 -0.53783584771E+03  0.18098385665E+03 -0.29672898440E+03  0.64036758634E+03  0.00000000000E+00 0. -1.
        -11    1    3    3    0    0 -0.11281054641E+04  0.24895676728E+03 -0.64760827160E+03  0.13243858515E+04  0.00000000000E+00 0.  1.
         22    1    1    2    0    0  0.16659413118E+04 -0.42994062393E+03  0.71541568145E+03  0.18633381314E+04  0.00000000000E+00 0. -1.
<mgrwt>
<rscale>  0 0.38212406E+04</rscale>
<asrwt>0</asrwt>
<pdfrwt beam="1">  1        2 0.27685923E+00 0.38212406E+04</pdfrwt>
<pdfrwt beam="2">  1       -2 0.31207794E+00 0.38212406E+04</pdfrwt>
<totfact> 0.18514641E-01</totfact>
</mgrwt>
</event>
<event>
 6    1  0.2238133E-007  0.1843380E+04  0.7818608E-02  0.8683564E-01
         -2   -1    0    0    0  501 -0.00000000000E+00  0.00000000000E+00  0.76417282455E+03  0.76417282455E+03  0.00000000000E+00 0.  1.
          2   -1    0    0  501    0  0.00000000000E+00 -0.00000000000E+00 -0.11116762635E+04  0.11116762635E+04  0.00000000000E+00 0. -1.
         23    2    1    2    0    0 -0.21644310969E+03  0.18214410651E+03 -0.10644323903E+04  0.11051278567E+04  0.90923983682E+02 0.  0.
         11    1    3    3    0    0 -0.16477203262E+03  0.81200223049E+02 -0.66743922719E+03  0.69225603713E+03  0.00000000000E+00 0. -1.
        -11    1    3    3    0    0 -0.51671077068E+02  0.10094388346E+03 -0.39699316314E+03  0.41287181957E+03  0.00000000000E+00 0.  1.
         22    1    1    2    0    0  0.21644310969E+03 -0.18214410651E+03  0.71692895133E+03  0.77072123139E+03  0.00000000000E+00 0.  1.
<mgrwt>
<rscale>  0 0.18433804E+04</rscale>
<asrwt>0</asrwt>
<pdfrwt beam="1">  1        2 0.17102712E+00 0.18433804E+04</pdfrwt>
<pdfrwt beam="2">  1       -2 0.11756505E+00 0.18433804E+04</pdfrwt>
<totfact> 0.11263304E+01</totfact>
</mgrwt>
</event>
<event>
 6    1  0.2238133E-007  0.2547081E+04  0.7818608E-02  0.8386402E-01
          2   -1    0    0  501    0  0.00000000000E+00  0.00000000000E+00  0.17003298413E+04  0.17003298413E+04  0.00000000000E+00 0. -1.
         -2   -1    0    0    0  501 -0.00000000000E+00 -0.00000000000E+00 -0.95387728374E+03  0.95387728374E+03  0.00000000000E+00 0.  1.
         23    2    1    2    0    0 -0.38282307332E+03 -0.33105028683E+03  0.15902692200E+04  0.16702486108E+04  0.68017877841E+02 0.  0.
         13    1    3    3    0    0 -0.19269083985E+03 -0.12352858636E+03  0.68386675879E+03  0.72115380828E+03  0.00000000000E+00 0. -1.
        -13    1    3    3    0    0 -0.19013223347E+03 -0.20752170046E+03  0.90640246125E+03  0.94909480250E+03  0.00000000000E+00 0.  1.
         22    1    1    2    0    0  0.38282307332E+03  0.33105028683E+03 -0.84381666250E+03  0.98395851426E+03  0.00000000000E+00 0.  1.
<mgrwt>
<rscale>  0 0.25470815E+04</rscale>
<asrwt>0</asrwt>
<pdfrwt beam="1">  1        2 0.26158921E+00 0.25470815E+04</pdfrwt>
<pdfrwt beam="2">  1       -2 0.14675035E+00 0.25470815E+04</pdfrwt>
<totfact> 0.27654695E+00</totfact>
</mgrwt>
</event>
<event>
 6    1  0.2238133E-007  0.8822221E+03  0.7818608E-02  0.9448082E-01
          2   -1    0    0  501    0  0.00000000000E+00  0.00000000000E+00  0.69276870285E+03  0.69276870285E+03  0.00000000000E+00 0. -1.
         -2   -1    0    0    0  501 -0.00000000000E+00 -0.00000000000E+00 -0.28087146370E+03  0.28087146370E+03  0.00000000000E+00 0.  1.
         23    2    1    2    0    0  0.39923885538E+03  0.13894353920E+03  0.89895508554E+02  0.44224381237E+03  0.93815864297E+02 0.  0.
         13    1    3    3    0    0  0.12496171930E+03  0.71873877691E+02 -0.53429714760E+01  0.14425613654E+03  0.00000000000E+00 0.  1.
        -13    1    3    3    0    0  0.27427713607E+03  0.67069661506E+02  0.95238480030E+02  0.29798767583E+03  0.00000000000E+00 0. -1.
         22    1    1    2    0    0 -0.39923885538E+03 -0.13894353920E+03  0.32200173059E+03  0.53139635418E+03  0.00000000000E+00 0.  1.
<mgrwt>
<rscale>  0 0.88222210E+03</rscale>
<asrwt>0</asrwt>
<pdfrwt beam="1">  1        2 0.10657980E+00 0.88222210E+03</pdfrwt>
<pdfrwt beam="2">  1       -2 0.43210994E-01 0.88222210E+03</pdfrwt>
<totfact> 0.21153756E+02</totfact>
</mgrwt>
</event>
<event>
 6    1  0.2238133E-007  0.2154126E+04  0.7818608E-02  0.8537768E-01
         -2   -1    0    0    0  501 -0.00000000000E+00  0.00000000000E+00  0.39011204824E+03  0.39011204824E+03  0.00000000000E+00 0.  1.
          2   -1    0    0  501    0  0.00000000000E+00 -0.00000000000E+00 -0.29736708150E+04  0.29736708150E+04  0.00000000000E+00 0. -1.
         23    2    1    2    0    0  0.27534683255E+03 -0.82013308241E+03 -0.22906994269E+04  0.24504369573E+04  0.94357119626E+02 0.  0.
         13    1    3    3    0    0  0.17195089669E+03 -0.37462420962E+03 -0.10369251022E+04  0.11158512790E+04  0.00000000000E+00 0.  1.
        -13    1    3    3    0    0  0.10339593586E+03 -0.44550887279E+03 -0.12537743247E+04  0.13345856783E+04  0.00000000000E+00 0. -1.
         22    1    1    2    0    0 -0.27534683255E+03  0.82013308241E+03 -0.29285933986E+03  0.91334590599E+03  0.00000000000E+00 0.  1.
<mgrwt>
<rscale>  0 0.21541261E+04</rscale>
<asrwt>0</asrwt>
<pdfrwt beam="1">  1        2 0.45748780E+00 0.21541261E+04</pdfrwt>
<pdfrwt beam="2">  1       -2 0.60017241E-01 0.21541261E+04</pdfrwt>
<totfact> 0.43006984E+00</totfact>
</mgrwt>
</event>
<event>
 6    1  0.2238133E-007  0.1211190E+04  0.7818608E-02  0.9103118E-01
         -2   -1    0    0    0  501 -0.00000000000E+00  0.00000000000E+00  0.33741936957E+03  0.33741936957E+03  0.00000000000E+00 0.  1.
          2   -1    0    0  501    0  0.00000000000E+00 -0.00000000000E+00 -0.10869126639E+04  0.10869126639E+04  0.00000000000E+00 0. -1.
         23    2    1    2    0    0  0.32262823529E+03  0.22894227615E+03  0.15706055195E+03  0.43521959283E+03  0.90799410705E+02 0.  0.
         13    1    3    3    0    0  0.24872386653E+03  0.17546099153E+03  0.77310121354E+02  0.31404932128E+03  0.00000000000E+00 0. -1.
        -13    1    3    3    0    0  0.73904368761E+02  0.53481284615E+02  0.79750430601E+02  0.12117027155E+03  0.00000000000E+00 0.  1.
         22    1    1    2    0    0 -0.32262823529E+03 -0.22894227615E+03 -0.90655384625E+03  0.98911244061E+03  0.00000000000E+00 0. -1.
<mgrwt>
<rscale>  0 0.12111901E+04</rscale>
<asrwt>0</asrwt>
<pdfrwt beam="1">  1        2 0.16721733E+00 0.12111901E+04</pdfrwt>
<pdfrwt beam="2">  1       -2 0.51910673E-01 0.12111901E+04</pdfrwt>
<totfact> 0.76681278E+01</totfact>
</mgrwt>
</event>
<event>
 6    1  0.2238133E-007  0.8025081E+03  0.7818608E-02  0.9556394E-01
          1   -1    0    0  501    0  0.00000000000E+00  0.00000000000E+00  0.39525138697E+03  0.39525138697E+03  0.00000000000E+00 0. -1.
         -1   -1    0    0    0  501 -0.00000000000E+00 -0.00000000000E+00 -0.40734786629E+03  0.40734786629E+03  0.00000000000E+00 0.  1.
         23    2    1    2    0    0 -0.25399986894E+03  0.27160928623E+03 -0.14250870189E+03  0.40852453246E+03  0.91082521465E+02 0.  0.
         11    1    3    3    0    0 -0.22229732157E+03  0.26775105255E+03 -0.14384318411E+03  0.37656020359E+03  0.00000000000E+00 0.  1.
        -11    1    3    3    0    0 -0.31702547368E+02  0.38582336833E+01  0.13344822154E+01  0.31964328861E+02  0.00000000000E+00 0. -1.
         22    1    1    2    0    0  0.25399986894E+03 -0.27160928623E+03  0.13041222257E+03  0.39407472081E+03  0.00000000000E+00 0.  1.
<mgrwt>
<rscale>  0 0.80250809E+03</rscale>
<asrwt>0</asrwt>
<pdfrwt beam="1">  1        1 0.60807906E-01 0.80250809E+03</pdfrwt>
<pdfrwt beam="2">  1       -1 0.62668902E-01 0.80250809E+03</pdfrwt>
<totfact> 0.15934215E+02</totfact>
</mgrwt>
</event>
<event>
 6    1  0.2238133E-007  0.3322931E+04  0.7818608E-02  0.8157085E-01
         -2   -1    0    0    0  501 -0.00000000000E+00  0.00000000000E+00  0.10063162704E+04  0.10063162704E+04  0.00000000000E+00 0.  1.
          2   -1    0    0  501    0  0.00000000000E+00 -0.00000000000E+00 -0.27431411219E+04  0.27431411219E+04  0.00000000000E+00 0. -1.
         23    2    1    2    0    0 -0.14282351996E+03 -0.44701929427E+03  0.92806315524E+03  0.10435651373E+04  0.86615058964E+02 0.  0.
         13    1    3    3    0    0 -0.44857685817E+02 -0.25783882132E+03  0.45853750623E+03  0.52796753155E+03  0.00000000000E+00 0.  1.
        -13    1    3    3    0    0 -0.97965834147E+02 -0.18918047295E+03  0.46952564902E+03  0.51559760578E+03  0.00000000000E+00 0. -1.
         22    1    1    2    0    0  0.14282351996E+03  0.44701929427E+03 -0.26648880067E+04  0.27058922550E+04  0.00000000000E+00 0. -1.
<mgrwt>
<rscale>  0 0.33229310E+04</rscale>
<asrwt>0</asrwt>
<pdfrwt beam="1">  1        2 0.42202170E+00 0.33229310E+04</pdfrwt>
<pdfrwt beam="2">  1       -2 0.15481789E+00 0.33229310E+04</pdfrwt>
<totfact> 0.57425272E-01</totfact>
</mgrwt>
</event>
<event>
 6    1  0.2238133E-007  0.1655801E+04  0.7818608E-02  0.8786982E-01
          2   -1    0    0  501    0  0.00000000000E+00  0.00000000000E+00  0.20786293955E+04  0.20786293955E+04  0.00000000000E+00 0. -1.
         -2   -1    0    0    0  501 -0.00000000000E+00 -0.00000000000E+00 -0.32974562043E+03  0.32974562043E+03  0.00000000000E+00 0.  1.
         23    2    1    2    0    0 -0.72176133392E+03 -0.37860781441E+03  0.10688008390E+04  0.13468684921E+04  0.86233410932E+02 0.  0.
         13    1    3    3    0    0 -0.38635396330E+03 -0.18266463229E+03  0.62416823143E+03  0.75645339181E+03  0.00000000000E+00 0. -1.
        -13    1    3    3    0    0 -0.33540737062E+03 -0.19594318212E+03  0.44463260759E+03  0.59041510026E+03  0.00000000000E+00 0.  1.
         22    1    1    2    0    0  0.72176133392E+03  0.37860781441E+03  0.68008293604E+03  0.10615065238E+04  0.00000000000E+00 0. -1.
<mgrwt>
<rscale>  0 0.16558006E+04</rscale>
<asrwt>0</asrwt>
<pdfrwt beam="1">  1        2 0.31978913E+00 0.16558006E+04</pdfrwt>
<pdfrwt beam="2">  1       -2 0.50730097E-01 0.16558006E+04</pdfrwt>
<totfact> 0.21192085E+01</totfact>
</mgrwt>
</event>
<event>
 6    1  0.2238133E-007  0.3412379E+04  0.7818608E-02  0.8134875E-01
          2   -1    0    0  501    0  0.00000000000E+00  0.00000000000E+00  0.35219849407E+04  0.35219849407E+04  0.00000000000E+00 0. -1.
         -2   -1    0    0    0  501 -0.00000000000E+00 -0.00000000000E+00 -0.82654613147E+03  0.82654613147E+03  0.00000000000E+00 0.  1.
         23    2    1    2    0    0 -0.88677133037E+03 -0.39652710776E+03 -0.43668127209E+03  0.10692364310E+04  0.94756912938E+02 0.  0.
         13    1    3    3    0    0 -0.31770137387E+03 -0.15711162797E+03 -0.20743142646E+03  0.41066534220E+03  0.00000000000E+00 0.  1.
        -13    1    3    3    0    0 -0.56906995649E+03 -0.23941547979E+03 -0.22924984562E+03  0.65857108885E+03  0.00000000000E+00 0. -1.
         22    1    1    2    0    0  0.88677133037E+03  0.39652710776E+03  0.31321200813E+04  0.32792946411E+04  0.00000000000E+00 0. -1.
<mgrwt>
<rscale>  0 0.34123792E+04</rscale>
<asrwt>0</asrwt>
<pdfrwt beam="1">  1        2 0.54184383E+00 0.34123792E+04</pdfrwt>
<pdfrwt beam="2">  1       -2 0.12716094E+00 0.34123792E+04</pdfrwt>
<totfact> 0.29771727E-01</totfact>
</mgrwt>
</event>
<event>
 6    1  0.2238133E-007  0.1899607E+04  0.7818608E-02  0.8655052E-01
         -2   -1    0    0    0  501 -0.00000000000E+00  0.00000000000E+00  0.62336141201E+03  0.62336141201E+03  0.00000000000E+00 0.  1.
          2   -1    0    0  501    0  0.00000000000E+00 -0.00000000000E+00 -0.14471967810E+04  0.14471967810E+04  0.00000000000E+00 0. -1.
         23    2    1    2    0    0 -0.29362842814E+03  0.60498216458E+03 -0.11406086834E+04  0.13272100875E+04  0.90980076911E+02 0.  0.
         13    1    3    3    0    0 -0.11801045880E+03  0.29269116595E+03 -0.45660758586E+03  0.55505411851E+03  0.00000000000E+00 0. -1.
        -13    1    3    3    0    0 -0.17561796934E+03  0.31229099863E+03 -0.68400109757E+03  0.77215596899E+03  0.00000000000E+00 0.  1.
         22    1    1    2    0    0  0.29362842814E+03 -0.60498216458E+03  0.31677331441E+03  0.74334810553E+03  0.00000000000E+00 0.  1.
<mgrwt>
<rscale>  0 0.18996069E+04</rscale>
<asrwt>0</asrwt>
<pdfrwt beam="1">  1        2 0.22264566E+00 0.18996069E+04</pdfrwt>
<pdfrwt beam="2">  1       -2 0.95901757E-01 0.18996069E+04</pdfrwt>
<totfact> 0.11613003E+01</totfact>
</mgrwt>
</event>
<event>
 6    1  0.2238133E-007  0.1639048E+04  0.7818608E-02  0.8796912E-01
          2   -1    0    0  501    0  0.00000000000E+00  0.00000000000E+00  0.24113343048E+04  0.24113343048E+04  0.00000000000E+00 0. -1.
         -2   -1    0    0    0  501 -0.00000000000E+00 -0.00000000000E+00 -0.27852620165E+03  0.27852620165E+03  0.00000000000E+00 0.  1.
         23    2    1    2    0    0 -0.53487568301E+02 -0.23655965443E+03  0.23500164350E+04  0.23642827900E+04  0.91839404919E+02 0.  0.
         11    1    3    3    0    0  0.11005076056E+02 -0.10493257456E+03  0.12682267395E+04  0.12726079599E+04  0.00000000000E+00 0. -1.
        -11    1    3    3    0    0 -0.64492644358E+02 -0.13162707987E+03  0.10817896955E+04  0.10916748301E+04  0.00000000000E+00 0.  1.
         22    1    1    2    0    0  0.53487568301E+02  0.23655965443E+03 -0.21720833180E+03  0.32557771649E+03  0.00000000000E+00 0.  1.
<mgrwt>
<rscale>  0 0.16390482E+04</rscale>
<asrwt>0</asrwt>
<pdfrwt beam="1">  1        2 0.37097450E+00 0.16390482E+04</pdfrwt>
<pdfrwt beam="2">  1       -2 0.42850186E-01 0.16390482E+04</pdfrwt>
<totfact> 0.19362223E+01</totfact>
</mgrwt>
</event>
<event>
 6    1  0.2238133E-007  0.2344927E+04  0.7818608E-02  0.8460415E-01
         -2   -1    0    0    0  501 -0.00000000000E+00  0.00000000000E+00  0.82163071701E+03  0.82163071701E+03  0.00000000000E+00 0.  1.
          2   -1    0    0  501    0  0.00000000000E+00 -0.00000000000E+00 -0.16731001375E+04  0.16731001375E+04  0.00000000000E+00 0. -1.
         23    2    1    2    0    0 -0.71418277628E+03  0.89174425111E+03 -0.15365808373E+03  0.11559980548E+04  0.86347256441E+02 0.  0.
         13    1    3    3    0    0 -0.39212179954E+03  0.55653815311E+03 -0.84386775511E+02  0.68601410294E+03  0.00000000000E+00 0.  1.
        -13    1    3    3    0    0 -0.32206097674E+03  0.33520609800E+03 -0.69271308222E+02  0.46998395187E+03  0.00000000000E+00 0. -1.
         22    1    1    2    0    0  0.71418277628E+03 -0.89174425111E+03 -0.69781133678E+03  0.13387327997E+04  0.00000000000E+00 0. -1.
<mgrwt>
<rscale>  0 0.23449268E+04</rscale>
<asrwt>0</asrwt>
<pdfrwt beam="1">  1        2 0.25740002E+00 0.23449268E+04</pdfrwt>
<pdfrwt beam="2">  1       -2 0.12640473E+00 0.23449268E+04</pdfrwt>
<totfact> 0.42753222E+00</totfact>
</mgrwt>
</event>
<event>
 6    1  0.2238133E-007  0.5792323E+03  0.7818608E-02  0.9949454E-01
          2   -1    0    0  501    0  0.00000000000E+00  0.00000000000E+00  0.90118326953E+02  0.90118326953E+02  0.00000000000E+00 0. -1.
         -2   -1    0    0    0  501 -0.00000000000E+00 -0.00000000000E+00 -0.93074870116E+03  0.93074870116E+03  0.00000000000E+00 0.  1.
         23    2    1    2    0    0  0.44126946587E+02  0.10582103305E+03 -0.88583129483E+03  0.89762579445E+03  0.88824014210E+02 0.  0.
         13    1    3    3    0    0  0.29383451265E+02  0.35472959369E+02 -0.63585618265E+03  0.63752239417E+03  0.00000000000E+00 0. -1.
        -13    1    3    3    0    0  0.14743495322E+02  0.70348073677E+02 -0.24997511219E+03  0.26010340028E+03  0.00000000000E+00 0.  1.
         22    1    1    2    0    0 -0.44126946587E+02 -0.10582103305E+03  0.45200920627E+02  0.12324123367E+03  0.00000000000E+00 0. -1.
<mgrwt>
<rscale>  0 0.57923230E+03</rscale>
<asrwt>0</asrwt>
<pdfrwt beam="1">  1        2 0.13864358E-01 0.57923230E+03</pdfrwt>
<pdfrwt beam="2">  1       -2 0.14319211E+00 0.57923230E+03</pdfrwt>
<totfact> 0.15195060E+02</totfact>
</mgrwt>
</event>
<event>
 6    1  0.2238133E-007  0.7005654E+03  0.7818608E-02  0.9716266E-01
          2   -1    0    0  501    0  0.00000000000E+00  0.00000000000E+00  0.91159077603E+03  0.91159077603E+03  0.00000000000E+00 0. -1.
         -2   -1    0    0    0  501 -0.00000000000E+00 -0.00000000000E+00 -0.13459765299E+03  0.13459765299E+03  0.00000000000E+00 0.  1.
         23    2    1    2    0    0 -0.25586238721E+03 -0.20230687269E+03  0.23110902325E+03  0.41027720698E+03  0.92316704913E+02 0.  0.
         13    1    3    3    0    0 -0.15866328742E+03 -0.71564126797E+02  0.14168751002E+03  0.22443443032E+03  0.00000000000E+00 0. -1.
        -13    1    3    3    0    0 -0.97199099793E+02 -0.13074274590E+03  0.89421513235E+02  0.18584277665E+03  0.00000000000E+00 0.  1.
         22    1    1    2    0    0  0.25586238721E+03  0.20230687269E+03  0.54588409978E+03  0.63591122205E+03  0.00000000000E+00 0. -1.
<mgrwt>
<rscale>  0 0.70056543E+03</rscale>
<asrwt>0</asrwt>
<pdfrwt beam="1">  1        2 0.14024473E+00 0.70056543E+03</pdfrwt>
<pdfrwt beam="2">  1       -2 0.20707332E-01 0.70056543E+03</pdfrwt>
<totfact> 0.58172889E+02</totfact>
</mgrwt>
</event>
<event>
 6    1  0.2238133E-007  0.4968528E+04  0.7818608E-02  0.7833380E-01
         -2   -1    0    0    0  501 -0.00000000000E+00  0.00000000000E+00  0.16119878831E+04  0.16119878831E+04  0.00000000000E+00 0.  1.
          2   -1    0    0  501    0  0.00000000000E+00 -0.00000000000E+00 -0.38285452803E+04  0.38285452803E+04  0.00000000000E+00 0. -1.
         23    2    1    2    0    0 -0.17260004004E+04 -0.13465982997E+04  0.17642290056E+03  0.21972695188E+04  0.66812690278E+02 0.  0.
         13    1    3    3    0    0 -0.63972699893E+03 -0.51830956462E+03  0.95058566268E+02  0.82881334989E+03  0.00000000000E+00 0.  1.
        -13    1    3    3    0    0 -0.10862734015E+04 -0.82828873512E+03  0.81364334289E+02  0.13684561690E+04  0.00000000000E+00 0. -1.
         22    1    1    2    0    0  0.17260004004E+04  0.13465982997E+04 -0.23929802977E+04  0.32432636446E+04  0.00000000000E+00 0. -1.
<mgrwt>
<rscale>  0 0.49685284E+04</rscale>
<asrwt>0</asrwt>
<pdfrwt beam="1">  1        2 0.58900696E+00 0.49685284E+04</pdfrwt>
<pdfrwt beam="2">  1       -2 0.24799814E+00 0.49685284E+04</pdfrwt>
<totfact> 0.22456366E-02</totfact>
</mgrwt>
</event>
<event>
 6    1  0.2238133E-007  0.1385992E+04  0.7818608E-02  0.8964021E-01
          2   -1    0    0  501    0  0.00000000000E+00  0.00000000000E+00  0.15011589130E+04  0.15011589130E+04  0.00000000000E+00 0. -1.
         -2   -1    0    0    0  501 -0.00000000000E+00 -0.00000000000E+00 -0.31991527451E+03  0.31991527451E+03  0.00000000000E+00 0.  1.
         23    2    1    2    0    0 -0.59795154575E+01 -0.46457670496E+03 -0.76452598544E+02  0.48030310562E+03  0.94756551450E+02 0.  0.
         11    1    3    3    0    0 -0.15418822284E+02 -0.38383154986E+03 -0.26867935531E+02  0.38507958231E+03  0.00000000000E+00 0.  1.
        -11    1    3    3    0    0  0.94393068260E+01 -0.80745155101E+02 -0.49584663013E+02  0.95223523311E+02  0.00000000000E+00 0. -1.
         22    1    1    2    0    0  0.59795154575E+01  0.46457670496E+03  0.12576962370E+04  0.13407710819E+04  0.00000000000E+00 0. -1.
<mgrwt>
<rscale>  0 0.13859923E+04</rscale>
<asrwt>0</asrwt>
<pdfrwt beam="1">  1        2 0.23094752E+00 0.13859923E+04</pdfrwt>
<pdfrwt beam="2">  1       -2 0.49217736E-01 0.13859923E+04</pdfrwt>
<totfact> 0.48246896E+01</totfact>
</mgrwt>
</event>
<event>
 6    1  0.2238133E-007  0.2509068E+04  0.7818608E-02  0.8399762E-01
         -1   -1    0    0    0  501 -0.00000000000E+00  0.00000000000E+00  0.13049982293E+04  0.13049982293E+04  0.00000000000E+00 0.  1.
          1   -1    0    0  501    0  0.00000000000E+00 -0.00000000000E+00 -0.12060210427E+04  0.12060210427E+04  0.00000000000E+00 0. -1.
         23    2    1    2    0    0  0.34708503352E+03  0.11261623151E+04 -0.37629479970E+03  0.12403528951E+04  0.90376698286E+02 0.  0.
         13    1    3    3    0    0  0.31376981059E+03  0.96846511581E+03 -0.35305471117E+03  0.10775081455E+04  0.00000000000E+00 0.  1.
        -13    1    3    3    0    0  0.33315222933E+02  0.15769719929E+03 -0.23240088522E+02  0.16284474955E+03  0.00000000000E+00 0. -1.
         22    1    1    2    0    0 -0.34708503352E+03 -0.11261623151E+04  0.47527198636E+03  0.12706663769E+04  0.00000000000E+00 0.  1.
<mgrwt>
<rscale>  0 0.25090678E+04</rscale>
<asrwt>0</asrwt>
<pdfrwt beam="1">  1        1 0.18554170E+00 0.25090678E+04</pdfrwt>
<pdfrwt beam="2">  1       -1 0.20076896E+00 0.25090678E+04</pdfrwt>
<totfact> 0.13961051E+00</totfact>
</mgrwt>
</event>
<event>
 6    1  0.2766899E-007  0.5314678E+04  0.7818608E-02  0.7781717E-01
          1   -1    0    0  501    0  0.00000000000E+00  0.00000000000E+00  0.38728053442E+04  0.38728053442E+04  0.00000000000E+00 0. -1.
         -1   -1    0    0    0  501 -0.00000000000E+00 -0.00000000000E+00 -0.18233425921E+04  0.18233425921E+04  0.00000000000E+00 0.  1.
         23    2    1    2    0    0  0.82915772488E+03  0.21403954441E+04 -0.40827326160E+03  0.23332233902E+04  0.91919219490E+02 0.  0.
         13    1    3    3    0    0  0.66683629099E+03  0.16148537372E+04 -0.30282954946E+03  0.17731691875E+04  0.00000000000E+00 0. -1.
        -13    1    3    3    0    0  0.16232143389E+03  0.52554170691E+03 -0.10544371214E+03  0.56005420276E+03  0.00000000000E+00 0.  1.
         22    1    1    2    0    0 -0.82915772488E+03 -0.21403954441E+04  0.24577360136E+04  0.33629245461E+04  0.00000000000E+00 0. -1.
<mgrwt>
<rscale>  0 0.53146781E+04</rscale>
<asrwt>0</asrwt>
<pdfrwt beam="1">  1        1 0.59581620E+00 0.53146781E+04</pdfrwt>
<pdfrwt beam="2">  1       -1 0.28051425E+00 0.53146781E+04</pdfrwt>
<totfact> 0.38367603E-03</totfact>
</mgrwt>
</event>
<event>
 6    1  0.2238133E-007  0.9344711E+03  0.7818608E-02  0.9383488E-01
         -2   -1    0    0    0  501 -0.00000000000E+00  0.00000000000E+00  0.19893273930E+03  0.19893273930E+03  0.00000000000E+00 0.  1.
          2   -1    0    0  501    0  0.00000000000E+00 -0.00000000000E+00 -0.10974013693E+04  0.10974013693E+04  0.00000000000E+00 0. -1.
         23    2    1    2    0    0 -0.21843877124E+03  0.61575558677E+01 -0.10193952152E+04  0.10465809278E+04  0.91714892219E+02 0.  0.
         11    1    3    3    0    0 -0.99897530927E+02 -0.18187351190E+02 -0.64960387110E+03  0.65749181423E+03  0.00000000000E+00 0. -1.
        -11    1    3    3    0    0 -0.11854124031E+03  0.24344907057E+02 -0.36979134411E+03  0.38908911361E+03  0.00000000000E+00 0.  1.
         22    1    1    2    0    0  0.21843877124E+03 -0.61575558677E+01  0.12092658523E+03  0.24975318074E+03  0.00000000000E+00 0.  1.
<mgrwt>
<rscale>  0 0.93447110E+03</rscale>
<asrwt>0</asrwt>
<pdfrwt beam="1">  1        2 0.16883098E+00 0.93447110E+03</pdfrwt>
<pdfrwt beam="2">  1       -2 0.30605037E-01 0.93447110E+03</pdfrwt>
<totfact> 0.21596753E+02</totfact>
</mgrwt>
</event>
<event>
 6    1  0.2238133E-007  0.5893341E+03  0.7818608E-02  0.9927785E-01
         -2   -1    0    0    0  501 -0.00000000000E+00  0.00000000000E+00  0.10327132783E+03  0.10327132783E+03  0.00000000000E+00 0.  1.
          2   -1    0    0  501    0  0.00000000000E+00 -0.00000000000E+00 -0.84078187303E+03  0.84078187303E+03  0.00000000000E+00 0. -1.
         23    2    1    2    0    0 -0.20116050375E+03  0.15010945065E+03 -0.60154423471E+03  0.65859701678E+03  0.94319503535E+02 0.  0.
         11    1    3    3    0    0 -0.15263269613E+03  0.81642879875E+02 -0.48514509278E+03  0.51510004932E+03  0.00000000000E+00 0. -1.
        -11    1    3    3    0    0 -0.48527807617E+02  0.68466570777E+02 -0.11639914193E+03  0.14349696746E+03  0.00000000000E+00 0.  1.
         22    1    1    2    0    0  0.20116050375E+03 -0.15010945065E+03 -0.13596631049E+03  0.28545618408E+03  0.00000000000E+00 0.  1.
<mgrwt>
<rscale>  0 0.58933407E+03</rscale>
<asrwt>0</asrwt>
<pdfrwt beam="1">  1        2 0.12935106E+00 0.58933407E+03</pdfrwt>
<pdfrwt beam="2">  1       -2 0.15887896E-01 0.58933407E+03</pdfrwt>
<totfact> 0.10294139E+03</totfact>
</mgrwt>
</event>
<event>
 6    1  0.2238133E-007  0.3174159E+04  0.7818608E-02  0.8195675E-01
          2   -1    0    0  501    0  0.00000000000E+00  0.00000000000E+00  0.14647325253E+04  0.14647325253E+04  0.00000000000E+00 0. -1.
         -2   -1    0    0    0  501 -0.00000000000E+00 -0.00000000000E+00 -0.17196454594E+04  0.17196454594E+04  0.00000000000E+00 0.  1.
         23    2    1    2    0    0  0.75742024409E+03  0.80608725979E+03 -0.12674715763E+04  0.16847990103E+04  0.92743796844E+02 0.  0.
         13    1    3    3    0    0  0.48873504042E+03  0.45508562150E+03 -0.74934838929E+03  0.10037369532E+04  0.00000000000E+00 0.  1.
        -13    1    3    3    0    0  0.26868520367E+03  0.35100163829E+03 -0.51812318701E+03  0.68106205714E+03  0.00000000000E+00 0. -1.
         22    1    1    2    0    0 -0.75742024409E+03 -0.80608725979E+03  0.10125586422E+04  0.14995789744E+04  0.00000000000E+00 0. -1.
<mgrwt>
<rscale>  0 0.31741586E+04</rscale>
<asrwt>0</asrwt>
<pdfrwt beam="1">  1        2 0.22534347E+00 0.31741586E+04</pdfrwt>
<pdfrwt beam="2">  1       -2 0.26456084E+00 0.31741586E+04</pdfrwt>
<totfact> 0.58684610E-01</totfact>
</mgrwt>
</event>
<event>
 6    1  0.3400135E-007  0.3574999E+04  0.7818608E-02  0.8096243E-01
          2   -1    0    0  501    0  0.00000000000E+00  0.00000000000E+00  0.18348802076E+04  0.18348802076E+04  0.00000000000E+00 0. -1.
         -2   -1    0    0    0  501 -0.00000000000E+00 -0.00000000000E+00 -0.17413419774E+04  0.17413419774E+04  0.00000000000E+00 0.  1.
         23    2    1    2    0    0 -0.67011341667E+03  0.12852459119E+04 -0.99762796478E+03  0.17619585023E+04  0.91253287413E+02 0.  0.
         13    1    3    3    0    0 -0.35364136436E+03  0.60124383950E+03 -0.44500861306E+03  0.82739895747E+03  0.00000000000E+00 0. -1.
        -13    1    3    3    0    0 -0.31647205230E+03  0.68400207236E+03 -0.55261935173E+03  0.93455954481E+03  0.00000000000E+00 0.  1.
         22    1    1    2    0    0  0.67011341667E+03 -0.12852459119E+04  0.10911661950E+04  0.18142636827E+04  0.00000000000E+00 0. -1.
<mgrwt>
<rscale>  0 0.35749987E+04</rscale>
<asrwt>0</asrwt>
<pdfrwt beam="1">  1        2 0.28228926E+00 0.35749987E+04</pdfrwt>
<pdfrwt beam="2">  1       -2 0.26789876E+00 0.35749987E+04</pdfrwt>
<totfact> 0.33647144E-01</totfact>
</mgrwt>
</event>
<event>
 6    1  0.2238133E-007  0.3437826E+04  0.7818608E-02  0.8128685E-01
         -2   -1    0    0    0  501 -0.00000000000E+00  0.00000000000E+00  0.11660330006E+04  0.11660330006E+04  0.00000000000E+00 0.  1.
          2   -1    0    0  501    0  0.00000000000E+00 -0.00000000000E+00 -0.25339436063E+04  0.25339436063E+04  0.00000000000E+00 0. -1.
         23    2    1    2    0    0  0.93896365040E+03  0.15174096448E+03 -0.22238453886E+04  0.24204054249E+04  0.90532045840E+02 0.  0.
         13    1    3    3    0    0  0.56406512614E+03  0.13100661518E+03 -0.12975088417E+04  0.14208664237E+04  0.00000000000E+00 0. -1.
        -13    1    3    3    0    0  0.37489852426E+03  0.20734349303E+02 -0.92633654686E+03  0.99953900114E+03  0.00000000000E+00 0.  1.
         22    1    1    2    0    0 -0.93896365040E+03 -0.15174096448E+03  0.85593478289E+03  0.12795711819E+04  0.00000000000E+00 0.  1.
<mgrwt>
<rscale>  0 0.34378260E+04</rscale>
<asrwt>0</asrwt>
<pdfrwt beam="1">  1        2 0.38983748E+00 0.34378260E+04</pdfrwt>
<pdfrwt beam="2">  1       -2 0.17938969E+00 0.34378260E+04</pdfrwt>
<totfact> 0.50295098E-01</totfact>
</mgrwt>
</event>
<event>
 6    1  0.2238133E-007  0.2308076E+04  0.7818608E-02  0.8474743E-01
          2   -1    0    0  501    0  0.00000000000E+00  0.00000000000E+00  0.12046322675E+04  0.12046322675E+04  0.00000000000E+00 0. -1.
         -2   -1    0    0    0  501 -0.00000000000E+00 -0.00000000000E+00 -0.11055691046E+04  0.11055691046E+04  0.00000000000E+00 0.  1.
         23    2    1    2    0    0  0.30103703902E+03 -0.10809673800E+04  0.31168005066E+03  0.11681331971E+04  0.90977672140E+02 0.  0.
         13    1    3    3    0    0  0.15643564221E+03 -0.46200627970E+03  0.17308142405E+03  0.51757037395E+03  0.00000000000E+00 0. -1.
        -13    1    3    3    0    0  0.14460139681E+03 -0.61896110025E+03  0.13859862661E+03  0.65056282316E+03  0.00000000000E+00 0.  1.
         22    1    1    2    0    0 -0.30103703902E+03  0.10809673800E+04 -0.21261688777E+03  0.11420681750E+04  0.00000000000E+00 0. -1.
<mgrwt>
<rscale>  0 0.23080764E+04</rscale>
<asrwt>0</asrwt>
<pdfrwt beam="1">  1        2 0.18532804E+00 0.23080764E+04</pdfrwt>
<pdfrwt beam="2">  1       -2 0.17008755E+00 0.23080764E+04</pdfrwt>
<totfact> 0.36291467E+00</totfact>
</mgrwt>
</event>
<event>
 6    1  0.2238133E-007  0.1877439E+04  0.7818608E-02  0.8666169E-01
         -2   -1    0    0    0  501 -0.00000000000E+00  0.00000000000E+00  0.87355152929E+03  0.87355152929E+03  0.00000000000E+00 0.  1.
          2   -1    0    0  501    0  0.00000000000E+00 -0.00000000000E+00 -0.10087485705E+04  0.10087485705E+04  0.00000000000E+00 0. -1.
         23    2    1    2    0    0  0.77458572020E+03 -0.52482365807E+03 -0.11004298482E+03  0.94632166172E+03  0.89399770358E+02 0.  0.
         11    1    3    3    0    0  0.28362536797E+03 -0.24464420447E+03 -0.38529932512E+02  0.37653511368E+03  0.00000000000E+00 0.  1.
        -11    1    3    3    0    0  0.49096035223E+03 -0.28017945359E+03 -0.71513052308E+02  0.56978654804E+03  0.00000000000E+00 0. -1.
         22    1    1    2    0    0 -0.77458572020E+03  0.52482365807E+03 -0.25154056410E+02  0.93597843808E+03  0.00000000000E+00 0.  1.
<mgrwt>
<rscale>  0 0.18774385E+04</rscale>
<asrwt>0</asrwt>
<pdfrwt beam="1">  1        2 0.15519209E+00 0.18774385E+04</pdfrwt>
<pdfrwt beam="2">  1       -2 0.13439254E+00 0.18774385E+04</pdfrwt>
<totfact> 0.93103438E+00</totfact>
</mgrwt>
</event>
<event>
 6    1  0.2238133E-007  0.2001711E+04  0.7818608E-02  0.8605821E-01
          2   -1    0    0  501    0  0.00000000000E+00  0.00000000000E+00  0.23125456129E+04  0.23125456129E+04  0.00000000000E+00 0. -1.
         -2   -1    0    0    0  501 -0.00000000000E+00 -0.00000000000E+00 -0.43316388907E+03  0.43316388907E+03  0.00000000000E+00 0.  1.
         23    2    1    2    0    0 -0.75138667329E+02  0.63588049969E+03  0.19930477158E+04  0.20953943576E+04  0.91915652425E+02 0.  0.
         11    1    3    3    0    0 -0.13601327783E+02  0.16746337612E+03  0.66201956978E+03  0.68300723952E+03  0.00000000000E+00 0. -1.
        -11    1    3    3    0    0 -0.61537339547E+02  0.46841712357E+03  0.13310281460E+04  0.14123871181E+04  0.00000000000E+00 0.  1.
         22    1    1    2    0    0  0.75138667329E+02 -0.63588049969E+03 -0.11366599201E+03  0.65031514434E+03  0.00000000000E+00 0.  1.
<mgrwt>
<rscale>  0 0.20017105E+04</rscale>
<asrwt>0</asrwt>
<pdfrwt beam="1">  1        2 0.35577624E+00 0.20017105E+04</pdfrwt>
<pdfrwt beam="2">  1       -2 0.66640600E-01 0.20017105E+04</pdfrwt>
<totfact> 0.85722496E+00</totfact>
</mgrwt>
</event>
<event>
 6    1  0.2238133E-007  0.1243420E+04  0.7818608E-02  0.9075678E-01
         -2   -1    0    0    0  501 -0.00000000000E+00  0.00000000000E+00  0.44420774515E+03  0.44420774515E+03  0.00000000000E+00 0.  1.
          2   -1    0    0  501    0  0.00000000000E+00 -0.00000000000E+00 -0.87014065901E+03  0.87014065901E+03  0.00000000000E+00 0. -1.
         23    2    1    2    0    0 -0.46332778703E+03  0.40849781685E+03 -0.26187197398E+03  0.67524035649E+03  0.76351186432E+02 0.  0.
         11    1    3    3    0    0 -0.33425532146E+03  0.27503153089E+03 -0.21708200510E+03  0.48424535087E+03  0.00000000000E+00 0. -1.
        -11    1    3    3    0    0 -0.12907246557E+03  0.13346628596E+03 -0.44789968881E+02  0.19099500561E+03  0.00000000000E+00 0.  1.
         22    1    1    2    0    0  0.46332778703E+03 -0.40849781685E+03 -0.16406093988E+03  0.63910804767E+03  0.00000000000E+00 0. -1.
<mgrwt>
<rscale>  0 0.12434198E+04</rscale>
<asrwt>0</asrwt>
<pdfrwt beam="1">  1        2 0.13386779E+00 0.12434198E+04</pdfrwt>
<pdfrwt beam="2">  1       -2 0.68339654E-01 0.12434198E+04</pdfrwt>
<totfact> 0.59254608E+01</totfact>
</mgrwt>
</event>
<event>
 6    1  0.2238133E-007  0.2781957E+04  0.7818608E-02  0.8308892E-01
          2   -1    0    0  501    0  0.00000000000E+00  0.00000000000E+00  0.16994848435E+04  0.16994848435E+04  0.00000000000E+00 0. -1.
         -2   -1    0    0    0  501 -0.00000000000E+00 -0.00000000000E+00 -0.11384748081E+04  0.11384748081E+04  0.00000000000E+00 0.  1.
         23    2    1    2    0    0  0.12564665623E+04  0.34002904135E+03  0.77671133219E+03  0.15185450009E+04  0.91490192020E+02 0.  0.
         13    1    3    3    0    0  0.57205194276E+03  0.11298774999E+03  0.32291704779E+03  0.66654713008E+03  0.00000000000E+00 0. -1.
        -13    1    3    3    0    0  0.68441461950E+03  0.22704129136E+03  0.45379428441E+03  0.85199787085E+03  0.00000000000E+00 0.  1.
         22    1    1    2    0    0 -0.12564665623E+04 -0.34002904135E+03 -0.21570129673E+03  0.13194146507E+04  0.00000000000E+00 0.  1.
<mgrwt>
<rscale>  0 0.27819566E+04</rscale>
<asrwt>0</asrwt>
<pdfrwt beam="1">  1        2 0.26145921E+00 0.27819566E+04</pdfrwt>
<pdfrwt beam="2">  1       -2 0.17514997E+00 0.27819566E+04</pdfrwt>
<totfact> 0.16764330E+00</totfact>
</mgrwt>
</event>
<event>
 6    1  0.2238133E-007  0.8721021E+03  0.7818608E-02  0.9461143E-01
         -2   -1    0    0    0  501 -0.00000000000E+00  0.00000000000E+00  0.26634280403E+03  0.26634280403E+03  0.00000000000E+00 0.  1.
          2   -1    0    0  501    0  0.00000000000E+00 -0.00000000000E+00 -0.71389388587E+03  0.71389388587E+03  0.00000000000E+00 0. -1.
         23    2    1    2    0    0  0.29652924737E+03  0.24212983023E+03 -0.24129693580E+01  0.39312137889E+03  0.89342861419E+02 0.  0.
         13    1    3    3    0    0  0.16647859969E+03  0.12982731870E+03 -0.45519722103E+02  0.21596828919E+03  0.00000000000E+00 0.  1.
        -13    1    3    3    0    0  0.13005064767E+03  0.11230251153E+03  0.43106752745E+02  0.17715308970E+03  0.00000000000E+00 0. -1.
         22    1    1    2    0    0 -0.29652924737E+03 -0.24212983023E+03 -0.44513811248E+03  0.58711531100E+03  0.00000000000E+00 0. -1.
<mgrwt>
<rscale>  0 0.87210206E+03</rscale>
<asrwt>0</asrwt>
<pdfrwt beam="1">  1        2 0.10982983E+00 0.87210206E+03</pdfrwt>
<pdfrwt beam="2">  1       -2 0.40975817E-01 0.87210206E+03</pdfrwt>
<totfact> 0.22620821E+02</totfact>
</mgrwt>
</event>
<event>
 6    1  0.2238133E-007  0.1459364E+04  0.7818608E-02  0.8911934E-01
          2   -1    0    0  501    0  0.00000000000E+00  0.00000000000E+00  0.23873314710E+04  0.23873314710E+04  0.00000000000E+00 0. -1.
         -2   -1    0    0    0  501 -0.00000000000E+00 -0.00000000000E+00 -0.22302563309E+03  0.22302563309E+03  0.00000000000E+00 0.  1.
         23    2    1    2    0    0  0.39519624061E+03  0.48586660755E+03  0.42583706225E+03  0.76251508896E+03  0.88575551785E+02 0.  0.
         11    1    3    3    0    0  0.18037732357E+03  0.29160421439E+03  0.22815920984E+03  0.41185631201E+03  0.00000000000E+00 0.  1.
        -11    1    3    3    0    0  0.21481891704E+03  0.19426239316E+03  0.19767785241E+03  0.35065877694E+03  0.00000000000E+00 0. -1.
         22    1    1    2    0    0 -0.39519624061E+03 -0.48586660755E+03  0.17384687756E+04  0.18478420151E+04  0.00000000000E+00 0. -1.
<mgrwt>
<rscale>  0 0.14593644E+04</rscale>
<asrwt>0</asrwt>
<pdfrwt beam="1">  1        2 0.36728175E+00 0.14593644E+04</pdfrwt>
<pdfrwt beam="2">  1       -2 0.34311637E-01 0.14593644E+04</pdfrwt>
<totfact> 0.31247268E+01</totfact>
</mgrwt>
</event>
<event>
 6    1  0.2238133E-007  0.2076312E+04  0.7818608E-02  0.8571751E-01
         -2   -1    0    0    0  501 -0.00000000000E+00  0.00000000000E+00  0.72374407044E+03  0.72374407044E+03  0.00000000000E+00 0.  1.
          2   -1    0    0  501    0  0.00000000000E+00 -0.00000000000E+00 -0.14891554394E+04  0.14891554394E+04  0.00000000000E+00 0. -1.
         23    2    1    2    0    0 -0.34840534853E+02 -0.90966833219E+03  0.14413423248E+03  0.92604927049E+03  0.89901262253E+02 0.  0.
         13    1    3    3    0    0 -0.30782747212E+02 -0.16331722591E+03  0.51331617567E+02  0.17393972740E+03  0.00000000000E+00 0.  1.
        -13    1    3    3    0    0 -0.40577876411E+01 -0.74635110627E+03  0.92802614917E+02  0.75210954309E+03  0.00000000000E+00 0. -1.
         22    1    1    2    0    0  0.34840534853E+02  0.90966833219E+03 -0.90954560149E+03  0.12868502394E+04  0.00000000000E+00 0. -1.
<mgrwt>
<rscale>  0 0.20763116E+04</rscale>
<asrwt>0</asrwt>
<pdfrwt beam="1">  1        2 0.22910084E+00 0.20763116E+04</pdfrwt>
<pdfrwt beam="2">  1       -2 0.11134524E+00 0.20763116E+04</pdfrwt>
<totfact> 0.75842943E+00</totfact>
</mgrwt>
</event>
<event>
 6    1  0.2238133E-007  0.1006943E+04  0.7818608E-02  0.9300963E-01
         -2   -1    0    0    0  501 -0.00000000000E+00  0.00000000000E+00  0.33184616361E+03  0.33184616361E+03  0.00000000000E+00 0.  1.
          2   -1    0    0  501    0  0.00000000000E+00 -0.00000000000E+00 -0.76385830140E+03  0.76385830140E+03  0.00000000000E+00 0. -1.
         23    2    1    2    0    0  0.10106212470E+03 -0.46906456019E+03 -0.36795491795E+03  0.61161930506E+03  0.91936053934E+02 0.  0.
         11    1    3    3    0    0  0.11270219801E+02 -0.10919652434E+03 -0.41000099645E+02  0.11718321958E+03  0.00000000000E+00 0. -1.
        -11    1    3    3    0    0  0.89791904902E+02 -0.35986803585E+03 -0.32695481830E+03  0.49443608548E+03  0.00000000000E+00 0.  1.
         22    1    1    2    0    0 -0.10106212470E+03  0.46906456019E+03 -0.64057219846E+02  0.48408515995E+03  0.00000000000E+00 0.  1.
<mgrwt>
<rscale>  0 0.10069428E+04</rscale>
<asrwt>0</asrwt>
<pdfrwt beam="1">  1        2 0.11751666E+00 0.10069428E+04</pdfrwt>
<pdfrwt beam="2">  1       -2 0.51053257E-01 0.10069428E+04</pdfrwt>
<totfact> 0.13252149E+02</totfact>
</mgrwt>
</event>
<event>
 6    1  0.2238133E-007  0.8667891E+03  0.7818608E-02  0.9468076E-01
          2   -1    0    0  501    0  0.00000000000E+00  0.00000000000E+00  0.14763000178E+04  0.14763000178E+04  0.00000000000E+00 0. -1.
         -2   -1    0    0    0  501 -0.00000000000E+00 -0.00000000000E+00 -0.12723079991E+03  0.12723079991E+03  0.00000000000E+00 0.  1.
         23    2    1    2    0    0  0.59439170233E+02  0.22652631200E+03  0.62695951710E+01  0.24046148281E+03  0.54177780552E+02 0.  0.
         11    1    3    3    0    0 -0.24530175232E+01  0.86153921096E+02 -0.70278227186E+01  0.86474884835E+02  0.00000000000E+00 0. -1.
        -11    1    3    3    0    0  0.61892187756E+02  0.14037239090E+03  0.13297417890E+02  0.15398659797E+03  0.00000000000E+00 0.  1.
         22    1    1    2    0    0 -0.59439170233E+02 -0.22652631200E+03  0.13427996227E+04  0.13630693349E+04  0.00000000000E+00 0. -1.
<mgrwt>
<rscale>  0 0.86678909E+03</rscale>
<asrwt>0</asrwt>
<pdfrwt beam="1">  1        2 0.22712307E+00 0.86678909E+03</pdfrwt>
<pdfrwt beam="2">  1       -2 0.19573970E-01 0.86678909E+03</pdfrwt>
<totfact> 0.29179635E+02</totfact>
</mgrwt>
</event>
<event>
 6    1  0.2238133E-007  0.1861035E+04  0.7818608E-02  0.8674499E-01
         -2   -1    0    0    0  501 -0.00000000000E+00  0.00000000000E+00  0.65012155617E+03  0.65012155617E+03  0.00000000000E+00 0.  1.
          2   -1    0    0  501    0  0.00000000000E+00 -0.00000000000E+00 -0.13318472261E+04  0.13318472261E+04  0.00000000000E+00 0. -1.
         23    2    1    2    0    0  0.64941212370E+03  0.38969886641E+03 -0.91328427326E+03  0.11899961188E+04  0.91658529941E+02 0.  0.
         13    1    3    3    0    0  0.32970741065E+03  0.17146863160E+03 -0.50959515272E+03  0.63071046284E+03  0.00000000000E+00 0. -1.
        -13    1    3    3    0    0  0.31970471306E+03  0.21823023481E+03 -0.40368912054E+03  0.55928565598E+03  0.00000000000E+00 0.  1.
         22    1    1    2    0    0 -0.64941212370E+03 -0.38969886641E+03  0.23155860333E+03  0.79197266346E+03  0.00000000000E+00 0.  1.
<mgrwt>
<rscale>  0 0.18610348E+04</rscale>
<asrwt>0</asrwt>
<pdfrwt beam="1">  1        2 0.20489957E+00 0.18610348E+04</pdfrwt>
<pdfrwt beam="2">  1       -2 0.10001870E+00 0.18610348E+04</pdfrwt>
<totfact> 0.12289266E+01</totfact>
</mgrwt>
</event>
<event>
 6    1  0.2238133E-007  0.4669473E+04  0.7818608E-02  0.7881621E-01
         -2   -1    0    0    0  501 -0.00000000000E+00  0.00000000000E+00  0.23422652857E+04  0.23422652857E+04  0.00000000000E+00 0.  1.
          2   -1    0    0  501    0  0.00000000000E+00 -0.00000000000E+00 -0.23272317159E+04  0.23272317159E+04  0.00000000000E+00 0. -1.
         23    2    1    2    0    0 -0.64405489947E+03  0.12348148077E+04  0.18803063658E+04  0.23416617570E+04  0.90848401362E+02 0.  0.
         13    1    3    3    0    0 -0.24364159727E+03  0.47786187959E+03  0.65136386327E+03  0.84379386479E+03  0.00000000000E+00 0. -1.
        -13    1    3    3    0    0 -0.40041330220E+03  0.75695292810E+03  0.12289425025E+04  0.14978678922E+04  0.00000000000E+00 0.  1.
         22    1    1    2    0    0  0.64405489947E+03 -0.12348148077E+04 -0.18652727960E+04  0.23278352447E+04  0.00000000000E+00 0. -1.
<mgrwt>
<rscale>  0 0.46694728E+04</rscale>
<asrwt>0</asrwt>
<pdfrwt beam="1">  1        2 0.35803565E+00 0.46694728E+04</pdfrwt>
<pdfrwt beam="2">  1       -2 0.36034850E+00 0.46694728E+04</pdfrwt>
<totfact> 0.43750041E-02</totfact>
</mgrwt>
</event>
<event>
 6    1  0.2238133E-007  0.2448243E+04  0.7818608E-02  0.8421660E-01
         -2   -1    0    0    0  501 -0.00000000000E+00  0.00000000000E+00  0.65389572658E+03  0.65389572658E+03  0.00000000000E+00 0.  1.
          2   -1    0    0  501    0  0.00000000000E+00 -0.00000000000E+00 -0.22916088256E+04  0.22916088256E+04  0.00000000000E+00 0. -1.
         23    2    1    2    0    0  0.57914277186E+03  0.74369677936E+03 -0.17564491305E+04  0.19954574507E+04  0.90805505310E+02 0.  0.
         13    1    3    3    0    0  0.21797332073E+03  0.35006447869E+03 -0.73788728787E+03  0.84530181438E+03  0.00000000000E+00 0.  1.
        -13    1    3    3    0    0  0.36116945113E+03  0.39363230067E+03 -0.10185618426E+04  0.11501556363E+04  0.00000000000E+00 0. -1.
         22    1    1    2    0    0 -0.57914277186E+03 -0.74369677936E+03  0.11873603147E+03  0.95004710147E+03  0.00000000000E+00 0.  1.
<mgrwt>
<rscale>  0 0.24482428E+04</rscale>
<asrwt>0</asrwt>
<pdfrwt beam="1">  1        2 0.35255520E+00 0.24482428E+04</pdfrwt>
<pdfrwt beam="2">  1       -2 0.10059934E+00 0.24482428E+04</pdfrwt>
<totfact> 0.33427938E+00</totfact>
</mgrwt>
</event>
<event>
 6    1  0.2238133E-007  0.5652307E+04  0.7818608E-02  0.7735072E-01
          2   -1    0    0  501    0  0.00000000000E+00  0.00000000000E+00  0.22766538739E+04  0.22766538739E+04  0.00000000000E+00 0. -1.
         -2   -1    0    0    0  501 -0.00000000000E+00 -0.00000000000E+00 -0.35082822098E+04  0.35082822098E+04  0.00000000000E+00 0.  1.
         23    2    1    2    0    0 -0.28039602434E+04 -0.20487501520E+03 -0.90343909306E+03  0.29544105146E+04  0.90401745773E+02 0.  0.
         13    1    3    3    0    0 -0.12613436707E+04 -0.91049926562E+02 -0.45364829398E+03  0.13435306916E+04  0.00000000000E+00 0. -1.
        -13    1    3    3    0    0 -0.15426165727E+04 -0.11382508863E+03 -0.44979079908E+03  0.16108798229E+04  0.00000000000E+00 0.  1.
         22    1    1    2    0    0  0.28039602434E+04  0.20487501520E+03 -0.32818924285E+03  0.28305255691E+04  0.00000000000E+00 0. -1.
<mgrwt>
<rscale>  0 0.56523072E+04</rscale>
<asrwt>0</asrwt>
<pdfrwt beam="1">  1        2 0.35025444E+00 0.56523072E+04</pdfrwt>
<pdfrwt beam="2">  1       -2 0.53973573E+00 0.56523072E+04</pdfrwt>
<totfact> 0.31719688E-03</totfact>
</mgrwt>
</event>
<event>
 6    1  0.2238133E-007  0.2160071E+04  0.7818608E-02  0.8535234E-01
         -2   -1    0    0    0  501 -0.00000000000E+00  0.00000000000E+00  0.11094550128E+04  0.11094550128E+04  0.00000000000E+00 0.  1.
          2   -1    0    0  501    0  0.00000000000E+00 -0.00000000000E+00 -0.10513958599E+04  0.10513958599E+04  0.00000000000E+00 0. -1.
         23    2    1    2    0    0  0.35281810125E+03  0.95134474925E+02 -0.98560023142E+03  0.10550678509E+04  0.90714789101E+02 0.  0.
         13    1    3    3    0    0  0.14751505080E+03  0.24432107797E+02 -0.52454826546E+03  0.54544339844E+03  0.00000000000E+00 0.  1.
        -13    1    3    3    0    0  0.20530305045E+03  0.70702367128E+02 -0.46105196596E+03  0.50962445247E+03  0.00000000000E+00 0. -1.
         22    1    1    2    0    0 -0.35281810125E+03 -0.95134474925E+02  0.10436593843E+04  0.11057830218E+04  0.00000000000E+00 0.  1.
<mgrwt>
<rscale>  0 0.21600707E+04</rscale>
<asrwt>0</asrwt>
<pdfrwt beam="1">  1        2 0.16175321E+00 0.21600707E+04</pdfrwt>
<pdfrwt beam="2">  1       -2 0.17068539E+00 0.21600707E+04</pdfrwt>
<totfact> 0.45144394E+00</totfact>
</mgrwt>
</event>
<event>
 6    1  0.2238133E-007  0.1362844E+04  0.7818608E-02  0.8981162E-01
          2   -1    0    0  501    0  0.00000000000E+00  0.00000000000E+00  0.10880470706E+04  0.10880470706E+04  0.00000000000E+00 0. -1.
         -2   -1    0    0    0  501 -0.00000000000E+00 -0.00000000000E+00 -0.42676098010E+03  0.42676098010E+03  0.00000000000E+00 0.  1.
         23    2    1    2    0    0  0.52560229316E+03 -0.35158039674E+03  0.60514064006E+03  0.87997038834E+03  0.91028260162E+02 0.  0.
         11    1    3    3    0    0  0.43150675867E+03 -0.26872690015E+03  0.43785039956E+03  0.67091370685E+03  0.00000000000E+00 0.  1.
        -11    1    3    3    0    0  0.94095534496E+02 -0.82853496585E+02  0.16729024050E+03  0.20905668149E+03  0.00000000000E+00 0. -1.
         22    1    1    2    0    0 -0.52560229316E+03  0.35158039674E+03  0.56145450434E+02  0.63483766236E+03  0.00000000000E+00 0. -1.
<mgrwt>
<rscale>  0 0.13628441E+04</rscale>
<asrwt>0</asrwt>
<pdfrwt beam="1">  1        2 0.16739186E+00 0.13628441E+04</pdfrwt>
<pdfrwt beam="2">  1       -2 0.65655536E-01 0.13628441E+04</pdfrwt>
<totfact> 0.46209945E+01</totfact>
</mgrwt>
</event>
<event>
 6    1  0.2238133E-007  0.2141899E+04  0.7818608E-02  0.8543008E-01
         -2   -1    0    0    0  501 -0.00000000000E+00  0.00000000000E+00  0.21000856002E+04  0.21000856002E+04  0.00000000000E+00 0.  1.
          2   -1    0    0  501    0  0.00000000000E+00 -0.00000000000E+00 -0.54613629372E+03  0.54613629372E+03  0.00000000000E+00 0. -1.
         23    2    1    2    0    0 -0.53458123799E+03 -0.64753504471E+03 -0.38919566111E+02  0.84558034731E+03  0.91720537494E+02 0.  0.
         11    1    3    3    0    0 -0.34645899433E+03 -0.48043226096E+03 -0.43467687825E+02  0.59391786638E+03  0.00000000000E+00 0. -1.
        -11    1    3    3    0    0 -0.18812224367E+03 -0.16710278374E+03  0.45481217137E+01  0.25166248093E+03  0.00000000000E+00 0.  1.
         22    1    1    2    0    0  0.53458123799E+03  0.64753504471E+03  0.15928688726E+04  0.18006415466E+04  0.00000000000E+00 0.  1.
<mgrwt>
<rscale>  0 0.21418991E+04</rscale>
<asrwt>0</asrwt>
<pdfrwt beam="1">  1        2 0.84020969E-01 0.21418991E+04</pdfrwt>
<pdfrwt beam="2">  1       -2 0.32309009E+00 0.21418991E+04</pdfrwt>
<totfact> 0.11695690E+00</totfact>
</mgrwt>
</event>
<event>
 6    1  0.2238133E-007  0.5316264E+04  0.7818608E-02  0.7781490E-01
          2   -1    0    0  501    0  0.00000000000E+00  0.00000000000E+00  0.27098114150E+04  0.27098114150E+04  0.00000000000E+00 0. -1.
         -2   -1    0    0    0  501 -0.00000000000E+00 -0.00000000000E+00 -0.26074377435E+04  0.26074377435E+04  0.00000000000E+00 0.  1.
         23    2    1    2    0    0 -0.15059355761E+04 -0.13607514279E+04  0.17668586775E+04  0.26923688293E+04  0.87028265395E+02 0.  0.
         13    1    3    3    0    0 -0.99145065883E+03 -0.84971831902E+03  0.11673701347E+04  0.17514989757E+04  0.00000000000E+00 0. -1.
        -13    1    3    3    0    0 -0.51448491723E+03 -0.51103310888E+03  0.59948854281E+03  0.94086985359E+03  0.00000000000E+00 0.  1.
         22    1    1    2    0    0  0.15059355761E+04  0.13607514279E+04 -0.16644850060E+04  0.26248803292E+04  0.00000000000E+00 0.  1.
<mgrwt>
<rscale>  0 0.53162636E+04</rscale>
<asrwt>0</asrwt>
<pdfrwt beam="1">  1        2 0.41689407E+00 0.53162636E+04</pdfrwt>
<pdfrwt beam="2">  1       -2 0.40114427E+00 0.53162636E+04</pdfrwt>
<totfact> 0.13583524E-02</totfact>
</mgrwt>
</event>
<event>
 6    1  0.2238133E-007  0.4562257E+04  0.7818608E-02  0.7899827E-01
         -2   -1    0    0    0  501 -0.00000000000E+00  0.00000000000E+00  0.14069192620E+04  0.14069192620E+04  0.00000000000E+00 0.  1.
          2   -1    0    0  501    0  0.00000000000E+00 -0.00000000000E+00 -0.36985404033E+04  0.36985404033E+04  0.00000000000E+00 0. -1.
         23    2    1    2    0    0 -0.49669999083E+03  0.93690069596E+03  0.11127034258E+04  0.15398013034E+04  0.91571531326E+02 0.  0.
         13    1    3    3    0    0 -0.13683022994E+03  0.28730547888E+03  0.27782970048E+03  0.42244087454E+03  0.00000000000E+00 0. -1.
        -13    1    3    3    0    0 -0.35986976089E+03  0.64959521708E+03  0.83487372529E+03  0.11173604289E+04  0.00000000000E+00 0.  1.
         22    1    1    2    0    0  0.49669999083E+03 -0.93690069596E+03 -0.34043245671E+04  0.35656583618E+04  0.00000000000E+00 0. -1.
<mgrwt>
<rscale>  0 0.45622572E+04</rscale>
<asrwt>0</asrwt>
<pdfrwt beam="1">  1        2 0.56900622E+00 0.45622572E+04</pdfrwt>
<pdfrwt beam="2">  1       -2 0.21644911E+00 0.45622572E+04</pdfrwt>
<totfact> 0.45803062E-02</totfact>
</mgrwt>
</event>
<event>
 6    1  0.2238133E-007  0.3998041E+04  0.7818608E-02  0.8004942E-01
         -2   -1    0    0    0  501 -0.00000000000E+00  0.00000000000E+00  0.11879691349E+04  0.11879691349E+04  0.00000000000E+00 0.  1.
          2   -1    0    0  501    0  0.00000000000E+00 -0.00000000000E+00 -0.33637940515E+04  0.33637940515E+04  0.00000000000E+00 0. -1.
         23    2    1    2    0    0  0.77378214209E+03  0.88753525298E+02  0.10062683753E+04  0.12757391160E+04  0.91204481117E+02 0.  0.
         11    1    3    3    0    0  0.53730612636E+03  0.48171517799E+02  0.75915402185E+03  0.93130725190E+03  0.00000000000E+00 0. -1.
        -11    1    3    3    0    0  0.23647601573E+03  0.40582007499E+02  0.24711435345E+03  0.34443186413E+03  0.00000000000E+00 0.  1.
         22    1    1    2    0    0 -0.77378214209E+03 -0.88753525298E+02 -0.31820932919E+04  0.32760240704E+04  0.00000000000E+00 0. -1.
<mgrwt>
<rscale>  0 0.39980413E+04</rscale>
<asrwt>0</asrwt>
<pdfrwt beam="1">  1        2 0.51750677E+00 0.39980413E+04</pdfrwt>
<pdfrwt beam="2">  1       -2 0.18276448E+00 0.39980413E+04</pdfrwt>
<totfact> 0.13797632E-01</totfact>
</mgrwt>
</event>
<event>
 6    1  0.2238133E-007  0.1071835E+04  0.7818608E-02  0.9233087E-01
          2   -1    0    0  501    0  0.00000000000E+00  0.00000000000E+00  0.62021762865E+03  0.62021762865E+03  0.00000000000E+00 0. -1.
         -2   -1    0    0    0  501 -0.00000000000E+00 -0.00000000000E+00 -0.46307512304E+03  0.46307512304E+03  0.00000000000E+00 0.  1.
         23    2    1    2    0    0  0.24250679060E+03 -0.27428425448E+03 -0.31064280853E+03  0.48926876576E+03  0.94040283445E+02 0.  0.
         11    1    3    3    0    0  0.14982410380E+02 -0.67225720201E+02 -0.40782116696E+02  0.80043432707E+02  0.00000000000E+00 0. -1.
        -11    1    3    3    0    0  0.22752438022E+03 -0.20705853428E+03 -0.26986069183E+03  0.40922533305E+03  0.00000000000E+00 0.  1.
         22    1    1    2    0    0 -0.24250679060E+03  0.27428425448E+03  0.46778531413E+03  0.59402398593E+03  0.00000000000E+00 0. -1.
<mgrwt>
<rscale>  0 0.10718346E+04</rscale>
<asrwt>0</asrwt>
<pdfrwt beam="1">  1        2 0.95418097E-01 0.10718346E+04</pdfrwt>
<pdfrwt beam="2">  1       -2 0.71242327E-01 0.10718346E+04</pdfrwt>
<totfact> 0.84789581E+01</totfact>
</mgrwt>
</event>
<event>
 6    1  0.2238133E-007  0.4375735E+04  0.7818608E-02  0.7932760E-01
         -2   -1    0    0    0  501 -0.00000000000E+00  0.00000000000E+00  0.18071550803E+04  0.18071550803E+04  0.00000000000E+00 0.  1.
          2   -1    0    0  501    0  0.00000000000E+00 -0.00000000000E+00 -0.26487849177E+04  0.26487849177E+04  0.00000000000E+00 0. -1.
         23    2    1    2    0    0  0.19667416049E+04  0.75840952169E+03 -0.10143171394E+04  0.23409746443E+04  0.89808034042E+02 0.  0.
         11    1    3    3    0    0  0.94563251853E+03  0.41228244292E+03 -0.50301705269E+03  0.11477037197E+04  0.00000000000E+00 0. -1.
        -11    1    3    3    0    0  0.10211090863E+04  0.34612707877E+03 -0.51130008671E+03  0.11932709246E+04  0.00000000000E+00 0.  1.
         22    1    1    2    0    0 -0.19667416049E+04 -0.75840952169E+03  0.17268730201E+03  0.21149653537E+04  0.00000000000E+00 0. -1.
<mgrwt>
<rscale>  0 0.43757354E+04</rscale>
<asrwt>0</asrwt>
<pdfrwt beam="1">  1        2 0.40750537E+00 0.43757354E+04</pdfrwt>
<pdfrwt beam="2">  1       -2 0.27802386E+00 0.43757354E+04</pdfrwt>
<totfact> 0.94374862E-02</totfact>
</mgrwt>
</event>
<event>
 6    1  0.2238133E-007  0.1651042E+04  0.7818608E-02  0.8789790E-01
          2   -1    0    0  501    0  0.00000000000E+00  0.00000000000E+00  0.76700122905E+03  0.76700122905E+03  0.00000000000E+00 0. -1.
         -2   -1    0    0    0  501 -0.00000000000E+00 -0.00000000000E+00 -0.88850558729E+03  0.88850558729E+03  0.00000000000E+00 0.  1.
         23    2    1    2    0    0  0.55358313128E+01  0.81903195414E+03  0.19246658814E+02  0.82445035850E+03  0.92216985556E+02 0.  0.
         13    1    3    3    0    0  0.28560497316E+02  0.34915809168E+03 -0.29122578540E+02  0.35153264368E+03  0.00000000000E+00 0. -1.
        -13    1    3    3    0    0 -0.23024666003E+02  0.46987386245E+03  0.48369237354E+02  0.47291771481E+03  0.00000000000E+00 0.  1.
         22    1    1    2    0    0 -0.55358313128E+01 -0.81903195414E+03 -0.14075101705E+03  0.83105645785E+03  0.00000000000E+00 0.  1.
<mgrwt>
<rscale>  0 0.16510419E+04</rscale>
<asrwt>0</asrwt>
<pdfrwt beam="1">  1        2 0.11800019E+00 0.16510419E+04</pdfrwt>
<pdfrwt beam="2">  1       -2 0.13669317E+00 0.16510419E+04</pdfrwt>
<totfact> 0.13288287E+01</totfact>
</mgrwt>
</event>
<event>
 6    1  0.2238133E-007  0.2696186E+04  0.7818608E-02  0.8336244E-01
         -2   -1    0    0    0  501 -0.00000000000E+00  0.00000000000E+00  0.43917389215E+03  0.43917389215E+03  0.00000000000E+00 0.  1.
          2   -1    0    0  501    0  0.00000000000E+00 -0.00000000000E+00 -0.41381207132E+04  0.41381207132E+04  0.00000000000E+00 0. -1.
         23    2    1    2    0    0  0.17946623273E+03  0.28334526090E+03 -0.40653672179E+04  0.40805486211E+04  0.10570603919E+03 0.  0.
         11    1    3    3    0    0  0.97922402650E+02  0.20343883728E+03 -0.31515567392E+04  0.31596338455E+04  0.00000000000E+00 0.  1.
        -11    1    3    3    0    0  0.81543830077E+02  0.79906423616E+02 -0.91381047878E+03  0.92091477559E+03  0.00000000000E+00 0. -1.
         22    1    1    2    0    0 -0.17946623273E+03 -0.28334526090E+03  0.36642039693E+03  0.49674598423E+03  0.00000000000E+00 0.  1.
<mgrwt>
<rscale>  0 0.26961859E+04</rscale>
<asrwt>0</asrwt>
<pdfrwt beam="1">  1        2 0.63663394E+00 0.26961859E+04</pdfrwt>
<pdfrwt beam="2">  1       -2 0.67565216E-01 0.26961859E+04</pdfrwt>
<totfact> 0.46394727E-01</totfact>
</mgrwt>
</event>
<event>
 6    1  0.2238133E-007  0.5016917E+04  0.7818608E-02  0.7825903E-01
         -2   -1    0    0    0  501 -0.00000000000E+00  0.00000000000E+00  0.17270428550E+04  0.17270428550E+04  0.00000000000E+00 0.  1.
          2   -1    0    0  501    0  0.00000000000E+00 -0.00000000000E+00 -0.36434324354E+04  0.36434324354E+04  0.00000000000E+00 0. -1.
         23    2    1    2    0    0  0.15954147076E+03 -0.32127008581E+03 -0.36153268495E+04  0.36340836889E+04  0.85487309102E+02 0.  0.
         11    1    3    3    0    0  0.96102606990E+02 -0.27181445276E+03 -0.28361802619E+04  0.28507959039E+04  0.00000000000E+00 0. -1.
        -11    1    3    3    0    0  0.63438863773E+02 -0.49455633049E+02 -0.77914658763E+03  0.78328778497E+03  0.00000000000E+00 0.  1.
         22    1    1    2    0    0 -0.15954147076E+03  0.32127008581E+03  0.16989372691E+04  0.17363916014E+04  0.00000000000E+00 0.  1.
<mgrwt>
<rscale>  0 0.50169170E+04</rscale>
<asrwt>0</asrwt>
<pdfrwt beam="1">  1        2 0.56052807E+00 0.50169170E+04</pdfrwt>
<pdfrwt beam="2">  1       -2 0.26569890E+00 0.50169170E+04</pdfrwt>
<totfact> 0.23979380E-02</totfact>
</mgrwt>
</event>
<event>
 6    1  0.2238133E-007  0.3402783E+04  0.7818608E-02  0.8137224E-01
         -2   -1    0    0    0  501 -0.00000000000E+00  0.00000000000E+00  0.74777511971E+03  0.74777511971E+03  0.00000000000E+00 0.  1.
          2   -1    0    0  501    0  0.00000000000E+00 -0.00000000000E+00 -0.38711287031E+04  0.38711287031E+04  0.00000000000E+00 0. -1.
         23    2    1    2    0    0 -0.63424401321E+02  0.67451068073E+03 -0.36794690518E+04  0.37424041210E+04  0.90048810121E+02 0.  0.
         11    1    3    3    0    0 -0.69872092047E+02  0.29539078719E+03 -0.17221403009E+04  0.17486866621E+04  0.00000000000E+00 0.  1.
        -11    1    3    3    0    0  0.64476907268E+01  0.37911989355E+03 -0.19573287509E+04  0.19937174588E+04  0.00000000000E+00 0. -1.
         22    1    1    2    0    0  0.63424401321E+02 -0.67451068073E+03  0.55611546843E+03  0.87649970185E+03  0.00000000000E+00 0.  1.
<mgrwt>
<rscale>  0 0.34027834E+04</rscale>
<asrwt>0</asrwt>
<pdfrwt beam="1">  1        2 0.59555827E+00 0.34027834E+04</pdfrwt>
<pdfrwt beam="2">  1       -2 0.11504233E+00 0.34027834E+04</pdfrwt>
<totfact> 0.21081199E-01</totfact>
</mgrwt>
</event>
<event>
 6    1  0.2238133E-007  0.2111630E+04  0.7818608E-02  0.8556137E-01
          2   -1    0    0  501    0  0.00000000000E+00  0.00000000000E+00  0.69166278140E+03  0.69166278140E+03  0.00000000000E+00 0. -1.
         -2   -1    0    0    0  501 -0.00000000000E+00 -0.00000000000E+00 -0.16116896635E+04  0.16116896635E+04  0.00000000000E+00 0.  1.
         23    2    1    2    0    0 -0.28515391189E+03  0.73655467966E+03  0.30018381988E+03  0.84982580022E+03  0.90928628112E+02 0.  0.
         13    1    3    3    0    0 -0.10715201055E+03  0.23766274992E+03  0.14277040086E+03  0.29723479511E+03  0.00000000000E+00 0.  1.
        -13    1    3    3    0    0 -0.17800190134E+03  0.49889192974E+03  0.15741341902E+03  0.55259100511E+03  0.00000000000E+00 0. -1.
         22    1    1    2    0    0  0.28515391189E+03 -0.73655467966E+03 -0.12202107020E+04  0.14535266447E+04  0.00000000000E+00 0.  1.
<mgrwt>
<rscale>  0 0.21116304E+04</rscale>
<asrwt>0</asrwt>
<pdfrwt beam="1">  1        2 0.10640966E+00 0.21116304E+04</pdfrwt>
<pdfrwt beam="2">  1       -2 0.24795225E+00 0.21116304E+04</pdfrwt>
<totfact> 0.25331450E+00</totfact>
</mgrwt>
</event>
<event>
 6    1  0.2238133E-007  0.9496195E+03  0.7818608E-02  0.9365595E-01
         -2   -1    0    0    0  501 -0.00000000000E+00  0.00000000000E+00  0.10315832718E+03  0.10315832718E+03  0.00000000000E+00 0.  1.
          2   -1    0    0  501    0  0.00000000000E+00 -0.00000000000E+00 -0.21854204722E+04  0.21854204722E+04  0.00000000000E+00 0. -1.
         23    2    1    2    0    0 -0.21938500289E+03 -0.23101281966E+03 -0.21134584720E+03  0.39073146732E+03  0.80667899956E+02 0.  0.
         11    1    3    3    0    0 -0.21971337390E+03 -0.21433598489E+03 -0.21352809883E+03  0.37390925380E+03  0.00000000000E+00 0.  1.
        -11    1    3    3    0    0  0.32837100935E+00 -0.16676834770E+02  0.21822516264E+01  0.16822213518E+02  0.00000000000E+00 0. -1.
         22    1    1    2    0    0  0.21938500289E+03  0.23101281966E+03 -0.18709162978E+04  0.18978473321E+04  0.00000000000E+00 0. -1.
<mgrwt>
<rscale>  0 0.94961955E+03</rscale>
<asrwt>0</asrwt>
<pdfrwt beam="1">  1        2 0.33621852E+00 0.94961955E+03</pdfrwt>
<pdfrwt beam="2">  1       -2 0.15870513E-01 0.94961955E+03</pdfrwt>
<totfact> 0.16939524E+02</totfact>
</mgrwt>
</event>
<event>
 6    1  0.2238133E-007  0.5999447E+03  0.7818608E-02  0.9905521E-01
         -2   -1    0    0    0  501 -0.00000000000E+00  0.00000000000E+00  0.13030682803E+03  0.13030682803E+03  0.00000000000E+00 0.  1.
          2   -1    0    0  501    0  0.00000000000E+00 -0.00000000000E+00 -0.69055027456E+03  0.69055027456E+03  0.00000000000E+00 0. -1.
         23    2    1    2    0    0  0.13991618884E+03  0.24841148047E+03 -0.18896201185E+03  0.35273884053E+03  0.86216263944E+02 0.  0.
         11    1    3    3    0    0  0.50381691764E+02  0.57777964274E+02 -0.95120898148E+02  0.12216625264E+03  0.00000000000E+00 0. -1.
        -11    1    3    3    0    0  0.89534497077E+02  0.19063351620E+03 -0.93841113698E+02  0.23057258789E+03  0.00000000000E+00 0.  1.
         22    1    1    2    0    0 -0.13991618884E+03 -0.24841148047E+03 -0.37128143469E+03  0.46811826206E+03  0.00000000000E+00 0. -1.
<mgrwt>
<rscale>  0 0.59994472E+03</rscale>
<asrwt>0</asrwt>
<pdfrwt beam="1">  1        2 0.10623850E+00 0.59994472E+03</pdfrwt>
<pdfrwt beam="2">  1       -2 0.20047205E-01 0.59994472E+03</pdfrwt>
<totfact> 0.89007033E+02</totfact>
</mgrwt>
</event>
<event>
 6    1  0.2463731E-007  0.3098397E+04  0.7818608E-02  0.8216178E-01
         -2   -1    0    0    0  501 -0.00000000000E+00  0.00000000000E+00  0.17396738819E+04  0.17396738819E+04  0.00000000000E+00 0.  1.
          2   -1    0    0  501    0  0.00000000000E+00 -0.00000000000E+00 -0.13795781686E+04  0.13795781686E+04  0.00000000000E+00 0. -1.
         23    2    1    2    0    0  0.52740734000E+03  0.38574421068E+03  0.15927845201E+04  0.17240894103E+04  0.92545495741E+02 0.  0.
         13    1    3    3    0    0  0.10007606014E+03  0.32426174500E+02  0.27231588922E+03  0.29192913203E+03  0.00000000000E+00 0.  1.
        -13    1    3    3    0    0  0.42733127986E+03  0.35331803618E+03  0.13204686309E+04  0.14321602782E+04  0.00000000000E+00 0. -1.
         22    1    1    2    0    0 -0.52740734000E+03 -0.38574421068E+03 -0.12326888068E+04  0.13951626402E+04  0.00000000000E+00 0. -1.
<mgrwt>
<rscale>  0 0.30983971E+04</rscale>
<asrwt>0</asrwt>
<pdfrwt beam="1">  1        2 0.21224279E+00 0.30983971E+04</pdfrwt>
<pdfrwt beam="2">  1       -2 0.26764214E+00 0.30983971E+04</pdfrwt>
<totfact> 0.63245613E-01</totfact>
</mgrwt>
</event>
<event>
 6    1  0.2238133E-007  0.1302667E+04  0.7818608E-02  0.9027453E-01
         -2   -1    0    0    0  501 -0.00000000000E+00  0.00000000000E+00  0.30592322014E+03  0.30592322014E+03  0.00000000000E+00 0.  1.
          2   -1    0    0  501    0  0.00000000000E+00 -0.00000000000E+00 -0.13867373824E+04  0.13867373824E+04  0.00000000000E+00 0. -1.
         23    2    1    2    0    0 -0.34974776588E+03  0.17419253872E+03  0.12959713288E+03  0.42074785251E+03  0.86987345406E+02 0.  0.
         13    1    3    3    0    0 -0.33466831326E+03  0.17339371890E+03  0.10395918449E+03  0.39099331669E+03  0.00000000000E+00 0. -1.
        -13    1    3    3    0    0 -0.15079452612E+02  0.79881981970E+00  0.25637948391E+02  0.29754535820E+02  0.00000000000E+00 0.  1.
         22    1    1    2    0    0  0.34974776588E+03 -0.17419253872E+03 -0.12104112952E+04  0.12719127500E+04  0.00000000000E+00 0. -1.
<mgrwt>
<rscale>  0 0.13026668E+04</rscale>
<asrwt>0</asrwt>
<pdfrwt beam="1">  1        2 0.21334421E+00 0.13026668E+04</pdfrwt>
<pdfrwt beam="2">  1       -2 0.47065111E-01 0.13026668E+04</pdfrwt>
<totfact> 0.61733257E+01</totfact>
</mgrwt>
</event>
<event>
 6    1  0.2238133E-007  0.5558626E+03  0.7818608E-02  0.1000146E+00
         -2   -1    0    0    0  501 -0.00000000000E+00  0.00000000000E+00  0.98198514231E+02  0.98198514231E+02  0.00000000000E+00 0.  1.
          2   -1    0    0  501    0  0.00000000000E+00 -0.00000000000E+00 -0.78662902410E+03  0.78662902410E+03  0.00000000000E+00 0. -1.
         23    2    1    2    0    0 -0.90647564162E+02 -0.33849644845E+02 -0.75540867200E+03  0.76714638627E+03  0.92241730749E+02 0.  0.
         11    1    3    3    0    0 -0.27527084626E+02  0.27669579512E+02 -0.35570259259E+03  0.35783750557E+03  0.00000000000E+00 0. -1.
        -11    1    3    3    0    0 -0.63120479536E+02 -0.61519224357E+02 -0.39970607941E+03  0.40930888070E+03  0.00000000000E+00 0.  1.
         22    1    1    2    0    0  0.90647564162E+02  0.33849644845E+02  0.66978162140E+02  0.11768115205E+03  0.00000000000E+00 0.  1.
<mgrwt>
<rscale>  0 0.55586258E+03</rscale>
<asrwt>0</asrwt>
<pdfrwt beam="1">  1        2 0.12101985E+00 0.55586258E+03</pdfrwt>
<pdfrwt beam="2">  1       -2 0.15107464E-01 0.55586258E+03</pdfrwt>
<totfact> 0.12246129E+03</totfact>
</mgrwt>
</event>
<event>
 6    1  0.2238133E-007  0.1074316E+04  0.7818608E-02  0.9230593E-01
          2   -1    0    0  501    0  0.00000000000E+00  0.00000000000E+00  0.38925958894E+03  0.38925958894E+03  0.00000000000E+00 0. -1.
         -2   -1    0    0    0  501 -0.00000000000E+00 -0.00000000000E+00 -0.74125027929E+03  0.74125027929E+03  0.00000000000E+00 0.  1.
         23    2    1    2    0    0 -0.43825690368E+02 -0.52420250327E+03 -0.26519985012E+03  0.59736673030E+03  0.99030774937E+02 0.  0.
         11    1    3    3    0    0 -0.13226596757E+02 -0.28444301035E+03 -0.89272800485E+02  0.29841649067E+03  0.00000000000E+00 0.  1.
        -11    1    3    3    0    0 -0.30599093611E+02 -0.23975949293E+03 -0.17592704964E+03  0.29895023963E+03  0.00000000000E+00 0. -1.
         22    1    1    2    0    0  0.43825690368E+02  0.52420250327E+03 -0.86790840228E+02  0.53314313793E+03  0.00000000000E+00 0. -1.
<mgrwt>
<rscale>  0 0.10743161E+04</rscale>
<asrwt>0</asrwt>
<pdfrwt beam="1">  1        2 0.59886091E-01 0.10743161E+04</pdfrwt>
<pdfrwt beam="2">  1       -2 0.11403850E+00 0.10743161E+04</pdfrwt>
<totfact> 0.49064292E+01</totfact>
</mgrwt>
</event>
<event>
 6    1  0.2238133E-007  0.4615768E+04  0.7818608E-02  0.7890677E-01
          2   -1    0    0  501    0  0.00000000000E+00  0.00000000000E+00  0.26075839253E+04  0.26075839253E+04  0.00000000000E+00 0. -1.
         -2   -1    0    0    0  501 -0.00000000000E+00 -0.00000000000E+00 -0.20426299683E+04  0.20426299683E+04  0.00000000000E+00 0.  1.
         23    2    1    2    0    0  0.37145728420E+03 -0.10788009071E+04  0.23027122250E+04  0.25713690920E+04  0.87541447946E+02 0.  0.
         13    1    3    3    0    0  0.30455196350E+03 -0.78954904966E+03  0.16524276690E+04  0.18565173852E+04  0.00000000000E+00 0. -1.
        -13    1    3    3    0    0  0.66905320699E+02 -0.28925185747E+03  0.65028455603E+03  0.71485170685E+03  0.00000000000E+00 0.  1.
         22    1    1    2    0    0 -0.37145728420E+03  0.10788009071E+04 -0.17377582680E+04  0.20788448016E+04  0.00000000000E+00 0.  1.
<mgrwt>
<rscale>  0 0.46157682E+04</rscale>
<asrwt>0</asrwt>
<pdfrwt beam="1">  1        2 0.40116676E+00 0.46157682E+04</pdfrwt>
<pdfrwt beam="2">  1       -2 0.31425076E+00 0.46157682E+04</pdfrwt>
<totfact> 0.58745142E-02</totfact>
</mgrwt>
</event>
<event>
 6    1  0.2238133E-007  0.6550648E+04  0.7818608E-02  0.7625640E-01
         -1   -1    0    0    0  501 -0.00000000000E+00  0.00000000000E+00  0.32442301269E+04  0.32442301269E+04  0.00000000000E+00 0.  1.
          1   -1    0    0  501    0  0.00000000000E+00 -0.00000000000E+00 -0.33067162720E+04  0.33067162720E+04  0.00000000000E+00 0. -1.
         23    2    1    2    0    0  0.60877384999E+03  0.17505565994E+04  0.26686394633E+04  0.32503250790E+04  0.89008572333E+02 0.  0.
         11    1    3    3    0    0  0.37617365518E+03  0.11610384934E+04  0.16977400896E+04  0.20908941662E+04  0.00000000000E+00 0.  1.
        -11    1    3    3    0    0  0.23260019481E+03  0.58951810598E+03  0.97089937363E+03  0.11594309128E+04  0.00000000000E+00 0. -1.
         22    1    1    2    0    0 -0.60877384999E+03 -0.17505565994E+04 -0.27311256084E+04  0.33006213198E+04  0.00000000000E+00 0. -1.
<mgrwt>
<rscale>  0 0.65506484E+04</rscale>
<asrwt>0</asrwt>
<pdfrwt beam="1">  1        1 0.50872558E+00 0.65506484E+04</pdfrwt>
<pdfrwt beam="2">  1       -1 0.49911233E+00 0.65506484E+04</pdfrwt>
<totfact> 0.34540182E-04</totfact>
</mgrwt>
</event>
<event>
 6    1  0.2238133E-007  0.2279286E+04  0.7818608E-02  0.8486133E-01
          2   -1    0    0  501    0  0.00000000000E+00  0.00000000000E+00  0.22186546497E+04  0.22186546497E+04  0.00000000000E+00 0. -1.
         -2   -1    0    0    0  501 -0.00000000000E+00 -0.00000000000E+00 -0.58539362358E+03  0.58539362358E+03  0.00000000000E+00 0.  1.
         23    2    1    2    0    0  0.86827295299E+03  0.58140341982E+03  0.26412723718E+03  0.10817082402E+04  0.91660580960E+02 0.  0.
         11    1    3    3    0    0  0.29650695258E+03  0.23592680672E+03  0.63528094510E+02  0.38420521840E+03  0.00000000000E+00 0. -1.
        -11    1    3    3    0    0  0.57176600041E+03  0.34547661310E+03  0.20059914267E+03  0.69750302183E+03  0.00000000000E+00 0.  1.
         22    1    1    2    0    0 -0.86827295299E+03 -0.58140341982E+03  0.13691337890E+04  0.17223400331E+04  0.00000000000E+00 0. -1.
<mgrwt>
<rscale>  0 0.22792861E+04</rscale>
<asrwt>0</asrwt>
<pdfrwt beam="1">  1        2 0.34133148E+00 0.22792861E+04</pdfrwt>
<pdfrwt beam="2">  1       -2 0.90060558E-01 0.22792861E+04</pdfrwt>
<totfact> 0.48292789E+00</totfact>
</mgrwt>
</event>
<event>
 6    1  0.2238133E-007  0.4029717E+04  0.7818608E-02  0.7998578E-01
          2   -1    0    0  501    0  0.00000000000E+00  0.00000000000E+00  0.30784579527E+04  0.30784579527E+04  0.00000000000E+00 0. -1.
         -2   -1    0    0    0  501 -0.00000000000E+00 -0.00000000000E+00 -0.13187302542E+04  0.13187302542E+04  0.00000000000E+00 0.  1.
         23    2    1    2    0    0 -0.70780209726E+02  0.18862343127E+04  0.16465864961E+04  0.25062385375E+04  0.84230619467E+02 0.  0.
         13    1    3    3    0    0 -0.17093650309E+02  0.47288503148E+03  0.36516706924E+03  0.59771183218E+03  0.00000000000E+00 0.  1.
        -13    1    3    3    0    0 -0.53686559417E+02  0.14133492812E+04  0.12814194269E+04  0.19085267054E+04  0.00000000000E+00 0. -1.
         22    1    1    2    0    0  0.70780209726E+02 -0.18862343127E+04  0.11314120238E+03  0.18909496694E+04  0.00000000000E+00 0.  1.
<mgrwt>
<rscale>  0 0.40297174E+04</rscale>
<asrwt>0</asrwt>
<pdfrwt beam="1">  1        2 0.47360891E+00 0.40297174E+04</pdfrwt>
<pdfrwt beam="2">  1       -2 0.20288158E+00 0.40297174E+04</pdfrwt>
<totfact> 0.15554896E-01</totfact>
</mgrwt>
</event>
<event>
 6    1  0.2238133E-007  0.2904866E+04  0.7818608E-02  0.8271431E-01
          2   -1    0    0  501    0  0.00000000000E+00  0.00000000000E+00  0.13905465681E+04  0.13905465681E+04  0.00000000000E+00 0. -1.
         -2   -1    0    0    0  501 -0.00000000000E+00 -0.00000000000E+00 -0.15170734106E+04  0.15170734106E+04  0.00000000000E+00 0.  1.
         23    2    1    2    0    0  0.94121741094E+03 -0.79563914007E+03 -0.83006151189E+03  0.14885030396E+04  0.87791398314E+02 0.  0.
         13    1    3    3    0    0  0.20784877283E+03 -0.13873509142E+03 -0.19393512133E+03  0.31632162311E+03  0.00000000000E+00 0.  1.
        -13    1    3    3    0    0  0.73336863811E+03 -0.65690404865E+03 -0.63612639055E+03  0.11721814165E+04  0.00000000000E+00 0. -1.
         22    1    1    2    0    0 -0.94121741094E+03  0.79563914007E+03  0.70353466942E+03  0.14191169391E+04  0.00000000000E+00 0. -1.
<mgrwt>
<rscale>  0 0.29048657E+04</rscale>
<asrwt>0</asrwt>
<pdfrwt beam="1">  1        2 0.21393024E+00 0.29048657E+04</pdfrwt>
<pdfrwt beam="2">  1       -2 0.23339591E+00 0.29048657E+04</pdfrwt>
<totfact> 0.10292608E+00</totfact>
</mgrwt>
</event>
<event>
 6    1  0.2238133E-007  0.4138888E+04  0.7818608E-02  0.7977100E-01
         -2   -1    0    0    0  501 -0.00000000000E+00  0.00000000000E+00  0.13812477034E+04  0.13812477034E+04  0.00000000000E+00 0.  1.
          2   -1    0    0  501    0  0.00000000000E+00 -0.00000000000E+00 -0.31005291130E+04  0.31005291130E+04  0.00000000000E+00 0. -1.
         23    2    1    2    0    0  0.14155800831E+04  0.77529157826E+01 -0.24921456040E+04  0.28689389007E+04  0.12686065299E+03 0.  0.
         13    1    3    3    0    0  0.33535231151E+03  0.32187033832E+02 -0.50567493061E+03  0.60762185068E+03  0.00000000000E+00 0.  1.
        -13    1    3    3    0    0  0.10802277716E+04 -0.24434118049E+02 -0.19864706733E+04  0.22613170500E+04  0.00000000000E+00 0. -1.
         22    1    1    2    0    0 -0.14155800831E+04 -0.77529157826E+01  0.77286419441E+03  0.16128379157E+04  0.00000000000E+00 0.  1.
<mgrwt>
<rscale>  0 0.41388881E+04</rscale>
<asrwt>0</asrwt>
<pdfrwt beam="1">  1        2 0.47700447E+00 0.41388881E+04</pdfrwt>
<pdfrwt beam="2">  1       -2 0.21249965E+00 0.41388881E+04</pdfrwt>
<totfact> 0.12933873E-01</totfact>
</mgrwt>
</event>
<event>
 6    1  0.2238133E-007  0.3421692E+04  0.7818608E-02  0.8132603E-01
         -1   -1    0    0    0  501 -0.00000000000E+00  0.00000000000E+00  0.12899245527E+04  0.12899245527E+04  0.00000000000E+00 0.  1.
          1   -1    0    0  501    0  0.00000000000E+00 -0.00000000000E+00 -0.22691207764E+04  0.22691207764E+04  0.00000000000E+00 0. -1.
         23    2    1    2    0    0  0.14860905451E+04  0.59537620015E+03 -0.11138562497E+04  0.19524740575E+04  0.92419004527E+02 0.  0.
         13    1    3    3    0    0  0.16504364856E+03  0.83994329773E+02 -0.99936852127E+02  0.21043247796E+03  0.00000000000E+00 0.  1.
        -13    1    3    3    0    0  0.13210468965E+04  0.51138187038E+03 -0.10139193976E+04  0.17420415796E+04  0.00000000000E+00 0. -1.
         22    1    1    2    0    0 -0.14860905451E+04 -0.59537620015E+03  0.13466002605E+03  0.16065712715E+04  0.00000000000E+00 0.  1.
<mgrwt>
<rscale>  0 0.34216923E+04</rscale>
<asrwt>0</asrwt>
<pdfrwt beam="1">  1        1 0.34909550E+00 0.34216923E+04</pdfrwt>
<pdfrwt beam="2">  1       -1 0.19844993E+00 0.34216923E+04</pdfrwt>
<totfact> 0.24753755E-01</totfact>
</mgrwt>
</event>
<event>
 6    1  0.2238133E-007  0.1403269E+04  0.7818608E-02  0.8951456E-01
         -2   -1    0    0    0  501 -0.00000000000E+00  0.00000000000E+00  0.17879730188E+04  0.17879730188E+04  0.00000000000E+00 0.  1.
          2   -1    0    0  501    0  0.00000000000E+00 -0.00000000000E+00 -0.27533450873E+03  0.27533450873E+03  0.00000000000E+00 0. -1.
         23    2    1    2    0    0  0.60884626765E+03 -0.25575785774E+03  0.10948105941E+04  0.12818434997E+04  0.91687847127E+02 0.  0.
         11    1    3    3    0    0  0.10301747679E+03 -0.51611290569E+02  0.13167746188E+03  0.17497222581E+03  0.00000000000E+00 0. -1.
        -11    1    3    3    0    0  0.50582879086E+03 -0.20414656717E+03  0.96313313224E+03  0.11068712739E+04  0.00000000000E+00 0.  1.
         22    1    1    2    0    0 -0.60884626765E+03  0.25575785774E+03  0.41782791593E+03  0.78146402781E+03  0.00000000000E+00 0. -1.
<mgrwt>
<rscale>  0 0.14032686E+04</rscale>
<asrwt>0</asrwt>
<pdfrwt beam="1">  1        2 0.42359156E-01 0.14032686E+04</pdfrwt>
<pdfrwt beam="2">  1       -2 0.27507277E+00 0.14032686E+04</pdfrwt>
<totfact> 0.53211153E+00</totfact>
</mgrwt>
</event>
<event>
 6    1  0.2238133E-007  0.1193855E+04  0.7818608E-02  0.9118252E-01
         -1   -1    0    0    0  501 -0.00000000000E+00  0.00000000000E+00  0.65776275511E+03  0.65776275511E+03  0.00000000000E+00 0.  1.
          1   -1    0    0  501    0  0.00000000000E+00 -0.00000000000E+00 -0.54171883506E+03  0.54171883506E+03  0.00000000000E+00 0. -1.
         23    2    1    2    0    0  0.13819992501E+03  0.26594742802E+03 -0.45609771398E+03  0.55359204610E+03  0.92799650121E+02 0.  0.
         13    1    3    3    0    0  0.15071514178E+03  0.22561827432E+03 -0.38778442532E+03  0.47328154432E+03  0.00000000000E+00 0.  1.
        -13    1    3    3    0    0 -0.12515216771E+02  0.40329153694E+02 -0.68313288664E+02  0.80310501783E+02  0.00000000000E+00 0. -1.
         22    1    1    2    0    0 -0.13819992501E+03 -0.26594742802E+03  0.57214163404E+03  0.64588954407E+03  0.00000000000E+00 0.  1.
<mgrwt>
<rscale>  0 0.11938551E+04</rscale>
<asrwt>0</asrwt>
<pdfrwt beam="1">  1        1 0.83341360E-01 0.11938551E+04</pdfrwt>
<pdfrwt beam="2">  1       -1 0.10119427E+00 0.11938551E+04</pdfrwt>
<totfact> 0.36414120E+01</totfact>
</mgrwt>
</event>
<event>
 6    1  0.2238133E-007  0.3238978E+04  0.7818608E-02  0.8178598E-01
         -2   -1    0    0    0  501 -0.00000000000E+00  0.00000000000E+00  0.79160382787E+03  0.79160382787E+03  0.00000000000E+00 0.  1.
          2   -1    0    0  501    0  0.00000000000E+00 -0.00000000000E+00 -0.33132043039E+04  0.33132043039E+04  0.00000000000E+00 0. -1.
         23    2    1    2    0    0  0.53830510733E+03 -0.44410277477E+03  0.58869973359E+03  0.91718094888E+03  0.87486304801E+02 0.  0.
         11    1    3    3    0    0  0.18542907683E+03 -0.18436923307E+03  0.26608000964E+03  0.37306102472E+03  0.00000000000E+00 0.  1.
        -11    1    3    3    0    0  0.35287603051E+03 -0.25973354169E+03  0.32261972395E+03  0.54411992416E+03  0.00000000000E+00 0. -1.
         22    1    1    2    0    0 -0.53830510733E+03  0.44410277477E+03 -0.31103002096E+04  0.31876271829E+04  0.00000000000E+00 0. -1.
<mgrwt>
<rscale>  0 0.32389784E+04</rscale>
<asrwt>0</asrwt>
<pdfrwt beam="1">  1        2 0.50972374E+00 0.32389784E+04</pdfrwt>
<pdfrwt beam="2">  1       -2 0.12178520E+00 0.32389784E+04</pdfrwt>
<totfact> 0.46835332E-01</totfact>
</mgrwt>
</event>
<event>
 6    1  0.2238133E-007  0.3409865E+04  0.7818608E-02  0.8135489E-01
          2   -1    0    0  501    0  0.00000000000E+00  0.00000000000E+00  0.30100008795E+04  0.30100008795E+04  0.00000000000E+00 0. -1.
         -2   -1    0    0    0  501 -0.00000000000E+00 -0.00000000000E+00 -0.96571240879E+03  0.96571240879E+03  0.00000000000E+00 0.  1.
         23    2    1    2    0    0  0.87308400566E+03 -0.10570141852E+04 -0.15639212520E+03  0.13829252611E+04  0.92027779425E+02 0.  0.
         13    1    3    3    0    0  0.35417376971E+03 -0.40497873840E+03 -0.18847220482E+02  0.53833266241E+03  0.00000000000E+00 0.  1.
        -13    1    3    3    0    0  0.51891023595E+03 -0.65203544685E+03 -0.13754490471E+03  0.84459259868E+03  0.00000000000E+00 0. -1.
         22    1    1    2    0    0 -0.87308400566E+03  0.10570141852E+04  0.22006805959E+04  0.25927880272E+04  0.00000000000E+00 0. -1.
<mgrwt>
<rscale>  0 0.34098652E+04</rscale>
<asrwt>0</asrwt>
<pdfrwt beam="1">  1        2 0.46307705E+00 0.34098652E+04</pdfrwt>
<pdfrwt beam="2">  1       -2 0.14857114E+00 0.34098652E+04</pdfrwt>
<totfact> 0.43624452E-01</totfact>
</mgrwt>
</event>
<event>
 6    1  0.2238133E-007  0.1044259E+04  0.7818608E-02  0.9261292E-01
          2   -1    0    0  501    0  0.00000000000E+00  0.00000000000E+00  0.18203827789E+04  0.18203827789E+04  0.00000000000E+00 0. -1.
         -2   -1    0    0    0  501 -0.00000000000E+00 -0.00000000000E+00 -0.14975922355E+03  0.14975922355E+03  0.00000000000E+00 0.  1.
         23    2    1    2    0    0 -0.46924462285E+03 -0.21211163378E+03  0.83495594371E+03  0.98855032645E+03  0.12205924268E+03 0.  0.
         11    1    3    3    0    0 -0.17128706773E+03 -0.19397101864E+02  0.23382853424E+03  0.29050179097E+03  0.00000000000E+00 0. -1.
        -11    1    3    3    0    0 -0.29795755512E+03 -0.19271453192E+03  0.60112740947E+03  0.69804853548E+03  0.00000000000E+00 0.  1.
         22    1    1    2    0    0  0.46924462285E+03  0.21211163378E+03  0.83566761163E+03  0.98159167600E+03  0.00000000000E+00 0.  1.
<mgrwt>
<rscale>  0 0.10442588E+04</rscale>
<asrwt>0</asrwt>
<pdfrwt beam="1">  1        2 0.28005887E+00 0.10442588E+04</pdfrwt>
<pdfrwt beam="2">  1       -2 0.23039882E-01 0.10442588E+04</pdfrwt>
<totfact> 0.13935137E+02</totfact>
</mgrwt>
</event>
<event>
 6    1  0.2238133E-007  0.1012765E+04  0.7818608E-02  0.9294654E-01
         -2   -1    0    0    0  501 -0.00000000000E+00  0.00000000000E+00  0.54104381222E+03  0.54104381222E+03  0.00000000000E+00 0.  1.
          2   -1    0    0  501    0  0.00000000000E+00 -0.00000000000E+00 -0.47394168747E+03  0.47394168747E+03  0.00000000000E+00 0. -1.
         23    2    1    2    0    0  0.54956345954E+02 -0.87677838245E+02  0.52738346923E+03  0.54321593798E+03  0.79010305487E+02 0.  0.
         13    1    3    3    0    0  0.26340591097E+02 -0.68630390186E+02  0.47437519246E+03  0.48003726982E+03  0.00000000000E+00 0.  1.
        -13    1    3    3    0    0  0.28615754857E+02 -0.19047448059E+02  0.53008276775E+02  0.63178668158E+02  0.00000000000E+00 0. -1.
         22    1    1    2    0    0 -0.54956345954E+02  0.87677838245E+02 -0.46028134448E+03  0.47176956171E+03  0.00000000000E+00 0. -1.
<mgrwt>
<rscale>  0 0.10127650E+04</rscale>
<asrwt>0</asrwt>
<pdfrwt beam="1">  1        2 0.72914106E-01 0.10127650E+04</pdfrwt>
<pdfrwt beam="2">  1       -2 0.83237510E-01 0.10127650E+04</pdfrwt>
<totfact> 0.82670064E+01</totfact>
</mgrwt>
</event>
<event>
 6    1  0.2238133E-007  0.2837146E+04  0.7818608E-02  0.8291828E-01
          2   -1    0    0  501    0  0.00000000000E+00  0.00000000000E+00  0.32291697800E+04  0.32291697800E+04  0.00000000000E+00 0. -1.
         -2   -1    0    0    0  501 -0.00000000000E+00 -0.00000000000E+00 -0.62317851098E+03  0.62317851098E+03  0.00000000000E+00 0.  1.
         23    2    1    2    0    0 -0.10104055900E+04 -0.15250568460E+03  0.26367360453E+04  0.28300358723E+04  0.11202064875E+03 0.  0.
         11    1    3    3    0    0 -0.69731850072E+03 -0.58147028917E+02  0.17311811683E+04  0.18672499581E+04  0.00000000000E+00 0.  1.
        -11    1    3    3    0    0 -0.31308708925E+03 -0.94358655680E+02  0.90555487704E+03  0.96278591425E+03  0.00000000000E+00 0. -1.
         22    1    1    2    0    0  0.10104055900E+04  0.15250568460E+03 -0.30744776323E+02  0.10223124187E+04  0.00000000000E+00 0.  1.
<mgrwt>
<rscale>  0 0.28371459E+04</rscale>
<asrwt>0</asrwt>
<pdfrwt beam="1">  1        2 0.49679534E+00 0.28371459E+04</pdfrwt>
<pdfrwt beam="2">  1       -2 0.95873619E-01 0.28371459E+04</pdfrwt>
<totfact> 0.98162363E-01</totfact>
</mgrwt>
</event>
<event>
 6    1  0.2238133E-007  0.9511479E+03  0.7818608E-02  0.9363810E-01
         -2   -1    0    0    0  501 -0.00000000000E+00  0.00000000000E+00  0.98230027142E+02  0.98230027142E+02  0.00000000000E+00 0.  1.
          2   -1    0    0  501    0  0.00000000000E+00 -0.00000000000E+00 -0.23024588899E+04  0.23024588899E+04  0.00000000000E+00 0. -1.
         23    2    1    2    0    0  0.38833626526E+03 -0.76367640929E+02 -0.17576719024E+04  0.18039895033E+04  0.91271792317E+02 0.  0.
         13    1    3    3    0    0  0.46195162159E+02 -0.23419070314E+02 -0.37846441435E+03  0.38199183079E+03  0.00000000000E+00 0. -1.
        -13    1    3    3    0    0  0.34214110310E+03 -0.52948570615E+02 -0.13792074881E+04  0.14219976725E+04  0.00000000000E+00 0.  1.
         22    1    1    2    0    0 -0.38833626526E+03  0.76367640929E+02 -0.44655696033E+03  0.59669941370E+03  0.00000000000E+00 0.  1.
<mgrwt>
<rscale>  0 0.95114794E+03</rscale>
<asrwt>0</asrwt>
<pdfrwt beam="1">  1        2 0.35422441E+00 0.95114794E+03</pdfrwt>
<pdfrwt beam="2">  1       -2 0.15112313E-01 0.95114794E+03</pdfrwt>
<totfact> 0.15844520E+02</totfact>
</mgrwt>
</event>
<event>
 6    1  0.2238133E-007  0.1157486E+04  0.7818608E-02  0.9150905E-01
          2   -1    0    0  501    0  0.00000000000E+00  0.00000000000E+00  0.10154039559E+04  0.10154039559E+04  0.00000000000E+00 0. -1.
         -2   -1    0    0    0  501 -0.00000000000E+00 -0.00000000000E+00 -0.32986218346E+03  0.32986218346E+03  0.00000000000E+00 0.  1.
         23    2    1    2    0    0 -0.33972877433E+03 -0.42628400996E+03  0.55794815904E+03  0.78543238953E+03  0.92001049368E+02 0.  0.
         11    1    3    3    0    0 -0.19533193059E+03 -0.17559566563E+03  0.28731347178E+03  0.38927809078E+03  0.00000000000E+00 0.  1.
        -11    1    3    3    0    0 -0.14439684374E+03 -0.25068834434E+03  0.27063468726E+03  0.39615429875E+03  0.00000000000E+00 0. -1.
         22    1    1    2    0    0  0.33972877433E+03  0.42628400996E+03  0.12759361339E+03  0.55983374982E+03  0.00000000000E+00 0. -1.
<mgrwt>
<rscale>  0 0.11574858E+04</rscale>
<asrwt>0</asrwt>
<pdfrwt beam="1">  1        2 0.15621599E+00 0.11574858E+04</pdfrwt>
<pdfrwt beam="2">  1       -2 0.50748028E-01 0.11574858E+04</pdfrwt>
<totfact> 0.89414559E+01</totfact>
</mgrwt>
</event>
<event>
 6    1  0.2238133E-007  0.1767326E+04  0.7818608E-02  0.8723870E-01
          2   -1    0    0  501    0  0.00000000000E+00  0.00000000000E+00  0.18210098164E+04  0.18210098164E+04  0.00000000000E+00 0. -1.
         -2   -1    0    0    0  501 -0.00000000000E+00 -0.00000000000E+00 -0.42880641577E+03  0.42880641577E+03  0.00000000000E+00 0.  1.
         23    2    1    2    0    0  0.83490129941E+03 -0.11638793555E+03  0.10251624508E+04  0.13304004447E+04  0.91656759684E+02 0.  0.
         13    1    3    3    0    0  0.22046617819E+02 -0.88032695055E+01  0.56601511918E+02  0.61378188819E+02  0.00000000000E+00 0.  1.
        -13    1    3    3    0    0  0.81285468159E+03 -0.10758466604E+03  0.96856093883E+03  0.12690222559E+04  0.00000000000E+00 0. -1.
         22    1    1    2    0    0 -0.83490129941E+03  0.11638793555E+03  0.36704094986E+03  0.91941578743E+03  0.00000000000E+00 0.  1.
<mgrwt>
<rscale>  0 0.17673264E+04</rscale>
<asrwt>0</asrwt>
<pdfrwt beam="1">  1        2 0.28015535E+00 0.17673264E+04</pdfrwt>
<pdfrwt beam="2">  1       -2 0.65970219E-01 0.17673264E+04</pdfrwt>
<totfact> 0.16810742E+01</totfact>
</mgrwt>
</event>
<event>
 6    1  0.2238133E-007  0.4359158E+04  0.7818608E-02  0.7935769E-01
         -2   -1    0    0    0  501 -0.00000000000E+00  0.00000000000E+00  0.27081342755E+04  0.27081342755E+04  0.00000000000E+00 0.  1.
          2   -1    0    0  501    0  0.00000000000E+00 -0.00000000000E+00 -0.17541834081E+04  0.17541834081E+04  0.00000000000E+00 0. -1.
         23    2    1    2    0    0 -0.99229019690E+03  0.55792347493E+03  0.23786924461E+04  0.26386381601E+04  0.91187435572E+02 0.  0.
         11    1    3    3    0    0 -0.82400771701E+03  0.46502541722E+03  0.20510773048E+04  0.22587951360E+04  0.00000000000E+00 0.  1.
        -11    1    3    3    0    0 -0.16828247989E+03  0.92898057714E+02  0.32761514129E+03  0.37984302411E+03  0.00000000000E+00 0. -1.
         22    1    1    2    0    0  0.99229019690E+03 -0.55792347493E+03 -0.14247415786E+04  0.18236795235E+04  0.00000000000E+00 0. -1.
<mgrwt>
<rscale>  0 0.43591578E+04</rscale>
<asrwt>0</asrwt>
<pdfrwt beam="1">  1        2 0.26987437E+00 0.43591578E+04</pdfrwt>
<pdfrwt beam="2">  1       -2 0.41663604E+00 0.43591578E+04</pdfrwt>
<totfact> 0.40468212E-02</totfact>
</mgrwt>
</event>
<event>
 6    1  0.2238133E-007  0.1043898E+04  0.7818608E-02  0.9261667E-01
         -2   -1    0    0    0  501 -0.00000000000E+00  0.00000000000E+00  0.35708769686E+03  0.35708769686E+03  0.00000000000E+00 0.  1.
          2   -1    0    0  501    0  0.00000000000E+00 -0.00000000000E+00 -0.76292379511E+03  0.76292379511E+03  0.00000000000E+00 0. -1.
         23    2    1    2    0    0 -0.40495535663E+03  0.42528834901E+02  0.13864204563E+03  0.44011885940E+03  0.93195766642E+02 0.  0.
         11    1    3    3    0    0 -0.18033366090E+03  0.50490374393E+02  0.99205095836E+02  0.21192252877E+03  0.00000000000E+00 0.  1.
        -11    1    3    3    0    0 -0.22462169573E+03 -0.79615394918E+01  0.39436949793E+02  0.22819633063E+03  0.00000000000E+00 0. -1.
         22    1    1    2    0    0  0.40495535663E+03 -0.42528834901E+02 -0.54447814388E+03  0.67989263257E+03  0.00000000000E+00 0. -1.
<mgrwt>
<rscale>  0 0.10438979E+04</rscale>
<asrwt>0</asrwt>
<pdfrwt beam="1">  1        2 0.11737289E+00 0.10438979E+04</pdfrwt>
<pdfrwt beam="2">  1       -2 0.54936570E-01 0.10438979E+04</pdfrwt>
<totfact> 0.11386985E+02</totfact>
</mgrwt>
</event>
<event>
 6    1  0.2238133E-007  0.1410290E+04  0.7818608E-02  0.8946404E-01
         -2   -1    0    0    0  501 -0.00000000000E+00  0.00000000000E+00  0.48925593907E+03  0.48925593907E+03  0.00000000000E+00 0.  1.
          2   -1    0    0  501    0  0.00000000000E+00 -0.00000000000E+00 -0.10162968132E+04  0.10162968132E+04  0.00000000000E+00 0. -1.
         23    2    1    2    0    0 -0.67079526493E+02  0.43415197068E+03  0.32012991896E+03  0.55125408350E+03  0.91707704376E+02 0.  0.
         13    1    3    3    0    0 -0.12613655073E+02  0.19552113736E+03  0.91205288513E+02  0.21611576551E+03  0.00000000000E+00 0. -1.
        -13    1    3    3    0    0 -0.54465871420E+02  0.23863083332E+03  0.22892463045E+03  0.33513831800E+03  0.00000000000E+00 0.  1.
         22    1    1    2    0    0  0.67079526493E+02 -0.43415197068E+03 -0.84717079309E+03  0.95429866875E+03  0.00000000000E+00 0. -1.
<mgrwt>
<rscale>  0 0.14102897E+04</rscale>
<asrwt>0</asrwt>
<pdfrwt beam="1">  1        2 0.15635335E+00 0.14102897E+04</pdfrwt>
<pdfrwt beam="2">  1       -2 0.75270145E-01 0.14102897E+04</pdfrwt>
<totfact> 0.37893919E+01</totfact>
</mgrwt>
</event>
<event>
 6    1  0.2238133E-007  0.3695989E+04  0.7818608E-02  0.8068851E-01
         -2   -1    0    0    0  501 -0.00000000000E+00  0.00000000000E+00  0.12220475442E+04  0.12220475442E+04  0.00000000000E+00 0.  1.
          2   -1    0    0  501    0  0.00000000000E+00 -0.00000000000E+00 -0.27945591758E+04  0.27945591758E+04  0.00000000000E+00 0. -1.
         23    2    1    2    0    0 -0.13370718640E+04 -0.27926564303E+02  0.59750475915E+03  0.14675849079E+04  0.90843062343E+02 0.  0.
         13    1    3    3    0    0 -0.99794325680E+03 -0.49543712900E+02  0.41577660157E+03  0.10822271045E+04  0.00000000000E+00 0. -1.
        -13    1    3    3    0    0 -0.33912860724E+03  0.21617148597E+02  0.18172815758E+03  0.38535780337E+03  0.00000000000E+00 0.  1.
         22    1    1    2    0    0  0.13370718640E+04  0.27926564303E+02 -0.21700163907E+04  0.25490218121E+04  0.00000000000E+00 0. -1.
<mgrwt>
<rscale>  0 0.36959893E+04</rscale>
<asrwt>0</asrwt>
<pdfrwt beam="1">  1        2 0.42993218E+00 0.36959893E+04</pdfrwt>
<pdfrwt beam="2">  1       -2 0.18800732E+00 0.36959893E+04</pdfrwt>
<totfact> 0.30111006E-01</totfact>
</mgrwt>
</event>
<event>
 6    1  0.2238133E-007  0.9409881E+03  0.7818608E-02  0.9375747E-01
          2   -1    0    0  501    0  0.00000000000E+00  0.00000000000E+00  0.62199364225E+03  0.62199364225E+03  0.00000000000E+00 0. -1.
         -2   -1    0    0    0  501 -0.00000000000E+00 -0.00000000000E+00 -0.35589533363E+03  0.35589533363E+03  0.00000000000E+00 0.  1.
         23    2    1    2    0    0  0.25849162031E+03  0.29675908248E+03 -0.12254771134E+03  0.42477994537E+03  0.10264594308E+03 0.  0.
         13    1    3    3    0    0  0.71232931399E+02  0.15363415026E+03 -0.70359520937E+02  0.18337951038E+03  0.00000000000E+00 0. -1.
        -13    1    3    3    0    0  0.18725868891E+03  0.14312493222E+03 -0.52188190404E+02  0.24140043498E+03  0.00000000000E+00 0.  1.
         22    1    1    2    0    0 -0.25849162031E+03 -0.29675908248E+03  0.38864601996E+03  0.55310903051E+03  0.00000000000E+00 0. -1.
<mgrwt>
<rscale>  0 0.94098807E+03</rscale>
<asrwt>0</asrwt>
<pdfrwt beam="1">  1        2 0.95691329E-01 0.94098807E+03</pdfrwt>
<pdfrwt beam="2">  1       -2 0.54753129E-01 0.94098807E+03</pdfrwt>
<totfact> 0.14922610E+02</totfact>
</mgrwt>
</event>
<event>
 6    1  0.2238133E-007  0.4306076E+04  0.7818608E-02  0.7945496E-01
         -2   -1    0    0    0  501 -0.00000000000E+00  0.00000000000E+00  0.27441298252E+04  0.27441298252E+04  0.00000000000E+00 0.  1.
          2   -1    0    0  501    0  0.00000000000E+00 -0.00000000000E+00 -0.16892687951E+04  0.16892687951E+04  0.00000000000E+00 0. -1.
         23    2    1    2    0    0  0.56904026470E+03 -0.20684797616E+04  0.70319137130E+03  0.22594421129E+04  0.90472148137E+02 0.  0.
         13    1    3    3    0    0  0.37280929314E+03 -0.12320326383E+04  0.45319059092E+03  0.13646512018E+04  0.00000000000E+00 0. -1.
        -13    1    3    3    0    0  0.19623097156E+03 -0.83644712328E+03  0.25000078038E+03  0.89479091102E+03  0.00000000000E+00 0.  1.
         22    1    1    2    0    0 -0.56904026470E+03  0.20684797616E+04  0.35166965881E+03  0.21739565074E+04  0.00000000000E+00 0.  1.
<mgrwt>
<rscale>  0 0.43060761E+04</rscale>
<asrwt>0</asrwt>
<pdfrwt beam="1">  1        2 0.25988751E+00 0.43060761E+04</pdfrwt>
<pdfrwt beam="2">  1       -2 0.42217382E+00 0.43060761E+04</pdfrwt>
<totfact> 0.40598362E-02</totfact>
</mgrwt>
</event>
<event>
 6    1  0.2238133E-007  0.1532011E+04  0.7818608E-02  0.8863441E-01
          2   -1    0    0  501    0  0.00000000000E+00  0.00000000000E+00  0.26355593773E+04  0.26355593773E+04  0.00000000000E+00 0. -1.
         -2   -1    0    0    0  501 -0.00000000000E+00 -0.00000000000E+00 -0.22263378582E+03  0.22263378582E+03  0.00000000000E+00 0.  1.
         23    2    1    2    0    0  0.59670231780E+03  0.48970833238E+02  0.32691962881E+03  0.68796905606E+03  0.89292663875E+02 0.  0.
         13    1    3    3    0    0  0.10018863712E+03 -0.10986680828E+02  0.25228929131E+02  0.10389884036E+03  0.00000000000E+00 0. -1.
        -13    1    3    3    0    0  0.49651368069E+03  0.59957514065E+02  0.30169069968E+03  0.58407021570E+03  0.00000000000E+00 0.  1.
         22    1    1    2    0    0 -0.59670231780E+03 -0.48970833238E+02  0.20860059626E+04  0.21702241070E+04  0.00000000000E+00 0. -1.
<mgrwt>
<rscale>  0 0.15320112E+04</rscale>
<asrwt>0</asrwt>
<pdfrwt beam="1">  1        2 0.40547065E+00 0.15320112E+04</pdfrwt>
<pdfrwt beam="2">  1       -2 0.34251354E-01 0.15320112E+04</pdfrwt>
<totfact> 0.22395610E+01</totfact>
</mgrwt>
</event>
<event>
 6    1  0.2238133E-007  0.2598712E+04  0.7818608E-02  0.8368639E-01
         -2   -1    0    0    0  501 -0.00000000000E+00  0.00000000000E+00  0.66843641194E+03  0.66843641194E+03  0.00000000000E+00 0.  1.
          2   -1    0    0  501    0  0.00000000000E+00 -0.00000000000E+00 -0.25257832295E+04  0.25257832295E+04  0.00000000000E+00 0. -1.
         23    2    1    2    0    0  0.43175645676E+03 -0.12179819147E+04 -0.78317331709E+03  0.15138201974E+04  0.91638217776E+02 0.  0.
         13    1    3    3    0    0  0.23398121756E+03 -0.64047301598E+03 -0.36021761778E+03  0.77117418689E+03  0.00000000000E+00 0. -1.
        -13    1    3    3    0    0  0.19777523920E+03 -0.57750889872E+03 -0.42295569931E+03  0.74264601050E+03  0.00000000000E+00 0.  1.
         22    1    1    2    0    0 -0.43175645676E+03  0.12179819147E+04 -0.10741735005E+04  0.16803994441E+04  0.00000000000E+00 0. -1.
<mgrwt>
<rscale>  0 0.25987116E+04</rscale>
<asrwt>0</asrwt>
<pdfrwt beam="1">  1        2 0.38858204E+00 0.25987116E+04</pdfrwt>
<pdfrwt beam="2">  1       -2 0.10283637E+00 0.25987116E+04</pdfrwt>
<totfact> 0.22984371E+00</totfact>
</mgrwt>
</event>
<event>
 6    1  0.2238133E-007  0.1213307E+04  0.7818608E-02  0.9101288E-01
          2   -1    0    0  501    0  0.00000000000E+00  0.00000000000E+00  0.55577995049E+03  0.55577995049E+03  0.00000000000E+00 0. -1.
         -2   -1    0    0    0  501 -0.00000000000E+00 -0.00000000000E+00 -0.66218403492E+03  0.66218403492E+03  0.00000000000E+00 0.  1.
         23    2    1    2    0    0 -0.20739892656E+03 -0.23909918275E+03 -0.56770774302E+03  0.65851443509E+03  0.10567140491E+03 0.  0.
         11    1    3    3    0    0 -0.65124990954E+02 -0.64295971878E+02 -0.27017218994E+03  0.28525120274E+03  0.00000000000E+00 0. -1.
        -11    1    3    3    0    0 -0.14227393560E+03 -0.17480321087E+03 -0.29753555308E+03  0.37326323236E+03  0.00000000000E+00 0.  1.
         22    1    1    2    0    0  0.20739892656E+03  0.23909918275E+03  0.46130365858E+03  0.55944955032E+03  0.00000000000E+00 0. -1.
<mgrwt>
<rscale>  0 0.12133072E+04</rscale>
<asrwt>0</asrwt>
<pdfrwt beam="1">  1        2 0.85504608E-01 0.12133072E+04</pdfrwt>
<pdfrwt beam="2">  1       -2 0.10187447E+00 0.12133072E+04</pdfrwt>
<totfact> 0.42370180E+01</totfact>
</mgrwt>
</event>
<event>
 6    1  0.2238133E-007  0.9186404E+03  0.7818608E-02  0.9402575E-01
          2   -1    0    0  501    0  0.00000000000E+00  0.00000000000E+00  0.16857869565E+03  0.16857869565E+03  0.00000000000E+00 0. -1.
         -2   -1    0    0    0  501 -0.00000000000E+00 -0.00000000000E+00 -0.12514928593E+04  0.12514928593E+04  0.00000000000E+00 0.  1.
         23    2    1    2    0    0 -0.23415488552E+03 -0.18311084406E+03 -0.10789079256E+04  0.11227936689E+04  0.90913252226E+02 0.  0.
         13    1    3    3    0    0 -0.36752418062E+02 -0.75127497567E+02 -0.35523320501E+03  0.36494590156E+03  0.00000000000E+00 0. -1.
        -13    1    3    3    0    0 -0.19740246746E+03 -0.10798334649E+03 -0.72367472056E+03  0.75784776733E+03  0.00000000000E+00 0.  1.
         22    1    1    2    0    0  0.23415488552E+03  0.18311084406E+03 -0.40062381315E+01  0.29727788611E+03  0.00000000000E+00 0. -1.
<mgrwt>
<rscale>  0 0.91864037E+03</rscale>
<asrwt>0</asrwt>
<pdfrwt beam="1">  1        2 0.25935185E-01 0.91864037E+03</pdfrwt>
<pdfrwt beam="2">  1       -2 0.19253735E+00 0.91864037E+03</pdfrwt>
<totfact> 0.31468749E+01</totfact>
</mgrwt>
</event>
<event>
 6    1  0.2238133E-007  0.4181456E+04  0.7818608E-02  0.7968909E-01
          2   -1    0    0  501    0  0.00000000000E+00  0.00000000000E+00  0.29849702253E+04  0.29849702253E+04  0.00000000000E+00 0. -1.
         -2   -1    0    0    0  501 -0.00000000000E+00 -0.00000000000E+00 -0.14643845224E+04  0.14643845224E+04  0.00000000000E+00 0.  1.
         23    2    1    2    0    0 -0.14490099731E+03  0.55698736483E+03  0.28980900204E+04  0.29564550965E+04  0.10232178547E+03 0.  0.
         11    1    3    3    0    0 -0.92443111027E+02  0.41058185913E+03  0.23170769810E+04  0.23549880950E+04  0.00000000000E+00 0.  1.
        -11    1    3    3    0    0 -0.52457886287E+02  0.14640550570E+03  0.58101303938E+03  0.60146700148E+03  0.00000000000E+00 0. -1.
         22    1    1    2    0    0  0.14490099731E+03 -0.55698736483E+03 -0.13775043176E+04  0.14928996512E+04  0.00000000000E+00 0.  1.
<mgrwt>
<rscale>  0 0.41814563E+04</rscale>
<asrwt>0</asrwt>
<pdfrwt beam="1">  1        2 0.45922619E+00 0.41814563E+04</pdfrwt>
<pdfrwt beam="2">  1       -2 0.22528993E+00 0.41814563E+04</pdfrwt>
<totfact> 0.12652789E-01</totfact>
</mgrwt>
</event>
<event>
 6    1  0.2238133E-007  0.4109994E+04  0.7818608E-02  0.7982718E-01
         -2   -1    0    0    0  501 -0.00000000000E+00  0.00000000000E+00  0.21937429517E+04  0.21937429517E+04  0.00000000000E+00 0.  1.
          2   -1    0    0  501    0  0.00000000000E+00 -0.00000000000E+00 -0.19250259425E+04  0.19250259425E+04  0.00000000000E+00 0. -1.
         23    2    1    2    0    0 -0.16454102828E+04 -0.11631062007E+04  0.53362592334E+03  0.20864382701E+04  0.90977995943E+02 0.  0.
         13    1    3    3    0    0 -0.12155716521E+04 -0.81022753456E+03  0.37925507998E+03  0.15092771498E+04  0.00000000000E+00 0.  1.
        -13    1    3    3    0    0 -0.42983863077E+03 -0.35287866615E+03  0.15437084337E+03  0.57716112032E+03  0.00000000000E+00 0. -1.
         22    1    1    2    0    0  0.16454102828E+04  0.11631062007E+04 -0.26490891416E+03  0.20323306241E+04  0.00000000000E+00 0. -1.
<mgrwt>
<rscale>  0 0.41099937E+04</rscale>
<asrwt>0</asrwt>
<pdfrwt beam="1">  1        2 0.29615784E+00 0.41099937E+04</pdfrwt>
<pdfrwt beam="2">  1       -2 0.33749892E+00 0.41099937E+04</pdfrwt>
<totfact> 0.10717764E-01</totfact>
</mgrwt>
</event>
<event>
 6    1  0.2238133E-007  0.1807271E+04  0.7818608E-02  0.8702442E-01
          1   -1    0    0  501    0  0.00000000000E+00  0.00000000000E+00  0.12596192116E+04  0.12596192116E+04  0.00000000000E+00 0. -1.
         -1   -1    0    0    0  501 -0.00000000000E+00 -0.00000000000E+00 -0.64825727795E+03  0.64825727795E+03  0.00000000000E+00 0.  1.
         23    2    1    2    0    0  0.55613460993E+03  0.37026205753E+02 -0.44109384103E+03  0.71694416489E+03  0.93747078332E+02 0.  0.
         13    1    3    3    0    0  0.29672349925E+03  0.37337687930E+02 -0.29081413239E+03  0.41714721328E+03  0.00000000000E+00 0. -1.
        -13    1    3    3    0    0  0.25941111068E+03 -0.31148217728E+00 -0.15027970864E+03  0.29979695161E+03  0.00000000000E+00 0.  1.
         22    1    1    2    0    0 -0.55613460993E+03 -0.37026205753E+02  0.10524557747E+04  0.11909323247E+04  0.00000000000E+00 0. -1.
<mgrwt>
<rscale>  0 0.18072712E+04</rscale>
<asrwt>0</asrwt>
<pdfrwt beam="1">  1        1 0.19378757E+00 0.18072712E+04</pdfrwt>
<pdfrwt beam="2">  1       -1 0.99731890E-01 0.18072712E+04</pdfrwt>
<totfact> 0.87465526E+00</totfact>
</mgrwt>
</event>
<event>
 6    1  0.2238133E-007  0.8958153E+03  0.7818608E-02  0.9430828E-01
          4   -1    0    0  501    0  0.00000000000E+00  0.00000000000E+00  0.42779840880E+03  0.42779840880E+03  0.00000000000E+00 0. -1.
         -4   -1    0    0    0  501 -0.00000000000E+00 -0.00000000000E+00 -0.46896211404E+03  0.46896211404E+03  0.00000000000E+00 0.  1.
         23    2    1    2    0    0 -0.93603099180E+02 -0.44910710992E+02  0.41044978761E+03  0.43336732149E+03  0.92518619993E+02 0.  0.
         11    1    3    3    0    0 -0.13041338169E+02 -0.48608138639E+02  0.23415098843E+03  0.23949846143E+03  0.00000000000E+00 0.  1.
        -11    1    3    3    0    0 -0.80561761012E+02  0.36974276466E+01  0.17629879918E+03  0.19386886006E+03  0.00000000000E+00 0. -1.
         22    1    1    2    0    0  0.93603099180E+02  0.44910710992E+02 -0.45161349285E+03  0.46339320135E+03  0.00000000000E+00 0.  1.
<mgrwt>
<rscale>  0 0.89581526E+03</rscale>
<asrwt>0</asrwt>
<pdfrwt beam="1">  1        4 0.65815140E-01 0.89581526E+03</pdfrwt>
<pdfrwt beam="2">  1       -4 0.72148017E-01 0.89581526E+03</pdfrwt>
<totfact> 0.74654521E+00</totfact>
</mgrwt>
</event>
<event>
 6    1  0.2238133E-007  0.3861028E+04  0.7818608E-02  0.8033184E-01
          2   -1    0    0  501    0  0.00000000000E+00  0.00000000000E+00  0.28097014663E+04  0.28097014663E+04  0.00000000000E+00 0. -1.
         -2   -1    0    0    0  501 -0.00000000000E+00 -0.00000000000E+00 -0.13264339780E+04  0.13264339780E+04  0.00000000000E+00 0.  1.
         23    2    1    2    0    0  0.64312797839E+03  0.44251046807E+03  0.26322503447E+04  0.27470383578E+04  0.89714832184E+02 0.  0.
         13    1    3    3    0    0  0.12201012754E+03  0.46920804671E+02  0.39346526095E+03  0.41461180001E+03  0.00000000000E+00 0. -1.
        -13    1    3    3    0    0  0.52111785085E+03  0.39558966340E+03  0.22387850838E+04  0.23324265578E+04  0.00000000000E+00 0.  1.
         22    1    1    2    0    0 -0.64312797839E+03 -0.44251046807E+03 -0.11489828565E+04  0.13890970864E+04  0.00000000000E+00 0.  1.
<mgrwt>
<rscale>  0 0.38610276E+04</rscale>
<asrwt>0</asrwt>
<pdfrwt beam="1">  1        2 0.43226176E+00 0.38610276E+04</pdfrwt>
<pdfrwt beam="2">  1       -2 0.20406677E+00 0.38610276E+04</pdfrwt>
<totfact> 0.22761004E-01</totfact>
</mgrwt>
</event>
<event>
 6    1  0.2238133E-007  0.3284662E+04  0.7818608E-02  0.8166809E-01
         -2   -1    0    0    0  501 -0.00000000000E+00  0.00000000000E+00  0.15235175792E+04  0.15235175792E+04  0.00000000000E+00 0.  1.
          2   -1    0    0  501    0  0.00000000000E+00 -0.00000000000E+00 -0.17704107152E+04  0.17704107152E+04  0.00000000000E+00 0. -1.
         23    2    1    2    0    0 -0.13726936234E+04 -0.18402391442E+02  0.77810866999E+03  0.15806696642E+04  0.91853433806E+02 0.  0.
         11    1    3    3    0    0 -0.98678345631E+02 -0.30880948744E+01  0.84784928934E+02  0.13013622248E+03  0.00000000000E+00 0.  1.
        -11    1    3    3    0    0 -0.12740152778E+04 -0.15314296568E+02  0.69332374106E+03  0.14505334417E+04  0.00000000000E+00 0. -1.
         22    1    1    2    0    0  0.13726936234E+04  0.18402391442E+02 -0.10250018060E+04  0.17132586302E+04  0.00000000000E+00 0. -1.
<mgrwt>
<rscale>  0 0.32846624E+04</rscale>
<asrwt>0</asrwt>
<pdfrwt beam="1">  1        2 0.27237088E+00 0.32846624E+04</pdfrwt>
<pdfrwt beam="2">  1       -2 0.23438732E+00 0.32846624E+04</pdfrwt>
<totfact> 0.60158591E-01</totfact>
</mgrwt>
</event>
<event>
 6    1  0.2238133E-007  0.8735092E+03  0.7818608E-02  0.9459316E-01
          2   -1    0    0  501    0  0.00000000000E+00  0.00000000000E+00  0.17855647747E+04  0.17855647747E+04  0.00000000000E+00 0. -1.
         -2   -1    0    0    0  501 -0.00000000000E+00 -0.00000000000E+00 -0.10683151035E+03  0.10683151035E+03  0.00000000000E+00 0.  1.
         23    2    1    2    0    0 -0.22949968136E+02  0.16792129638E+03  0.17092471530E+04  0.17201889675E+04  0.93808267464E+02 0.  0.
         11    1    3    3    0    0  0.12846948136E+02  0.15133386790E+03  0.12350639763E+04  0.12443673128E+04  0.00000000000E+00 0.  1.
        -11    1    3    3    0    0 -0.35796916272E+02  0.16587428478E+02  0.47418317678E+03  0.47582165476E+03  0.00000000000E+00 0. -1.
         22    1    1    2    0    0  0.22949968136E+02 -0.16792129638E+03 -0.30513888655E+02  0.17220731754E+03  0.00000000000E+00 0.  1.
<mgrwt>
<rscale>  0 0.87350920E+03</rscale>
<asrwt>0</asrwt>
<pdfrwt beam="1">  1        2 0.27470225E+00 0.87350920E+03</pdfrwt>
<pdfrwt beam="2">  1       -2 0.16435618E-01 0.87350920E+03</pdfrwt>
<totfact> 0.26615766E+02</totfact>
</mgrwt>
</event>
<event>
 6    1  0.2238133E-007  0.3285161E+04  0.7818608E-02  0.8166682E-01
          2   -1    0    0  501    0  0.00000000000E+00  0.00000000000E+00  0.24732053363E+04  0.24732053363E+04  0.00000000000E+00 0. -1.
         -2   -1    0    0    0  501 -0.00000000000E+00 -0.00000000000E+00 -0.10909203429E+04  0.10909203429E+04  0.00000000000E+00 0.  1.
         23    2    1    2    0    0  0.82109908469E+03  0.13879758471E+04  0.10229259688E+04  0.19119091173E+04  0.91314162730E+02 0.  0.
         11    1    3    3    0    0  0.28686063452E+03  0.49701339187E+03  0.41569023391E+03  0.70859699823E+03  0.00000000000E+00 0. -1.
        -11    1    3    3    0    0  0.53423845017E+03  0.89096245520E+03  0.60723573490E+03  0.12033121191E+04  0.00000000000E+00 0.  1.
         22    1    1    2    0    0 -0.82109908469E+03 -0.13879758471E+04  0.35935902458E+03  0.16522165619E+04  0.00000000000E+00 0.  1.
<mgrwt>
<rscale>  0 0.32851606E+04</rscale>
<asrwt>0</asrwt>
<pdfrwt beam="1">  1        2 0.38049313E+00 0.32851606E+04</pdfrwt>
<pdfrwt beam="2">  1       -2 0.16783390E+00 0.32851606E+04</pdfrwt>
<totfact> 0.66623430E-01</totfact>
</mgrwt>
</event>
<event>
 6    1  0.2238133E-007  0.4282164E+04  0.7818608E-02  0.7949924E-01
         -2   -1    0    0    0  501 -0.00000000000E+00  0.00000000000E+00  0.19222740802E+04  0.19222740802E+04  0.00000000000E+00 0.  1.
          2   -1    0    0  501    0  0.00000000000E+00 -0.00000000000E+00 -0.23847967681E+04  0.23847967681E+04  0.00000000000E+00 0. -1.
         23    2    1    2    0    0  0.17997248551E+04  0.42032135829E+03  0.85401458710E+03  0.20379410603E+04  0.90461328664E+02 0.  0.
         11    1    3    3    0    0  0.69461391146E+03  0.20565640577E+03  0.32043764461E+03  0.79212582795E+03  0.00000000000E+00 0.  1.
        -11    1    3    3    0    0  0.11051109436E+04  0.21466495252E+03  0.53357694250E+03  0.12458152323E+04  0.00000000000E+00 0. -1.
         22    1    1    2    0    0 -0.17997248551E+04 -0.42032135829E+03 -0.13165372750E+04  0.22691297880E+04  0.00000000000E+00 0. -1.
<mgrwt>
<rscale>  0 0.42821644E+04</rscale>
<asrwt>0</asrwt>
<pdfrwt beam="1">  1        2 0.36689181E+00 0.42821644E+04</pdfrwt>
<pdfrwt beam="2">  1       -2 0.29573448E+00 0.42821644E+04</pdfrwt>
<totfact> 0.10557387E-01</totfact>
</mgrwt>
</event>
<event>
 6    1  0.2238133E-007  0.4229694E+04  0.7818608E-02  0.7959748E-01
          2   -1    0    0  501    0  0.00000000000E+00  0.00000000000E+00  0.32895237085E+04  0.32895237085E+04  0.00000000000E+00 0. -1.
         -2   -1    0    0    0  501 -0.00000000000E+00 -0.00000000000E+00 -0.13596430939E+04  0.13596430939E+04  0.00000000000E+00 0.  1.
         23    2    1    2    0    0  0.14190999734E+04 -0.31509656226E+03 -0.72173872831E+03  0.16252263734E+04  0.85576835694E+02 0.  0.
         11    1    3    3    0    0  0.49730163761E+03 -0.13130074637E+03 -0.29513319287E+03  0.59300287209E+03  0.00000000000E+00 0. -1.
        -11    1    3    3    0    0  0.92179833578E+03 -0.18379581589E+03 -0.42660553544E+03  0.10322235013E+04  0.00000000000E+00 0.  1.
         22    1    1    2    0    0 -0.14190999734E+04  0.31509656226E+03  0.26516193430E+04  0.30239404290E+04  0.00000000000E+00 0. -1.
<mgrwt>
<rscale>  0 0.42296942E+04</rscale>
<asrwt>0</asrwt>
<pdfrwt beam="1">  1        2 0.50608057E+00 0.42296942E+04</pdfrwt>
<pdfrwt beam="2">  1       -2 0.20917586E+00 0.42296942E+04</pdfrwt>
<totfact> 0.10148556E-01</totfact>
</mgrwt>
</event>
<event>
 6    1  0.2238133E-007  0.3426581E+04  0.7818608E-02  0.8131413E-01
         -2   -1    0    0    0  501 -0.00000000000E+00  0.00000000000E+00  0.83058348191E+03  0.83058348191E+03  0.00000000000E+00 0.  1.
          2   -1    0    0  501    0  0.00000000000E+00 -0.00000000000E+00 -0.35341001166E+04  0.35341001166E+04  0.00000000000E+00 0. -1.
         23    2    1    2    0    0  0.11315071757E+04  0.10072573641E+04 -0.33661071462E+03  0.15545021950E+04  0.91073679656E+02 0.  0.
         13    1    3    3    0    0  0.10634790347E+04  0.91786767385E+03 -0.32190985728E+03  0.14412129198E+04  0.00000000000E+00 0.  1.
        -13    1    3    3    0    0  0.68028140960E+02  0.89389690206E+02 -0.14700857342E+02  0.11328927524E+03  0.00000000000E+00 0. -1.
         22    1    1    2    0    0 -0.11315071757E+04 -0.10072573641E+04 -0.23669059201E+04  0.28101814035E+04  0.00000000000E+00 0. -1.
<mgrwt>
<rscale>  0 0.34265815E+04</rscale>
<asrwt>0</asrwt>
<pdfrwt beam="1">  1        2 0.54370771E+00 0.34265815E+04</pdfrwt>
<pdfrwt beam="2">  1       -2 0.12778207E+00 0.34265815E+04</pdfrwt>
<totfact> 0.28800277E-01</totfact>
</mgrwt>
</event>
<event>
 6    1  0.2238133E-007  0.5646749E+04  0.7818608E-02  0.7735813E-01
          3   -1    0    0  501    0  0.00000000000E+00  0.00000000000E+00  0.29338224155E+04  0.29338224155E+04  0.00000000000E+00 0. -1.
         -3   -1    0    0    0  501 -0.00000000000E+00 -0.00000000000E+00 -0.27170847193E+04  0.27170847193E+04  0.00000000000E+00 0.  1.
         23    2    1    2    0    0 -0.19773935133E+04 -0.16122977048E+04  0.13167568579E+04  0.28724847134E+04  0.87925029066E+02 0.  0.
         11    1    3    3    0    0 -0.10956753995E+04 -0.86079012630E+03  0.75914994324E+03  0.15867491481E+04  0.00000000000E+00 0. -1.
        -11    1    3    3    0    0 -0.88171811378E+03 -0.75150757849E+03  0.55760691471E+03  0.12857355654E+04  0.00000000000E+00 0.  1.
         22    1    1    2    0    0  0.19773935133E+04  0.16122977048E+04 -0.11000191617E+04  0.27784224213E+04  0.00000000000E+00 0.  1.
<mgrwt>
<rscale>  0 0.56467492E+04</rscale>
<asrwt>0</asrwt>
<pdfrwt beam="1">  1        3 0.45135729E+00 0.56467492E+04</pdfrwt>
<pdfrwt beam="2">  1       -3 0.41801303E+00 0.56467492E+04</pdfrwt>
<totfact> 0.89598177E-05</totfact>
</mgrwt>
</event>
<event>
 6    1  0.2238133E-007  0.2154311E+04  0.7818608E-02  0.8537689E-01
         -2   -1    0    0    0  501 -0.00000000000E+00  0.00000000000E+00  0.39520871154E+03  0.39520871154E+03  0.00000000000E+00 0.  1.
          2   -1    0    0  501    0  0.00000000000E+00 -0.00000000000E+00 -0.29358272586E+04  0.29358272586E+04  0.00000000000E+00 0. -1.
         23    2    1    2    0    0  0.39402808712E+03 -0.59782968913E+03 -0.25127951551E+04  0.26144938487E+04  0.93702308357E+02 0.  0.
         13    1    3    3    0    0  0.30472189591E+03 -0.48221149716E+03 -0.21203372059E+04  0.21957261279E+04  0.00000000000E+00 0.  1.
        -13    1    3    3    0    0  0.89306191217E+02 -0.11561819196E+03 -0.39245794924E+03  0.41876772085E+03  0.00000000000E+00 0. -1.
         22    1    1    2    0    0 -0.39402808712E+03  0.59782968913E+03 -0.27823391913E+02  0.71654212143E+03  0.00000000000E+00 0.  1.
<mgrwt>
<rscale>  0 0.21543115E+04</rscale>
<asrwt>0</asrwt>
<pdfrwt beam="1">  1        2 0.45166573E+00 0.21543115E+04</pdfrwt>
<pdfrwt beam="2">  1       -2 0.60801340E-01 0.21543115E+04</pdfrwt>
<totfact> 0.44163598E+00</totfact>
</mgrwt>
</event>
<event>
 6    1  0.2238133E-007  0.6579479E+04  0.7818608E-02  0.7622430E-01
         -2   -1    0    0    0  501 -0.00000000000E+00  0.00000000000E+00  0.40354613609E+04  0.40354613609E+04  0.00000000000E+00 0.  1.
          2   -1    0    0  501    0  0.00000000000E+00 -0.00000000000E+00 -0.26818212507E+04  0.26818212507E+04  0.00000000000E+00 0. -1.
         23    2    1    2    0    0  0.17506647221E+04  0.56015903568E+03  0.34616293354E+04  0.39204587545E+04  0.92271752261E+02 0.  0.
         13    1    3    3    0    0  0.94767527895E+03  0.28445638117E+03  0.19530437401E+04  0.21893797565E+04  0.00000000000E+00 0.  1.
        -13    1    3    3    0    0  0.80298944313E+03  0.27570265451E+03  0.15085855952E+04  0.17310789981E+04  0.00000000000E+00 0. -1.
         22    1    1    2    0    0 -0.17506647221E+04 -0.56015903568E+03 -0.21079892252E+04  0.27968238571E+04  0.00000000000E+00 0. -1.
<mgrwt>
<rscale>  0 0.65794790E+04</rscale>
<asrwt>0</asrwt>
<pdfrwt beam="1">  1        2 0.41258788E+00 0.65794790E+04</pdfrwt>
<pdfrwt beam="2">  1       -2 0.62084021E+00 0.65794790E+04</pdfrwt>
<totfact> 0.76277785E-04</totfact>
</mgrwt>
</event>
<event>
 6    1  0.2238133E-007  0.1515680E+04  0.7818608E-02  0.8874092E-01
          2   -1    0    0  501    0  0.00000000000E+00  0.00000000000E+00  0.18542498063E+04  0.18542498063E+04  0.00000000000E+00 0. -1.
         -2   -1    0    0    0  501 -0.00000000000E+00 -0.00000000000E+00 -0.30973265669E+03  0.30973265669E+03  0.00000000000E+00 0.  1.
         23    2    1    2    0    0 -0.71403993034E+03  0.10959817652E+03  0.10883951764E+04  0.13096335665E+04  0.93119472651E+02 0.  0.
         13    1    3    3    0    0 -0.25244405738E+02  0.20165200102E+02  0.32968689710E+02  0.46161128858E+02  0.00000000000E+00 0. -1.
        -13    1    3    3    0    0 -0.68879552460E+03  0.89432976421E+02  0.10554264866E+04  0.12634724376E+04  0.00000000000E+00 0.  1.
         22    1    1    2    0    0  0.71403993034E+03 -0.10959817652E+03  0.45612197325E+03  0.85434889647E+03  0.00000000000E+00 0.  1.
<mgrwt>
<rscale>  0 0.15156803E+04</rscale>
<asrwt>0</asrwt>
<pdfrwt beam="1">  1        2 0.28526919E+00 0.15156803E+04</pdfrwt>
<pdfrwt beam="2">  1       -2 0.47651179E-01 0.15156803E+04</pdfrwt>
<totfact> 0.32425439E+01</totfact>
</mgrwt>
</event>
<event>
 6    1  0.2238133E-007  0.2704463E+04  0.7818608E-02  0.8333558E-01
          2   -1    0    0  501    0  0.00000000000E+00  0.00000000000E+00  0.14505143711E+04  0.14505143711E+04  0.00000000000E+00 0. -1.
         -2   -1    0    0    0  501 -0.00000000000E+00 -0.00000000000E+00 -0.12606082520E+04  0.12606082520E+04  0.00000000000E+00 0.  1.
         23    2    1    2    0    0 -0.11841302888E+04 -0.92022288671E+02 -0.54982552124E+03  0.13118958572E+04  0.90166478852E+02 0.  0.
         11    1    3    3    0    0 -0.11415737018E+04 -0.75479614814E+02 -0.51586344042E+03  0.12549911466E+04  0.00000000000E+00 0.  1.
        -11    1    3    3    0    0 -0.42556586965E+02 -0.16542673857E+02 -0.33962080824E+02  0.56904710582E+02  0.00000000000E+00 0. -1.
         22    1    1    2    0    0  0.11841302888E+04  0.92022288671E+02  0.73973164034E+03  0.13992267658E+04  0.00000000000E+00 0. -1.
<mgrwt>
<rscale>  0 0.27044633E+04</rscale>
<asrwt>0</asrwt>
<pdfrwt beam="1">  1        2 0.22315606E+00 0.27044633E+04</pdfrwt>
<pdfrwt beam="2">  1       -2 0.19393973E+00 0.27044633E+04</pdfrwt>
<totfact> 0.17324226E+00</totfact>
</mgrwt>
</event>
<event>
 6    1  0.2238133E-007  0.3082142E+04  0.7818608E-02  0.8220656E-01
          1   -1    0    0  501    0  0.00000000000E+00  0.00000000000E+00  0.16886865776E+04  0.16886865776E+04  0.00000000000E+00 0. -1.
         -1   -1    0    0    0  501 -0.00000000000E+00 -0.00000000000E+00 -0.14063595342E+04  0.14063595342E+04  0.00000000000E+00 0.  1.
         23    2    1    2    0    0 -0.50957932433E+03 -0.10443352224E+04  0.11557320583E+04  0.16413805847E+04  0.90036041234E+02 0.  0.
         13    1    3    3    0    0 -0.47659341978E+03 -0.95939724151E+03  0.10950803254E+04  0.15319220848E+04  0.00000000000E+00 0. -1.
        -13    1    3    3    0    0 -0.32985904555E+02 -0.84937980898E+02  0.60651732850E+02  0.10945849988E+03  0.00000000000E+00 0.  1.
         22    1    1    2    0    0  0.50957932433E+03  0.10443352224E+04 -0.87340501492E+03  0.14536655271E+04  0.00000000000E+00 0. -1.
<mgrwt>
<rscale>  0 0.30821424E+04</rscale>
<asrwt>0</asrwt>
<pdfrwt beam="1">  1        1 0.25979793E+00 0.30821424E+04</pdfrwt>
<pdfrwt beam="2">  1       -1 0.21636301E+00 0.30821424E+04</pdfrwt>
<totfact> 0.47737227E-01</totfact>
</mgrwt>
</event>
<event>
 6    1  0.2238133E-007  0.3212937E+04  0.7818608E-02  0.8185409E-01
         -2   -1    0    0    0  501 -0.00000000000E+00  0.00000000000E+00  0.13003269908E+04  0.13003269908E+04  0.00000000000E+00 0.  1.
          2   -1    0    0  501    0  0.00000000000E+00 -0.00000000000E+00 -0.19846861089E+04  0.19846861089E+04  0.00000000000E+00 0. -1.
         23    2    1    2    0    0 -0.56769485952E+03 -0.13748831945E+04 -0.95926867625E+03  0.17723477312E+04  0.91863130571E+02 0.  0.
         13    1    3    3    0    0 -0.84674916455E+02 -0.14338512147E+03 -0.87751291978E+02  0.18822705379E+03  0.00000000000E+00 0. -1.
        -13    1    3    3    0    0 -0.48301994306E+03 -0.12314980731E+04 -0.87151738427E+03  0.15841206774E+04  0.00000000000E+00 0.  1.
         22    1    1    2    0    0  0.56769485952E+03  0.13748831945E+04  0.27490955811E+03  0.15126653686E+04  0.00000000000E+00 0.  1.
<mgrwt>
<rscale>  0 0.32129369E+04</rscale>
<asrwt>0</asrwt>
<pdfrwt beam="1">  1        2 0.30533633E+00 0.32129369E+04</pdfrwt>
<pdfrwt beam="2">  1       -2 0.20005031E+00 0.32129369E+04</pdfrwt>
<totfact> 0.76175169E-01</totfact>
</mgrwt>
</event>
<event>
 6    1  0.2238133E-007  0.3835342E+04  0.7818608E-02  0.8038613E-01
          2   -1    0    0  501    0  0.00000000000E+00  0.00000000000E+00  0.20784868692E+04  0.20784868692E+04  0.00000000000E+00 0. -1.
         -2   -1    0    0    0  501 -0.00000000000E+00 -0.00000000000E+00 -0.17692980710E+04  0.17692980710E+04  0.00000000000E+00 0.  1.
         23    2    1    2    0    0 -0.11696889262E+04  0.13170493997E+04  0.91287161959E+03  0.19857365376E+04  0.83807502556E+02 0.  0.
         13    1    3    3    0    0 -0.55028849935E+03  0.67605129281E+03  0.43024221348E+03  0.97209626338E+03  0.00000000000E+00 0.  1.
        -13    1    3    3    0    0 -0.61940042683E+03  0.64099810687E+03  0.48262940611E+03  0.10136402742E+04  0.00000000000E+00 0. -1.
         22    1    1    2    0    0  0.11696889262E+04 -0.13170493997E+04 -0.60368282136E+03  0.18620484027E+04  0.00000000000E+00 0.  1.
<mgrwt>
<rscale>  0 0.38353424E+04</rscale>
<asrwt>0</asrwt>
<pdfrwt beam="1">  1        2 0.31976721E+00 0.38353424E+04</pdfrwt>
<pdfrwt beam="2">  1       -2 0.27219970E+00 0.38353424E+04</pdfrwt>
<totfact> 0.22696204E-01</totfact>
</mgrwt>
</event>
<event>
 6    1  0.2238133E-007  0.2104726E+04  0.7818608E-02  0.8559164E-01
          2   -1    0    0  501    0  0.00000000000E+00  0.00000000000E+00  0.13893302777E+04  0.13893302777E+04  0.00000000000E+00 0. -1.
         -2   -1    0    0    0  501 -0.00000000000E+00 -0.00000000000E+00 -0.79712354639E+03  0.79712354639E+03  0.00000000000E+00 0.  1.
         23    2    1    2    0    0 -0.54992351081E+03 -0.33070834073E+03  0.11605336536E+04  0.13292611007E+04  0.91174767614E+02 0.  0.
         11    1    3    3    0    0 -0.18219012439E+03 -0.66528633953E+02  0.30899013043E+03  0.36482077965E+03  0.00000000000E+00 0.  1.
        -11    1    3    3    0    0 -0.36773338643E+03 -0.26417970678E+03  0.85154352316E+03  0.96444032102E+03  0.00000000000E+00 0. -1.
         22    1    1    2    0    0  0.54992351081E+03  0.33070834073E+03 -0.56832692233E+03  0.85719272338E+03  0.00000000000E+00 0.  1.
<mgrwt>
<rscale>  0 0.21047260E+04</rscale>
<asrwt>0</asrwt>
<pdfrwt beam="1">  1        2 0.21374312E+00 0.21047260E+04</pdfrwt>
<pdfrwt beam="2">  1       -2 0.12263439E+00 0.21047260E+04</pdfrwt>
<totfact> 0.68015400E+00</totfact>
</mgrwt>
</event>
<event>
 6    1  0.2238133E-007  0.3760788E+04  0.7818608E-02  0.8054622E-01
          2   -1    0    0  501    0  0.00000000000E+00  0.00000000000E+00  0.25871985408E+04  0.25871985408E+04  0.00000000000E+00 0. -1.
         -2   -1    0    0    0  501 -0.00000000000E+00 -0.00000000000E+00 -0.13666836309E+04  0.13666836309E+04  0.00000000000E+00 0.  1.
         23    2    1    2    0    0  0.14315503499E+04 -0.10223005503E+04 -0.84669982204E+02  0.17634615678E+04  0.90514505621E+02 0.  0.
         11    1    3    3    0    0  0.11203026655E+04 -0.77114771057E+03 -0.35583014372E+02  0.13605193878E+04  0.00000000000E+00 0.  1.
        -11    1    3    3    0    0  0.31124768444E+03 -0.25115283977E+03 -0.49086967831E+02  0.40294217998E+03  0.00000000000E+00 0. -1.
         22    1    1    2    0    0 -0.14315503499E+04  0.10223005503E+04  0.13051848921E+04  0.21904206039E+04  0.00000000000E+00 0.  1.
<mgrwt>
<rscale>  0 0.37607882E+04</rscale>
<asrwt>0</asrwt>
<pdfrwt beam="1">  1        2 0.39803055E+00 0.37607882E+04</pdfrwt>
<pdfrwt beam="2">  1       -2 0.21025902E+00 0.37607882E+04</pdfrwt>
<totfact> 0.28408285E-01</totfact>
</mgrwt>
</event>
<event>
 6    1  0.2238133E-007  0.1475767E+04  0.7818608E-02  0.8900730E-01
          1   -1    0    0  501    0  0.00000000000E+00  0.00000000000E+00  0.20956805907E+04  0.20956805907E+04  0.00000000000E+00 0. -1.
         -1   -1    0    0    0  501 -0.00000000000E+00 -0.00000000000E+00 -0.25980674464E+03  0.25980674464E+03  0.00000000000E+00 0.  1.
         23    2    1    2    0    0 -0.50882555859E+03  0.51421227510E+03  0.70480767386E+03  0.10128673597E+04  0.76346043632E+02 0.  0.
         13    1    3    3    0    0 -0.17432210612E+03  0.14785346356E+03  0.18239488756E+03  0.29243245097E+03  0.00000000000E+00 0. -1.
        -13    1    3    3    0    0 -0.33450345246E+03  0.36635881154E+03  0.52241278630E+03  0.72043490878E+03  0.00000000000E+00 0.  1.
         22    1    1    2    0    0  0.50882555859E+03 -0.51421227510E+03  0.11310661722E+04  0.13426199755E+04  0.00000000000E+00 0. -1.
<mgrwt>
<rscale>  0 0.14757669E+04</rscale>
<asrwt>0</asrwt>
<pdfrwt beam="1">  1        1 0.32241239E+00 0.14757669E+04</pdfrwt>
<pdfrwt beam="2">  1       -1 0.39970270E-01 0.14757669E+04</pdfrwt>
<totfact> 0.15182771E+01</totfact>
</mgrwt>
</event>
<event>
 6    1  0.2238133E-007  0.5431452E+03  0.7818608E-02  0.1003093E+00
         -2   -1    0    0    0  501 -0.00000000000E+00  0.00000000000E+00  0.25815879447E+03  0.25815879447E+03  0.00000000000E+00 0.  1.
          2   -1    0    0  501    0  0.00000000000E+00 -0.00000000000E+00 -0.28568338907E+03  0.28568338907E+03  0.00000000000E+00 0. -1.
         23    2    1    2    0    0 -0.16882427380E+03 -0.76164752640E+02 -0.20207330404E+03  0.28934275931E+03  0.92643980871E+02 0.  0.
         11    1    3    3    0    0 -0.11820773839E+03 -0.34253386402E+01 -0.12198412922E+03  0.16989682205E+03  0.00000000000E+00 0.  1.
        -11    1    3    3    0    0 -0.50616535415E+02 -0.72739414000E+02 -0.80089174812E+02  0.11944593726E+03  0.00000000000E+00 0. -1.
         22    1    1    2    0    0  0.16882427380E+03  0.76164752640E+02  0.17454870944E+03  0.25449942423E+03  0.00000000000E+00 0.  1.
<mgrwt>
<rscale>  0 0.54314521E+03</rscale>
<asrwt>0</asrwt>
<pdfrwt beam="1">  1        2 0.43951290E-01 0.54314521E+03</pdfrwt>
<pdfrwt beam="2">  1       -2 0.39716738E-01 0.54314521E+03</pdfrwt>
<totfact> 0.69928286E+02</totfact>
</mgrwt>
</event>
<event>
 6    1  0.2238133E-007  0.3217687E+04  0.7818608E-02  0.8184162E-01
          2   -1    0    0  501    0  0.00000000000E+00  0.00000000000E+00  0.31494665864E+04  0.31494665864E+04  0.00000000000E+00 0. -1.
         -2   -1    0    0    0  501 -0.00000000000E+00 -0.00000000000E+00 -0.82184607906E+03  0.82184607906E+03  0.00000000000E+00 0.  1.
         23    2    1    2    0    0 -0.44233857287E+03  0.14027380035E+04  0.19654949147E+04  0.24565611134E+04  0.90470574066E+02 0.  0.
         13    1    3    3    0    0 -0.35331917457E+03  0.11930098368E+04  0.17005263340E+04  0.21071062438E+04  0.00000000000E+00 0.  1.
        -13    1    3    3    0    0 -0.89019398300E+02  0.20972816672E+03  0.26496858068E+03  0.34945486967E+03  0.00000000000E+00 0. -1.
         22    1    1    2    0    0  0.44233857287E+03 -0.14027380035E+04  0.36212559267E+03  0.15147515520E+04  0.00000000000E+00 0.  1.
<mgrwt>
<rscale>  0 0.32176866E+04</rscale>
<asrwt>0</asrwt>
<pdfrwt beam="1">  1        2 0.48453331E+00 0.32176866E+04</pdfrwt>
<pdfrwt beam="2">  1       -2 0.12643786E+00 0.32176866E+04</pdfrwt>
<totfact> 0.54737694E-01</totfact>
</mgrwt>
</event>
<event>
 6    1  0.2238133E-007  0.2924173E+04  0.7818608E-02  0.8265721E-01
          2   -1    0    0  501    0  0.00000000000E+00  0.00000000000E+00  0.25210447547E+04  0.25210447547E+04  0.00000000000E+00 0. -1.
         -2   -1    0    0    0  501 -0.00000000000E+00 -0.00000000000E+00 -0.84794086070E+03  0.84794086070E+03  0.00000000000E+00 0.  1.
         23    2    1    2    0    0 -0.72530974455E+02 -0.12287600478E+04 -0.68795212862E+02  0.12360710611E+04  0.89592909352E+02 0.  0.
         13    1    3    3    0    0 -0.82106754346E+02 -0.68978037865E+03 -0.22352999172E+02  0.69500945782E+03  0.00000000000E+00 0. -1.
        -13    1    3    3    0    0  0.95757798908E+01 -0.53897966917E+03 -0.46442213691E+02  0.54106160329E+03  0.00000000000E+00 0.  1.
         22    1    1    2    0    0  0.72530974455E+02  0.12287600478E+04  0.17418991068E+04  0.21329145542E+04  0.00000000000E+00 0. -1.
<mgrwt>
<rscale>  0 0.29241729E+04</rscale>
<asrwt>0</asrwt>
<pdfrwt beam="1">  1        2 0.38785303E+00 0.29241729E+04</pdfrwt>
<pdfrwt beam="2">  1       -2 0.13045244E+00 0.29241729E+04</pdfrwt>
<totfact> 0.12546998E+00</totfact>
</mgrwt>
</event>
<event>
 6    1  0.2238133E-007  0.1226714E+04  0.7818608E-02  0.9089790E-01
          2   -1    0    0  501    0  0.00000000000E+00  0.00000000000E+00  0.37378304680E+04  0.37378304680E+04  0.00000000000E+00 0. -1.
         -2   -1    0    0    0  501 -0.00000000000E+00 -0.00000000000E+00 -0.10064851122E+03  0.10064851122E+03  0.00000000000E+00 0.  1.
         23    2    1    2    0    0  0.61643557825E+02  0.57100360491E+03  0.11880168686E+04  0.13228767304E+04  0.93668131054E+02 0.  0.
         13    1    3    3    0    0  0.61756782110E+02  0.46529965620E+03  0.88203788904E+03  0.99915389600E+03  0.00000000000E+00 0.  1.
        -13    1    3    3    0    0 -0.11322428434E+00  0.10570394871E+03  0.30597897955E+03  0.32372283441E+03  0.00000000000E+00 0. -1.
         22    1    1    2    0    0 -0.61643557825E+02 -0.57100360491E+03  0.24491650882E+04  0.25156022488E+04  0.00000000000E+00 0. -1.
<mgrwt>
<rscale>  0 0.12267144E+04</rscale>
<asrwt>0</asrwt>
<pdfrwt beam="1">  1        2 0.57505074E+00 0.12267144E+04</pdfrwt>
<pdfrwt beam="2">  1       -2 0.15484389E-01 0.12267144E+04</pdfrwt>
<totfact> 0.18485888E+01</totfact>
</mgrwt>
</event>
<event>
 6    1  0.2238133E-007  0.5262746E+04  0.7818608E-02  0.7789207E-01
          2   -1    0    0  501    0  0.00000000000E+00  0.00000000000E+00  0.22781835024E+04  0.22781835024E+04  0.00000000000E+00 0. -1.
         -2   -1    0    0    0  501 -0.00000000000E+00 -0.00000000000E+00 -0.30393181001E+04  0.30393181001E+04  0.00000000000E+00 0.  1.
         23    2    1    2    0    0  0.14670505685E+04  0.34743824027E+03 -0.25587899893E+04  0.29713311891E+04  0.91935437864E+02 0.  0.
         11    1    3    3    0    0  0.12535020275E+04  0.29518712443E+03 -0.22461779450E+04  0.25891539413E+04  0.00000000000E+00 0.  1.
        -11    1    3    3    0    0  0.21354854104E+03  0.52251115840E+02 -0.31261204428E+03  0.38217724777E+03  0.00000000000E+00 0. -1.
         22    1    1    2    0    0 -0.14670505685E+04 -0.34743824027E+03  0.17976553917E+04  0.23461704134E+04  0.00000000000E+00 0. -1.
<mgrwt>
<rscale>  0 0.52627462E+04</rscale>
<asrwt>0</asrwt>
<pdfrwt beam="1">  1        2 0.35048977E+00 0.52627462E+04</pdfrwt>
<pdfrwt beam="2">  1       -2 0.46758740E+00 0.52627462E+04</pdfrwt>
<totfact> 0.88866261E-03</totfact>
</mgrwt>
</event>
<event>
 6    1  0.2238133E-007  0.2170824E+04  0.7818608E-02  0.8530671E-01
         -2   -1    0    0    0  501 -0.00000000000E+00  0.00000000000E+00  0.47116748292E+03  0.47116748292E+03  0.00000000000E+00 0.  1.
          2   -1    0    0  501    0  0.00000000000E+00 -0.00000000000E+00 -0.25004260646E+04  0.25004260646E+04  0.00000000000E+00 0. -1.
         23    2    1    2    0    0 -0.38442259129E+03 -0.53205211354E+03  0.16329633480E+03  0.68289146074E+03  0.93887560237E+02 0.  0.
         13    1    3    3    0    0 -0.66767255967E+02 -0.10972332966E+03  0.69950854446E+02  0.14625388056E+03  0.00000000000E+00 0. -1.
        -13    1    3    3    0    0 -0.31765533533E+03 -0.42232878388E+03  0.93345480357E+02  0.53663758018E+03  0.00000000000E+00 0.  1.
         22    1    1    2    0    0  0.38442259129E+03  0.53205211354E+03 -0.21925549165E+04  0.22887020867E+04  0.00000000000E+00 0. -1.
<mgrwt>
<rscale>  0 0.21708242E+04</rscale>
<asrwt>0</asrwt>
<pdfrwt beam="1">  1        2 0.38468094E+00 0.21708242E+04</pdfrwt>
<pdfrwt beam="2">  1       -2 0.72487303E-01 0.21708242E+04</pdfrwt>
<totfact> 0.54893745E+00</totfact>
</mgrwt>
</event>
<event>
 6    1  0.2238133E-007  0.1688109E+04  0.7818608E-02  0.8768176E-01
         -2   -1    0    0    0  501 -0.00000000000E+00  0.00000000000E+00  0.18912665527E+04  0.18912665527E+04  0.00000000000E+00 0.  1.
          2   -1    0    0  501    0  0.00000000000E+00 -0.00000000000E+00 -0.37669343487E+03  0.37669343487E+03  0.00000000000E+00 0. -1.
         23    2    1    2    0    0  0.70909149685E+03  0.30593939519E+03  0.12084435484E+04  0.14372223769E+04  0.94141843194E+02 0.  0.
         13    1    3    3    0    0  0.66544803228E+03  0.30975388142E+03  0.11331235094E+04  0.13500879372E+04  0.00000000000E+00 0.  1.
        -13    1    3    3    0    0  0.43643464577E+02 -0.38144862342E+01  0.75320039038E+02  0.87134439725E+02  0.00000000000E+00 0. -1.
         22    1    1    2    0    0 -0.70909149685E+03 -0.30593939519E+03  0.30612956943E+03  0.83073761063E+03  0.00000000000E+00 0. -1.
<mgrwt>
<rscale>  0 0.16881086E+04</rscale>
<asrwt>0</asrwt>
<pdfrwt beam="1">  1        2 0.57952837E-01 0.16881086E+04</pdfrwt>
<pdfrwt beam="2">  1       -2 0.29096408E+00 0.16881086E+04</pdfrwt>
<totfact> 0.29307340E+00</totfact>
</mgrwt>
</event>
<event>
 6    1  0.2238133E-007  0.2870964E+04  0.7818608E-02  0.8281569E-01
          2   -1    0    0  501    0  0.00000000000E+00  0.00000000000E+00  0.33176896228E+04  0.33176896228E+04  0.00000000000E+00 0. -1.
         -2   -1    0    0    0  501 -0.00000000000E+00 -0.00000000000E+00 -0.62109732802E+03  0.62109732802E+03  0.00000000000E+00 0.  1.
         23    2    1    2    0    0  0.43225535691E+03 -0.81727817229E+03  0.28535696129E+04  0.30010075615E+04  0.91643570792E+02 0.  0.
         11    1    3    3    0    0  0.20130144852E+03 -0.44243015496E+03  0.16115089195E+04  0.16832194488E+04  0.00000000000E+00 0.  1.
        -11    1    3    3    0    0  0.23095390839E+03 -0.37484801732E+03  0.12420606934E+04  0.13177881127E+04  0.00000000000E+00 0. -1.
         22    1    1    2    0    0 -0.43225535691E+03  0.81727817229E+03 -0.15697731820E+03  0.93777938925E+03  0.00000000000E+00 0.  1.
<mgrwt>
<rscale>  0 0.28709637E+04</rscale>
<asrwt>0</asrwt>
<pdfrwt beam="1">  1        2 0.51041378E+00 0.28709637E+04</pdfrwt>
<pdfrwt beam="2">  1       -2 0.95553437E-01 0.28709637E+04</pdfrwt>
<totfact> 0.86172577E-01</totfact>
</mgrwt>
</event>
<event>
 6    1  0.2238133E-007  0.2026977E+04  0.7818608E-02  0.8594111E-01
          2   -1    0    0  501    0  0.00000000000E+00  0.00000000000E+00  0.14375158736E+04  0.14375158736E+04  0.00000000000E+00 0. -1.
         -2   -1    0    0    0  501 -0.00000000000E+00 -0.00000000000E+00 -0.71453744481E+03  0.71453744481E+03  0.00000000000E+00 0.  1.
         23    2    1    2    0    0  0.65766277699E+03 -0.67385014418E+03 -0.30148564306E+02  0.94631926284E+03  0.89536954654E+02 0.  0.
         13    1    3    3    0    0  0.31521320872E+03 -0.33362705476E+03  0.29456078403E+02  0.45992829786E+03  0.00000000000E+00 0. -1.
        -13    1    3    3    0    0  0.34244956828E+03 -0.34022308942E+03 -0.59604642709E+02  0.48639096499E+03  0.00000000000E+00 0.  1.
         22    1    1    2    0    0 -0.65766277699E+03  0.67385014418E+03  0.75312699314E+03  0.12057340556E+04  0.00000000000E+00 0. -1.
<mgrwt>
<rscale>  0 0.20269770E+04</rscale>
<asrwt>0</asrwt>
<pdfrwt beam="1">  1        2 0.22115629E+00 0.20269770E+04</pdfrwt>
<pdfrwt beam="2">  1       -2 0.10992884E+00 0.20269770E+04</pdfrwt>
<totfact> 0.84037583E+00</totfact>
</mgrwt>
</event>
<event>
 6    1  0.2238133E-007  0.2072808E+04  0.7818608E-02  0.8573317E-01
          4   -1    0    0  501    0  0.00000000000E+00  0.00000000000E+00  0.14356168703E+04  0.14356168703E+04  0.00000000000E+00 0. -1.
         -4   -1    0    0    0  501 -0.00000000000E+00 -0.00000000000E+00 -0.74820321753E+03  0.74820321753E+03  0.00000000000E+00 0.  1.
         23    2    1    2    0    0 -0.60042677767E+03 -0.84119994600E+03  0.38754966401E+03  0.11076936658E+04  0.93063690973E+02 0.  0.
         13    1    3    3    0    0 -0.17844108400E+03 -0.18154785299E+03  0.99573473170E+02  0.27334176399E+03  0.00000000000E+00 0. -1.
        -13    1    3    3    0    0 -0.42198569367E+03 -0.65965209302E+03  0.28797619085E+03  0.83435190177E+03  0.00000000000E+00 0.  1.
         22    1    1    2    0    0  0.60042677767E+03  0.84119994600E+03  0.29986398874E+03  0.10761264221E+04  0.00000000000E+00 0. -1.
<mgrwt>
<rscale>  0 0.20728079E+04</rscale>
<asrwt>0</asrwt>
<pdfrwt beam="1">  1        4 0.22086413E+00 0.20728079E+04</pdfrwt>
<pdfrwt beam="2">  1       -4 0.11510819E+00 0.20728079E+04</pdfrwt>
<totfact> 0.10439812E-01</totfact>
</mgrwt>
</event>
<event>
 6    1  0.2238133E-007  0.1814476E+04  0.7818608E-02  0.8698639E-01
          2   -1    0    0  501    0  0.00000000000E+00  0.00000000000E+00  0.20905390952E+04  0.20905390952E+04  0.00000000000E+00 0. -1.
         -2   -1    0    0    0  501 -0.00000000000E+00 -0.00000000000E+00 -0.39371695198E+03  0.39371695198E+03  0.00000000000E+00 0.  1.
         23    2    1    2    0    0  0.33483415620E+03  0.36977447450E+03  0.18842643307E+04  0.19513567624E+04  0.92163290804E+02 0.  0.
         11    1    3    3    0    0  0.21105464962E+03  0.17216255227E+03  0.10952324669E+04  0.11285912307E+04  0.00000000000E+00 0. -1.
        -11    1    3    3    0    0  0.12377950658E+03  0.19761192223E+03  0.78903186380E+03  0.82276553170E+03  0.00000000000E+00 0.  1.
         22    1    1    2    0    0 -0.33483415620E+03 -0.36977447450E+03 -0.18744218740E+03  0.53289928483E+03  0.00000000000E+00 0.  1.
<mgrwt>
<rscale>  0 0.18144759E+04</rscale>
<asrwt>0</asrwt>
<pdfrwt beam="1">  1        2 0.32162139E+00 0.18144759E+04</pdfrwt>
<pdfrwt beam="2">  1       -2 0.60571840E-01 0.18144759E+04</pdfrwt>
<totfact> 0.14238357E+01</totfact>
</mgrwt>
</event>
<event>
 6    1  0.2238133E-007  0.2268984E+04  0.7818608E-02  0.8490251E-01
         -2   -1    0    0    0  501 -0.00000000000E+00  0.00000000000E+00  0.56668135978E+03  0.56668135978E+03  0.00000000000E+00 0.  1.
          2   -1    0    0  501    0  0.00000000000E+00 -0.00000000000E+00 -0.22712455903E+04  0.22712455903E+04  0.00000000000E+00 0. -1.
         23    2    1    2    0    0 -0.30047840596E+02  0.11047701402E+04 -0.54397786762E+03  0.12353101396E+04  0.93055279782E+02 0.  0.
         11    1    3    3    0    0  0.48783592080E+01  0.86603177486E+03 -0.45373395491E+03  0.97770615999E+03  0.00000000000E+00 0.  1.
        -11    1    3    3    0    0 -0.34926199804E+02  0.23873836537E+03 -0.90243912718E+02  0.25760397962E+03  0.00000000000E+00 0. -1.
         22    1    1    2    0    0  0.30047840596E+02 -0.11047701402E+04 -0.11605863629E+04  0.16026168105E+04  0.00000000000E+00 0. -1.
<mgrwt>
<rscale>  0 0.22689844E+04</rscale>
<asrwt>0</asrwt>
<pdfrwt beam="1">  1        2 0.34942240E+00 0.22689844E+04</pdfrwt>
<pdfrwt beam="2">  1       -2 0.87181747E-01 0.22689844E+04</pdfrwt>
<totfact> 0.48641356E+00</totfact>
</mgrwt>
</event>
<event>
 6    1  0.2238133E-007  0.1556695E+04  0.7818608E-02  0.8847603E-01
          2   -1    0    0  501    0  0.00000000000E+00  0.00000000000E+00  0.31031199198E+04  0.31031199198E+04  0.00000000000E+00 0. -1.
         -2   -1    0    0    0  501 -0.00000000000E+00 -0.00000000000E+00 -0.19523080818E+03  0.19523080818E+03  0.00000000000E+00 0.  1.
         23    2    1    2    0    0 -0.20437410396E+03  0.70755671816E+03  0.19744769480E+04  0.21093748867E+04  0.92184114386E+02 0.  0.
         13    1    3    3    0    0 -0.62891383544E+02  0.22445654957E+03  0.75238441246E+03  0.78766640965E+03  0.00000000000E+00 0. -1.
        -13    1    3    3    0    0 -0.14148272042E+03  0.48310016858E+03  0.12220925355E+04  0.13217084771E+04  0.00000000000E+00 0.  1.
         22    1    1    2    0    0  0.20437410396E+03 -0.70755671816E+03  0.93341216362E+03  0.11889758412E+04  0.00000000000E+00 0.  1.
<mgrwt>
<rscale>  0 0.15566947E+04</rscale>
<asrwt>0</asrwt>
<pdfrwt beam="1">  1        2 0.47740303E+00 0.15566947E+04</pdfrwt>
<pdfrwt beam="2">  1       -2 0.30035511E-01 0.15566947E+04</pdfrwt>
<totfact> 0.14858634E+01</totfact>
</mgrwt>
</event>
<event>
 6    1  0.2238133E-007  0.2243268E+04  0.7818608E-02  0.8500632E-01
          2   -1    0    0  501    0  0.00000000000E+00  0.00000000000E+00  0.34709715795E+03  0.34709715795E+03  0.00000000000E+00 0. -1.
         -2   -1    0    0    0  501 -0.00000000000E+00 -0.00000000000E+00 -0.36245268224E+04  0.36245268224E+04  0.00000000000E+00 0.  1.
         23    2    1    2    0    0 -0.23708681387E+02  0.42882837601E+03 -0.34723318844E+04  0.34999856094E+04  0.91403900291E+02 0.  0.
         11    1    3    3    0    0 -0.55977945070E+02  0.18963649427E+03 -0.15791112737E+04  0.15914420960E+04  0.00000000000E+00 0. -1.
        -11    1    3    3    0    0  0.32269263683E+02  0.23919188174E+03 -0.18932206107E+04  0.19085435134E+04  0.00000000000E+00 0.  1.
         22    1    1    2    0    0  0.23708681387E+02 -0.42882837601E+03  0.19490221992E+03  0.47163837098E+03  0.00000000000E+00 0. -1.
<mgrwt>
<rscale>  0 0.22432681E+04</rscale>
<asrwt>0</asrwt>
<pdfrwt beam="1">  1        2 0.53399565E-01 0.22432681E+04</pdfrwt>
<pdfrwt beam="2">  1       -2 0.55761949E+00 0.22432681E+04</pdfrwt>
<totfact> 0.65474806E-02</totfact>
</mgrwt>
</event>
<event>
 6    1  0.2238133E-007  0.8520673E+03  0.7818608E-02  0.9487566E-01
         -2   -1    0    0    0  501 -0.00000000000E+00  0.00000000000E+00  0.13639145685E+03  0.13639145685E+03  0.00000000000E+00 0.  1.
          2   -1    0    0  501    0  0.00000000000E+00 -0.00000000000E+00 -0.13307627470E+04  0.13307627470E+04  0.00000000000E+00 0. -1.
         23    2    1    2    0    0  0.11526632584E+03 -0.22095353010E+03 -0.18500063849E+02  0.26516421671E+03  0.88673677740E+02 0.  0.
         13    1    3    3    0    0  0.80817491812E+02 -0.61960998552E+02 -0.71862785369E+01  0.10208954365E+03  0.00000000000E+00 0. -1.
        -13    1    3    3    0    0  0.34448834031E+02 -0.15899253155E+03 -0.11313785312E+02  0.16307467305E+03  0.00000000000E+00 0.  1.
         22    1    1    2    0    0 -0.11526632584E+03  0.22095353010E+03 -0.11758712263E+04  0.12019899871E+04  0.00000000000E+00 0. -1.
<mgrwt>
<rscale>  0 0.85206730E+03</rscale>
<asrwt>0</asrwt>
<pdfrwt beam="1">  1        2 0.20473272E+00 0.85206730E+03</pdfrwt>
<pdfrwt beam="2">  1       -2 0.20983302E-01 0.85206730E+03</pdfrwt>
<totfact> 0.31262021E+02</totfact>
</mgrwt>
</event>
<event>
 6    1  0.2238133E-007  0.8719932E+03  0.7818608E-02  0.9461285E-01
         -2   -1    0    0    0  501 -0.00000000000E+00  0.00000000000E+00  0.15774598266E+03  0.15774598266E+03  0.00000000000E+00 0.  1.
          2   -1    0    0  501    0  0.00000000000E+00 -0.00000000000E+00 -0.12050577658E+04  0.12050577658E+04  0.00000000000E+00 0. -1.
         23    2    1    2    0    0  0.83137136655E+02 -0.25195634301E+03  0.20834078754E+01  0.28038790915E+03  0.90660116557E+02 0.  0.
         11    1    3    3    0    0  0.10095337488E+03 -0.21074088250E+03 -0.10005632197E+02  0.23388761432E+03  0.00000000000E+00 0.  1.
        -11    1    3    3    0    0 -0.17816238221E+02 -0.41215460510E+02  0.12089040072E+02  0.46500294830E+02  0.00000000000E+00 0. -1.
         22    1    1    2    0    0 -0.83137136655E+02  0.25195634301E+03 -0.10493951911E+04  0.10824158394E+04  0.00000000000E+00 0. -1.
<mgrwt>
<rscale>  0 0.87199317E+03</rscale>
<asrwt>0</asrwt>
<pdfrwt beam="1">  1        2 0.18539350E+00 0.87199317E+03</pdfrwt>
<pdfrwt beam="2">  1       -2 0.24268613E-01 0.87199317E+03</pdfrwt>
<totfact> 0.28535210E+02</totfact>
</mgrwt>
</event>
<event>
 6    1  0.2238133E-007  0.1366394E+04  0.7818608E-02  0.8978510E-01
         -2   -1    0    0    0  501 -0.00000000000E+00  0.00000000000E+00  0.13755125091E+04  0.13755125091E+04  0.00000000000E+00 0.  1.
          2   -1    0    0  501    0  0.00000000000E+00 -0.00000000000E+00 -0.33933417909E+03  0.33933417909E+03  0.00000000000E+00 0. -1.
         23    2    1    2    0    0 -0.37981080972E+03  0.24457974586E+03 -0.12242938810E+03  0.47128432637E+03  0.55176606861E+02 0.  0.
         11    1    3    3    0    0 -0.19257321748E+03  0.15501356794E+03 -0.57534809870E+02  0.25381864527E+03  0.00000000000E+00 0. -1.
        -11    1    3    3    0    0 -0.18723759224E+03  0.89566177916E+02 -0.64894578226E+02  0.21746568110E+03  0.00000000000E+00 0.  1.
         22    1    1    2    0    0  0.37981080972E+03 -0.24457974586E+03  0.11586077181E+04  0.12435623618E+04  0.00000000000E+00 0.  1.
<mgrwt>
<rscale>  0 0.13663944E+04</rscale>
<asrwt>0</asrwt>
<pdfrwt beam="1">  1        2 0.52205259E-01 0.13663944E+04</pdfrwt>
<pdfrwt beam="2">  1       -2 0.21161731E+00 0.13663944E+04</pdfrwt>
<totfact> 0.10428682E+01</totfact>
</mgrwt>
</event>
<event>
 6    1  0.2238133E-007  0.9800568E+03  0.7818608E-02  0.9330693E-01
          2   -1    0    0  501    0  0.00000000000E+00  0.00000000000E+00  0.30836030786E+03  0.30836030786E+03  0.00000000000E+00 0. -1.
         -2   -1    0    0    0  501 -0.00000000000E+00 -0.00000000000E+00 -0.77872480535E+03  0.77872480535E+03  0.00000000000E+00 0.  1.
         23    2    1    2    0    0 -0.10214413890E+03  0.37106456111E+03  0.91593556357E+02  0.40596897927E+03  0.91099390429E+02 0.  0.
         13    1    3    3    0    0 -0.10325992372E+02  0.20043385651E+03  0.31921204505E+02  0.20322234191E+03  0.00000000000E+00 0. -1.
        -13    1    3    3    0    0 -0.91818146528E+02  0.17063070460E+03  0.59672351851E+02  0.20274663736E+03  0.00000000000E+00 0.  1.
         22    1    1    2    0    0  0.10214413890E+03 -0.37106456111E+03 -0.56195805385E+03  0.68111613393E+03  0.00000000000E+00 0.  1.
<mgrwt>
<rscale>  0 0.98005678E+03</rscale>
<asrwt>0</asrwt>
<pdfrwt beam="1">  1        2 0.47440047E-01 0.98005678E+03</pdfrwt>
<pdfrwt beam="2">  1       -2 0.11980382E+00 0.98005678E+03</pdfrwt>
<totfact> 0.56710922E+01</totfact>
</mgrwt>
</event>
<event>
 6    1  0.2238133E-007  0.1103053E+04  0.7818608E-02  0.9202221E-01
         -2   -1    0    0    0  501 -0.00000000000E+00  0.00000000000E+00  0.46791700551E+03  0.46791700551E+03  0.00000000000E+00 0.  1.
          2   -1    0    0  501    0  0.00000000000E+00 -0.00000000000E+00 -0.65007614173E+03  0.65007614173E+03  0.00000000000E+00 0. -1.
         23    2    1    2    0    0  0.23302474407E+03 -0.20942127047E+03  0.36387982343E+03  0.48845653565E+03  0.89573776559E+02 0.  0.
         11    1    3    3    0    0  0.35669034706E+02 -0.68607287227E+02  0.50961387866E+02  0.92608330893E+02  0.00000000000E+00 0. -1.
        -11    1    3    3    0    0  0.19735570936E+03 -0.14081398325E+03  0.31291843556E+03  0.39584820476E+03  0.00000000000E+00 0.  1.
         22    1    1    2    0    0 -0.23302474407E+03  0.20942127047E+03 -0.54603895965E+03  0.62953661159E+03  0.00000000000E+00 0. -1.
<mgrwt>
<rscale>  0 0.11030534E+04</rscale>
<asrwt>0</asrwt>
<pdfrwt beam="1">  1        2 0.10001171E+00 0.11030534E+04</pdfrwt>
<pdfrwt beam="2">  1       -2 0.71987231E-01 0.11030534E+04</pdfrwt>
<totfact> 0.78067374E+01</totfact>
</mgrwt>
</event>
<event>
 6    1  0.2238133E-007  0.3596479E+04  0.7818608E-02  0.8091299E-01
         -2   -1    0    0    0  501 -0.00000000000E+00  0.00000000000E+00  0.16588570980E+04  0.16588570980E+04  0.00000000000E+00 0.  1.
          2   -1    0    0  501    0  0.00000000000E+00 -0.00000000000E+00 -0.19493335566E+04  0.19493335566E+04  0.00000000000E+00 0. -1.
         23    2    1    2    0    0 -0.90982937615E+03  0.17738023705E+03 -0.16898281285E+04  0.19296679893E+04  0.94054254297E+02 0.  0.
         11    1    3    3    0    0 -0.73079881792E+03  0.18007675126E+03 -0.13684833064E+04  0.15618070011E+04  0.00000000000E+00 0. -1.
        -11    1    3    3    0    0 -0.17903055823E+03 -0.26965142121E+01 -0.32134482207E+03  0.36786098820E+03  0.00000000000E+00 0.  1.
         22    1    1    2    0    0  0.90982937615E+03 -0.17738023705E+03  0.13993516699E+04  0.16785226654E+04  0.00000000000E+00 0.  1.
<mgrwt>
<rscale>  0 0.35964793E+04</rscale>
<asrwt>0</asrwt>
<pdfrwt beam="1">  1        2 0.29989747E+00 0.35964793E+04</pdfrwt>
<pdfrwt beam="2">  1       -2 0.25520879E+00 0.35964793E+04</pdfrwt>
<totfact> 0.34697781E-01</totfact>
</mgrwt>
</event>
<event>
 6    1  0.2238133E-007  0.2619960E+04  0.7818608E-02  0.8361453E-01
         -2   -1    0    0    0  501 -0.00000000000E+00  0.00000000000E+00  0.52065028399E+03  0.52065028399E+03  0.00000000000E+00 0.  1.
          2   -1    0    0  501    0  0.00000000000E+00 -0.00000000000E+00 -0.32959696996E+04  0.32959696996E+04  0.00000000000E+00 0. -1.
         23    2    1    2    0    0 -0.84347942193E+02  0.77954724879E+03  0.13667915187E+03  0.80090379246E+03  0.89203171294E+02 0.  0.
         13    1    3    3    0    0 -0.60450034332E+02  0.62963860785E+03  0.74671095527E+02  0.63692602055E+03  0.00000000000E+00 0.  1.
        -13    1    3    3    0    0 -0.23897907861E+02  0.14990864094E+03  0.62008056342E+02  0.16397777191E+03  0.00000000000E+00 0. -1.
         22    1    1    2    0    0  0.84347942193E+02 -0.77954724879E+03 -0.29119985674E+04  0.30157161911E+04  0.00000000000E+00 0. -1.
<mgrwt>
<rscale>  0 0.26199600E+04</rscale>
<asrwt>0</asrwt>
<pdfrwt beam="1">  1        2 0.50707225E+00 0.26199600E+04</pdfrwt>
<pdfrwt beam="2">  1       -2 0.80100045E-01 0.26199600E+04</pdfrwt>
<totfact> 0.13645930E+00</totfact>
</mgrwt>
</event>
<event>
 6    1  0.2238133E-007  0.1670438E+04  0.7818608E-02  0.8778406E-01
         -2   -1    0    0    0  501 -0.00000000000E+00  0.00000000000E+00  0.26481407134E+03  0.26481407134E+03  0.00000000000E+00 0.  1.
          2   -1    0    0  501    0  0.00000000000E+00 -0.00000000000E+00 -0.26342674252E+04  0.26342674252E+04  0.00000000000E+00 0. -1.
         23    2    1    2    0    0  0.45797992528E+03  0.35498741733E+03 -0.15228168889E+03  0.60744193711E+03  0.10017143189E+03 0.  0.
         11    1    3    3    0    0  0.45226214996E+03  0.32547168102E+03 -0.15123052803E+03  0.57735910839E+03  0.00000000000E+00 0.  1.
        -11    1    3    3    0    0  0.57177753195E+01  0.29515736311E+02 -0.10511608544E+01  0.30082828719E+02  0.00000000000E+00 0. -1.
         22    1    1    2    0    0 -0.45797992528E+03 -0.35498741733E+03 -0.22171716650E+04  0.22916395595E+04  0.00000000000E+00 0. -1.
<mgrwt>
<rscale>  0 0.16704384E+04</rscale>
<asrwt>0</asrwt>
<pdfrwt beam="1">  1        2 0.40527191E+00 0.16704384E+04</pdfrwt>
<pdfrwt beam="2">  1       -2 0.40740626E-01 0.16704384E+04</pdfrwt>
<totfact> 0.15846212E+01</totfact>
</mgrwt>
</event>
<event>
 6    1  0.2238133E-007  0.3600688E+04  0.7818608E-02  0.8090334E-01
          2   -1    0    0  501    0  0.00000000000E+00  0.00000000000E+00  0.26949795205E+04  0.26949795205E+04  0.00000000000E+00 0. -1.
         -2   -1    0    0    0  501 -0.00000000000E+00 -0.00000000000E+00 -0.12026950556E+04  0.12026950556E+04  0.00000000000E+00 0.  1.
         23    2    1    2    0    0 -0.59404085502E+03 -0.82273277732E+03 -0.86157169602E+03  0.13343929712E+04  0.92331217912E+02 0.  0.
         13    1    3    3    0    0 -0.15079651883E+03 -0.26031591445E+03 -0.29417092037E+03  0.42076180411E+03  0.00000000000E+00 0. -1.
        -13    1    3    3    0    0 -0.44324433618E+03 -0.56241686287E+03 -0.56740077565E+03  0.91363116705E+03  0.00000000000E+00 0.  1.
         22    1    1    2    0    0  0.59404085502E+03  0.82273277732E+03  0.23538561609E+04  0.25632816050E+04  0.00000000000E+00 0. -1.
<mgrwt>
<rscale>  0 0.36006880E+04</rscale>
<asrwt>0</asrwt>
<pdfrwt beam="1">  1        2 0.41461223E+00 0.36006880E+04</pdfrwt>
<pdfrwt beam="2">  1       -2 0.18503001E+00 0.36006880E+04</pdfrwt>
<totfact> 0.36485403E-01</totfact>
</mgrwt>
</event>
<event>
 6    1  0.2238133E-007  0.8940556E+03  0.7818608E-02  0.9433043E-01
          2   -1    0    0  501    0  0.00000000000E+00  0.00000000000E+00  0.28017789540E+04  0.28017789540E+04  0.00000000000E+00 0. -1.
         -2   -1    0    0    0  501 -0.00000000000E+00 -0.00000000000E+00 -0.71323919209E+02  0.71323919209E+02  0.00000000000E+00 0.  1.
         23    2    1    2    0    0 -0.18797259072E+02  0.18336532093E+03  0.26724684234E+04  0.26798708237E+04  0.75126422151E+02 0.  0.
         11    1    3    3    0    0 -0.45634621608E+02  0.83791492321E+02  0.11889205072E+04  0.11927428496E+04  0.00000000000E+00 0.  1.
        -11    1    3    3    0    0  0.26837362536E+02  0.99573828609E+02  0.14835479162E+04  0.14871279740E+04  0.00000000000E+00 0. -1.
         22    1    1    2    0    0  0.18797259072E+02 -0.18336532093E+03  0.57986611307E+02  0.19323204951E+03  0.00000000000E+00 0.  1.
<mgrwt>
<rscale>  0 0.89405560E+03</rscale>
<asrwt>0</asrwt>
<pdfrwt beam="1">  1        2 0.43104283E+00 0.89405560E+03</pdfrwt>
<pdfrwt beam="2">  1       -2 0.10972913E-01 0.89405560E+03</pdfrwt>
<totfact> 0.14038790E+02</totfact>
</mgrwt>
</event>
<event>
 6    1  0.2238133E-007  0.1392975E+04  0.7818608E-02  0.8958920E-01
          2   -1    0    0  501    0  0.00000000000E+00  0.00000000000E+00  0.39741482543E+04  0.39741482543E+04  0.00000000000E+00 0. -1.
         -2   -1    0    0    0  501 -0.00000000000E+00 -0.00000000000E+00 -0.12206251925E+03  0.12206251925E+03  0.00000000000E+00 0.  1.
         23    2    1    2    0    0  0.37158461991E+03 -0.56539358247E+03  0.23844875831E+04  0.24801695091E+04  0.87833518580E+02 0.  0.
         13    1    3    3    0    0  0.24810030063E+03 -0.44308863489E+03  0.18216791052E+04  0.18911361823E+04  0.00000000000E+00 0. -1.
        -13    1    3    3    0    0  0.12348431928E+03 -0.12230494757E+03  0.56280847782E+03  0.58903332675E+03  0.00000000000E+00 0.  1.
         22    1    1    2    0    0 -0.37158461991E+03  0.56539358247E+03  0.14675981520E+04  0.16160412645E+04  0.00000000000E+00 0.  1.
<mgrwt>
<rscale>  0 0.13929746E+04</rscale>
<asrwt>0</asrwt>
<pdfrwt beam="1">  1        2 0.61140732E+00 0.13929746E+04</pdfrwt>
<pdfrwt beam="2">  1       -2 0.18778852E-01 0.13929746E+04</pdfrwt>
<totfact> 0.85796197E+00</totfact>
</mgrwt>
</event>
<event>
 6    1  0.2238133E-007  0.1672481E+04  0.7818608E-02  0.8777217E-01
         -2   -1    0    0    0  501 -0.00000000000E+00  0.00000000000E+00  0.53142734039E+03  0.53142734039E+03  0.00000000000E+00 0.  1.
          2   -1    0    0  501    0  0.00000000000E+00 -0.00000000000E+00 -0.13158872948E+04  0.13158872948E+04  0.00000000000E+00 0. -1.
         23    2    1    2    0    0  0.37357599411E+03 -0.61149470934E+03  0.77383973033E+02  0.72648469351E+03  0.91142348502E+02 0.  0.
         11    1    3    3    0    0  0.33113281974E+03 -0.50831751073E+03  0.93290663162E+02  0.61379050486E+03  0.00000000000E+00 0.  1.
        -11    1    3    3    0    0  0.42443174370E+02 -0.10317719861E+03 -0.15906690130E+02  0.11269418865E+03  0.00000000000E+00 0. -1.
         22    1    1    2    0    0 -0.37357599411E+03  0.61149470934E+03 -0.86184392746E+03  0.11208299417E+04  0.00000000000E+00 0. -1.
<mgrwt>
<rscale>  0 0.16724814E+04</rscale>
<asrwt>0</asrwt>
<pdfrwt beam="1">  1        2 0.20244420E+00 0.16724814E+04</pdfrwt>
<pdfrwt beam="2">  1       -2 0.81758054E-01 0.16724814E+04</pdfrwt>
<totfact> 0.20311620E+01</totfact>
</mgrwt>
</event>
<event>
 6    1  0.2238133E-007  0.4263407E+04  0.7818608E-02  0.7953419E-01
          2   -1    0    0  501    0  0.00000000000E+00  0.00000000000E+00  0.25513969424E+04  0.25513969424E+04  0.00000000000E+00 0. -1.
         -2   -1    0    0    0  501 -0.00000000000E+00 -0.00000000000E+00 -0.17810475656E+04  0.17810475656E+04  0.00000000000E+00 0.  1.
         23    2    1    2    0    0  0.17477619865E+04 -0.62498239023E+03  0.14485775599E+04  0.23562693089E+04  0.91395619561E+02 0.  0.
         13    1    3    3    0    0  0.72995028787E+03 -0.30682484871E+03  0.60015670524E+03  0.99355773933E+03  0.00000000000E+00 0. -1.
        -13    1    3    3    0    0  0.10178116986E+04 -0.31815754152E+03  0.84842085470E+03  0.13627115695E+04  0.00000000000E+00 0.  1.
         22    1    1    2    0    0 -0.17477619865E+04  0.62498239023E+03 -0.67822818310E+03  0.19761751992E+04  0.00000000000E+00 0.  1.
<mgrwt>
<rscale>  0 0.42634068E+04</rscale>
<asrwt>0</asrwt>
<pdfrwt beam="1">  1        2 0.39252261E+00 0.42634068E+04</pdfrwt>
<pdfrwt beam="2">  1       -2 0.27400732E+00 0.42634068E+04</pdfrwt>
<totfact> 0.11496511E-01</totfact>
</mgrwt>
</event>
<event>
 6    1  0.2238133E-007  0.3637213E+04  0.7818608E-02  0.8082020E-01
         -2   -1    0    0    0  501 -0.00000000000E+00  0.00000000000E+00  0.14743951138E+04  0.14743951138E+04  0.00000000000E+00 0.  1.
          2   -1    0    0  501    0  0.00000000000E+00 -0.00000000000E+00 -0.22431768838E+04  0.22431768838E+04  0.00000000000E+00 0. -1.
         23    2    1    2    0    0 -0.70568615755E+03  0.91403738993E+03  0.10497977676E+04  0.15633461883E+04  0.92296523631E+02 0.  0.
         11    1    3    3    0    0 -0.16914233459E+03  0.17444344523E+03  0.18652780158E+03  0.30632052771E+03  0.00000000000E+00 0. -1.
        -11    1    3    3    0    0 -0.53654382295E+03  0.73959394470E+03  0.86326996603E+03  0.12570256605E+04  0.00000000000E+00 0.  1.
         22    1    1    2    0    0  0.70568615755E+03 -0.91403738993E+03 -0.18185795376E+04  0.21542258094E+04  0.00000000000E+00 0. -1.
<mgrwt>
<rscale>  0 0.36372127E+04</rscale>
<asrwt>0</asrwt>
<pdfrwt beam="1">  1        2 0.34510413E+00 0.36372127E+04</pdfrwt>
<pdfrwt beam="2">  1       -2 0.22683002E+00 0.36372127E+04</pdfrwt>
<totfact> 0.35508158E-01</totfact>
</mgrwt>
</event>
<event>
 6    1  0.2238133E-007  0.4280263E+04  0.7818608E-02  0.7950278E-01
         -2   -1    0    0    0  501 -0.00000000000E+00  0.00000000000E+00  0.17085849497E+04  0.17085849497E+04  0.00000000000E+00 0.  1.
          2   -1    0    0  501    0  0.00000000000E+00 -0.00000000000E+00 -0.26806759021E+04  0.26806759021E+04  0.00000000000E+00 0. -1.
         23    2    1    2    0    0 -0.51318716474E+03  0.12923346742E+04 -0.21532395088E+04  0.25648152132E+04  0.91360381465E+02 0.  0.
         11    1    3    3    0    0 -0.84540383864E+02  0.28517473793E+03 -0.41302647657E+03  0.50898190342E+03  0.00000000000E+00 0.  1.
        -11    1    3    3    0    0 -0.42864678088E+03  0.10071599362E+04 -0.17402130322E+04  0.20558333098E+04  0.00000000000E+00 0. -1.
         22    1    1    2    0    0  0.51318716474E+03 -0.12923346742E+04  0.11811485564E+04  0.18244456387E+04  0.00000000000E+00 0.  1.
<mgrwt>
<rscale>  0 0.42802628E+04</rscale>
<asrwt>0</asrwt>
<pdfrwt beam="1">  1        2 0.41241168E+00 0.42802628E+04</pdfrwt>
<pdfrwt beam="2">  1       -2 0.26285922E+00 0.42802628E+04</pdfrwt>
<totfact> 0.11269193E-01</totfact>
</mgrwt>
</event>
<event>
 6    1  0.2238133E-007  0.2671071E+04  0.7818608E-02  0.8344453E-01
         -2   -1    0    0    0  501 -0.00000000000E+00  0.00000000000E+00  0.99847457419E+03  0.99847457419E+03  0.00000000000E+00 0.  1.
          2   -1    0    0  501    0  0.00000000000E+00 -0.00000000000E+00 -0.17863799530E+04  0.17863799530E+04  0.00000000000E+00 0. -1.
         23    2    1    2    0    0  0.55323444628E+03 -0.17632556426E+03 -0.16465835869E+04  0.17482797242E+04  0.89919008294E+02 0.  0.
         11    1    3    3    0    0  0.10409130840E+03 -0.37040941016E+01 -0.23849832712E+03  0.26025021199E+03  0.00000000000E+00 0. -1.
        -11    1    3    3    0    0  0.44914313788E+03 -0.17262147015E+03 -0.14080852598E+04  0.14880295122E+04  0.00000000000E+00 0.  1.
         22    1    1    2    0    0 -0.55323444628E+03  0.17632556426E+03  0.85867820811E+03  0.10365748030E+04  0.00000000000E+00 0.  1.
<mgrwt>
<rscale>  0 0.26710709E+04</rscale>
<asrwt>0</asrwt>
<pdfrwt beam="1">  1        2 0.27482768E+00 0.26710709E+04</pdfrwt>
<pdfrwt beam="2">  1       -2 0.15361147E+00 0.26710709E+04</pdfrwt>
<totfact> 0.21717040E+00</totfact>
</mgrwt>
</event>
<event>
 6    1  0.2238133E-007  0.1839107E+04  0.7818608E-02  0.8685775E-01
          2   -1    0    0  501    0  0.00000000000E+00  0.00000000000E+00  0.12420928887E+04  0.12420928887E+04  0.00000000000E+00 0. -1.
         -2   -1    0    0    0  501 -0.00000000000E+00 -0.00000000000E+00 -0.68076916636E+03  0.68076916636E+03  0.00000000000E+00 0.  1.
         23    2    1    2    0    0 -0.40647980433E+03 -0.82129124811E+03  0.31990676866E+03  0.97521903628E+03  0.94692568602E+02 0.  0.
         11    1    3    3    0    0 -0.38793727518E+03 -0.81323749628E+03  0.31215237442E+03  0.95356680924E+03  0.00000000000E+00 0.  1.
        -11    1    3    3    0    0 -0.18542529152E+02 -0.80537518257E+01  0.77543942463E+01  0.21652227044E+02  0.00000000000E+00 0. -1.
         22    1    1    2    0    0  0.40647980433E+03  0.82129124811E+03  0.24141695371E+03  0.94764301880E+03  0.00000000000E+00 0.  1.
<mgrwt>
<rscale>  0 0.18391069E+04</rscale>
<asrwt>0</asrwt>
<pdfrwt beam="1">  1        2 0.19109121E+00 0.18391069E+04</pdfrwt>
<pdfrwt beam="2">  1       -2 0.10473372E+00 0.18391069E+04</pdfrwt>
<totfact> 0.12446725E+01</totfact>
</mgrwt>
</event>
<event>
 6    1  0.2238133E-007  0.2386047E+04  0.7818608E-02  0.8444746E-01
          2   -1    0    0  501    0  0.00000000000E+00  0.00000000000E+00  0.20236625400E+04  0.20236625400E+04  0.00000000000E+00 0. -1.
         -2   -1    0    0    0  501 -0.00000000000E+00 -0.00000000000E+00 -0.70333149019E+03  0.70333149019E+03  0.00000000000E+00 0.  1.
         23    2    1    2    0    0  0.68016963734E+03 -0.38630124051E+03  0.16879759862E+04  0.18626895797E+04  0.92142042756E+02 0.  0.
         11    1    3    3    0    0  0.28901276148E+03 -0.13533188571E+03  0.59951091899E+03  0.67915862475E+03  0.00000000000E+00 0.  1.
        -11    1    3    3    0    0  0.39115687586E+03 -0.25096935480E+03  0.10884650673E+04  0.11835309549E+04  0.00000000000E+00 0. -1.
         22    1    1    2    0    0 -0.68016963734E+03  0.38630124051E+03 -0.36764493642E+03  0.86430445056E+03  0.00000000000E+00 0.  1.
<mgrwt>
<rscale>  0 0.23860474E+04</rscale>
<asrwt>0</asrwt>
<pdfrwt beam="1">  1        2 0.31133270E+00 0.23860474E+04</pdfrwt>
<pdfrwt beam="2">  1       -2 0.10820485E+00 0.23860474E+04</pdfrwt>
<totfact> 0.39892991E+00</totfact>
</mgrwt>
</event>
<event>
 6    1  0.3518779E-007  0.3951118E+04  0.7818608E-02  0.8014481E-01
         -2   -1    0    0    0  501 -0.00000000000E+00  0.00000000000E+00  0.11448791007E+04  0.11448791007E+04  0.00000000000E+00 0.  1.
          2   -1    0    0  501    0  0.00000000000E+00 -0.00000000000E+00 -0.34089471859E+04  0.34089471859E+04  0.00000000000E+00 0. -1.
         23    2    1    2    0    0  0.28628462724E+03  0.14820089740E+04  0.33440381289E+03  0.15487695996E+04  0.92476352273E+02 0.  0.
         11    1    3    3    0    0  0.21398376846E+03  0.10568319649E+04  0.19696733993E+03  0.10961199698E+04  0.00000000000E+00 0.  1.
        -11    1    3    3    0    0  0.72300858784E+02  0.42517700906E+03  0.13743647296E+03  0.45264962975E+03  0.00000000000E+00 0. -1.
         22    1    1    2    0    0 -0.28628462724E+03 -0.14820089740E+04 -0.25984718982E+04  0.30050566870E+04  0.00000000000E+00 0. -1.
<mgrwt>
<rscale>  0 0.39511175E+04</rscale>
<asrwt>0</asrwt>
<pdfrwt beam="1">  1        2 0.52445341E+00 0.39511175E+04</pdfrwt>
<pdfrwt beam="2">  1       -2 0.17613525E+00 0.39511175E+04</pdfrwt>
<totfact> 0.14340237E-01</totfact>
</mgrwt>
</event>
<event>
 6    1  0.2238133E-007  0.3201676E+04  0.7818608E-02  0.8188375E-01
          1   -1    0    0  501    0  0.00000000000E+00  0.00000000000E+00  0.29265049637E+04  0.29265049637E+04  0.00000000000E+00 0. -1.
         -1   -1    0    0    0  501 -0.00000000000E+00 -0.00000000000E+00 -0.87568006346E+03  0.87568006346E+03  0.00000000000E+00 0.  1.
         23    2    1    2    0    0 -0.13092843037E+04 -0.88847782979E+03  0.13039234858E+04  0.20524764900E+04  0.93941703314E+02 0.  0.
         13    1    3    3    0    0 -0.99230267867E+03 -0.71831044306E+03  0.99118439040E+03  0.15757794879E+04  0.00000000000E+00 0.  1.
        -13    1    3    3    0    0 -0.31698162499E+03 -0.17016738673E+03  0.31273909535E+03  0.47669700214E+03  0.00000000000E+00 0. -1.
         22    1    1    2    0    0  0.13092843037E+04  0.88847782979E+03  0.74690141447E+03  0.17497085371E+04  0.00000000000E+00 0.  1.
<mgrwt>
<rscale>  0 0.32016758E+04</rscale>
<asrwt>0</asrwt>
<pdfrwt beam="1">  1        1 0.45023153E+00 0.32016758E+04</pdfrwt>
<pdfrwt beam="2">  1       -1 0.13472001E+00 0.32016758E+04</pdfrwt>
<totfact> 0.26168587E-01</totfact>
</mgrwt>
</event>
<event>
 6    1  0.2238133E-007  0.6844660E+04  0.7818608E-02  0.7593671E-01
          2   -1    0    0  501    0  0.00000000000E+00  0.00000000000E+00  0.46845408566E+04  0.46845408566E+04  0.00000000000E+00 0. -1.
         -2   -1    0    0    0  501 -0.00000000000E+00 -0.00000000000E+00 -0.25002110818E+04  0.25002110818E+04  0.00000000000E+00 0.  1.
         23    2    1    2    0    0  0.23202518253E+04  0.58313030612E+03 -0.14755069718E+04  0.28123367593E+04  0.92237393987E+02 0.  0.
         13    1    3    3    0    0  0.13975972326E+04  0.38670724615E+03 -0.85964305361E+03  0.16857659085E+04  0.00000000000E+00 0. -1.
        -13    1    3    3    0    0  0.92265459275E+03  0.19642305996E+03 -0.61586391818E+03  0.11265708507E+04  0.00000000000E+00 0.  1.
         22    1    1    2    0    0 -0.23202518253E+04 -0.58313030612E+03  0.36598367466E+04  0.43724151791E+04  0.00000000000E+00 0. -1.
<mgrwt>
<rscale>  0 0.68446595E+04</rscale>
<asrwt>0</asrwt>
<pdfrwt beam="1">  1        2 0.72069859E+00 0.68446595E+04</pdfrwt>
<pdfrwt beam="2">  1       -2 0.38464786E+00 0.68446595E+04</pdfrwt>
<totfact> 0.46260545E-04</totfact>
</mgrwt>
</event>
<event>
 6    1  0.2238133E-007  0.1327233E+04  0.7818608E-02  0.9008243E-01
         -2   -1    0    0    0  501 -0.00000000000E+00  0.00000000000E+00  0.20107933174E+03  0.20107933174E+03  0.00000000000E+00 0.  1.
          2   -1    0    0  501    0  0.00000000000E+00 -0.00000000000E+00 -0.21901157214E+04  0.21901157214E+04  0.00000000000E+00 0. -1.
         23    2    1    2    0    0  0.25341223056E+02  0.56371847984E+03 -0.16178612093E+04  0.17157753935E+04  0.89384597617E+02 0.  0.
         13    1    3    3    0    0 -0.44601671333E+01  0.49676162444E+03 -0.14453389370E+04  0.15283313277E+04  0.00000000000E+00 0. -1.
        -13    1    3    3    0    0  0.29801390189E+02  0.66956855396E+02 -0.17252227231E+03  0.18744406575E+03  0.00000000000E+00 0.  1.
         22    1    1    2    0    0 -0.25341223056E+02 -0.56371847984E+03 -0.37117518033E+03  0.67541965961E+03  0.00000000000E+00 0.  1.
<mgrwt>
<rscale>  0 0.13272332E+04</rscale>
<asrwt>0</asrwt>
<pdfrwt beam="1">  1        2 0.33694086E+00 0.13272332E+04</pdfrwt>
<pdfrwt beam="2">  1       -2 0.30935284E-01 0.13272332E+04</pdfrwt>
<totfact> 0.49633930E+01</totfact>
</mgrwt>
</event>
<event>
 6    1  0.2238133E-007  0.4077535E+04  0.7818608E-02  0.7989085E-01
         -2   -1    0    0    0  501 -0.00000000000E+00  0.00000000000E+00  0.18998508906E+04  0.18998508906E+04  0.00000000000E+00 0.  1.
          2   -1    0    0  501    0  0.00000000000E+00 -0.00000000000E+00 -0.21878417942E+04  0.21878417942E+04  0.00000000000E+00 0. -1.
         23    2    1    2    0    0 -0.99118075191E+03  0.13015505383E+04  0.10737489635E+04  0.19591230824E+04  0.93559224433E+02 0.  0.
         13    1    3    3    0    0 -0.63238547221E+03  0.83063763710E+03  0.63094450484E+03  0.12198201662E+04  0.00000000000E+00 0.  1.
        -13    1    3    3    0    0 -0.35879527970E+03  0.47091290123E+03  0.44280445867E+03  0.73930291620E+03  0.00000000000E+00 0. -1.
         22    1    1    2    0    0  0.99118075191E+03 -0.13015505383E+04 -0.13617398671E+04  0.21285696024E+04  0.00000000000E+00 0. -1.
<mgrwt>
<rscale>  0 0.40775351E+04</rscale>
<asrwt>0</asrwt>
<pdfrwt beam="1">  1        2 0.33659104E+00 0.40775351E+04</pdfrwt>
<pdfrwt beam="2">  1       -2 0.29228475E+00 0.40775351E+04</pdfrwt>
<totfact> 0.14572311E-01</totfact>
</mgrwt>
</event>
<event>
 6    1  0.2238133E-007  0.2589033E+04  0.7818608E-02  0.8371936E-01
          2   -1    0    0  501    0  0.00000000000E+00  0.00000000000E+00  0.14875790103E+04  0.14875790103E+04  0.00000000000E+00 0. -1.
         -2   -1    0    0    0  501 -0.00000000000E+00 -0.00000000000E+00 -0.11265105671E+04  0.11265105671E+04  0.00000000000E+00 0.  1.
         23    2    1    2    0    0 -0.20621722094E+03  0.10891028118E+04 -0.49122805668E+03  0.12158478956E+04  0.91162627870E+02 0.  0.
         13    1    3    3    0    0 -0.90994280416E+02  0.71248774688E+03 -0.31050357461E+03  0.78251595407E+03  0.00000000000E+00 0.  1.
        -13    1    3    3    0    0 -0.11522294052E+03  0.37661506494E+03 -0.18072448207E+03  0.43333194156E+03  0.00000000000E+00 0. -1.
         22    1    1    2    0    0  0.20621722094E+03 -0.10891028118E+04  0.85229649985E+03  0.13982416817E+04  0.00000000000E+00 0. -1.
<mgrwt>
<rscale>  0 0.25890334E+04</rscale>
<asrwt>0</asrwt>
<pdfrwt beam="1">  1        2 0.22885831E+00 0.25890334E+04</pdfrwt>
<pdfrwt beam="2">  1       -2 0.17330932E+00 0.25890334E+04</pdfrwt>
<totfact> 0.23068834E+00</totfact>
</mgrwt>
</event>
<event>
 6    1  0.2238133E-007  0.3331620E+04  0.7818608E-02  0.8154896E-01
          2   -1    0    0  501    0  0.00000000000E+00  0.00000000000E+00  0.32229609968E+04  0.32229609968E+04  0.00000000000E+00 0. -1.
         -2   -1    0    0    0  501 -0.00000000000E+00 -0.00000000000E+00 -0.86098568691E+03  0.86098568691E+03  0.00000000000E+00 0.  1.
         23    2    1    2    0    0  0.84922913704E+03  0.11221194791E+04  0.22716931264E+04  0.26738072845E+04  0.91178294682E+02 0.  0.
         11    1    3    3    0    0  0.72520563168E+03  0.10035897382E+04  0.20168253269E+04  0.23665798043E+04  0.00000000000E+00 0.  1.
        -11    1    3    3    0    0  0.12402350536E+03  0.11852974083E+03  0.25486779948E+03  0.30722748014E+03  0.00000000000E+00 0. -1.
         22    1    1    2    0    0 -0.84922913704E+03 -0.11221194791E+04  0.90282183451E+02  0.14101393992E+04  0.00000000000E+00 0.  1.
<mgrwt>
<rscale>  0 0.33316202E+04</rscale>
<asrwt>0</asrwt>
<pdfrwt beam="1">  1        2 0.49584015E+00 0.33316202E+04</pdfrwt>
<pdfrwt beam="2">  1       -2 0.13245934E+00 0.33316202E+04</pdfrwt>
<totfact> 0.43168597E-01</totfact>
</mgrwt>
</event>
<event>
 6    1  0.2238133E-007  0.1135197E+04  0.7818608E-02  0.9171550E-01
          2   -1    0    0  501    0  0.00000000000E+00  0.00000000000E+00  0.87037631629E+03  0.87037631629E+03  0.00000000000E+00 0. -1.
         -2   -1    0    0    0  501 -0.00000000000E+00 -0.00000000000E+00 -0.37014793198E+03  0.37014793198E+03  0.00000000000E+00 0.  1.
         23    2    1    2    0    0  0.34490991346E+03  0.28973853840E+03  0.62270769179E+03  0.77371331245E+03  0.89197261230E+02 0.  0.
         11    1    3    3    0    0  0.24433899540E+03  0.19064932789E+03  0.35645795761E+03  0.47234625694E+03  0.00000000000E+00 0.  1.
        -11    1    3    3    0    0  0.10057091806E+03  0.99089210510E+02  0.26624973417E+03  0.30136705551E+03  0.00000000000E+00 0. -1.
         22    1    1    2    0    0 -0.34490991346E+03 -0.28973853840E+03 -0.12247930748E+03  0.46681093582E+03  0.00000000000E+00 0.  1.
<mgrwt>
<rscale>  0 0.11351969E+04</rscale>
<asrwt>0</asrwt>
<pdfrwt beam="1">  1        2 0.13390405E+00 0.11351969E+04</pdfrwt>
<pdfrwt beam="2">  1       -2 0.56945836E-01 0.11351969E+04</pdfrwt>
<totfact> 0.88017305E+01</totfact>
</mgrwt>
</event>
<event>
 6    1  0.2238133E-007  0.1978365E+04  0.7818608E-02  0.8616803E-01
         -2   -1    0    0    0  501 -0.00000000000E+00  0.00000000000E+00  0.36578108910E+03  0.36578108910E+03  0.00000000000E+00 0.  1.
          2   -1    0    0  501    0  0.00000000000E+00 -0.00000000000E+00 -0.26750490606E+04  0.26750490606E+04  0.00000000000E+00 0. -1.
         23    2    1    2    0    0  0.54622030048E+03 -0.35801671633E+03 -0.19359500764E+02  0.65960916245E+03  0.90426053200E+02 0.  0.
         13    1    3    3    0    0  0.34504417549E+03 -0.26566071850E+03  0.14303925042E+02  0.43570139163E+03  0.00000000000E+00 0.  1.
        -13    1    3    3    0    0  0.20117612498E+03 -0.92355997831E+02 -0.33663425806E+02  0.22390777082E+03  0.00000000000E+00 0. -1.
         22    1    1    2    0    0 -0.54622030048E+03  0.35801671633E+03 -0.22899084708E+04  0.23812209873E+04  0.00000000000E+00 0.  1.
<mgrwt>
<rscale>  0 0.19783653E+04</rscale>
<asrwt>0</asrwt>
<pdfrwt beam="1">  1        2 0.41154601E+00 0.19783653E+04</pdfrwt>
<pdfrwt beam="2">  1       -2 0.56274013E-01 0.19783653E+04</pdfrwt>
<totfact> 0.75885735E+00</totfact>
</mgrwt>
</event>
<event>
 6    1  0.2238133E-007  0.2732126E+04  0.7818608E-02  0.8324656E-01
         -2   -1    0    0    0  501 -0.00000000000E+00  0.00000000000E+00  0.18830927572E+04  0.18830927572E+04  0.00000000000E+00 0.  1.
          2   -1    0    0  501    0  0.00000000000E+00 -0.00000000000E+00 -0.99099105673E+03  0.99099105673E+03  0.00000000000E+00 0. -1.
         23    2    1    2    0    0 -0.10160462609E+04  0.15271583678E+03  0.13911750081E+04  0.17318288961E+04  0.90505752961E+02 0.  0.
         11    1    3    3    0    0 -0.59282363870E+03  0.93236808001E+02  0.73703462119E+03  0.95044884228E+03  0.00000000000E+00 0.  1.
        -11    1    3    3    0    0 -0.42322262218E+03  0.59479028775E+02  0.65414038689E+03  0.78138005384E+03  0.00000000000E+00 0. -1.
         22    1    1    2    0    0  0.10160462609E+04 -0.15271583678E+03 -0.49907330755E+03  0.11422549178E+04  0.00000000000E+00 0. -1.
<mgrwt>
<rscale>  0 0.27321260E+04</rscale>
<asrwt>0</asrwt>
<pdfrwt beam="1">  1        2 0.15246016E+00 0.27321260E+04</pdfrwt>
<pdfrwt beam="2">  1       -2 0.28970658E+00 0.27321260E+04</pdfrwt>
<totfact> 0.82066972E-01</totfact>
</mgrwt>
</event>
<event>
 6    1  0.2238133E-007  0.7937394E+03  0.7818608E-02  0.9569124E-01
         -2   -1    0    0    0  501 -0.00000000000E+00  0.00000000000E+00  0.26105624285E+03  0.26105624285E+03  0.00000000000E+00 0.  1.
          2   -1    0    0  501    0  0.00000000000E+00 -0.00000000000E+00 -0.60333950238E+03  0.60333950238E+03  0.00000000000E+00 0. -1.
         23    2    1    2    0    0  0.20891525447E+03 -0.24544782168E+03  0.68372729235E+02  0.34235306706E+03  0.92954697066E+02 0.  0.
         13    1    3    3    0    0  0.15817083216E+03 -0.14560281367E+03  0.80797497602E+02  0.22966590324E+03  0.00000000000E+00 0. -1.
        -13    1    3    3    0    0  0.50744422310E+02 -0.99845008014E+02 -0.12424768366E+02  0.11268716382E+03  0.00000000000E+00 0.  1.
         22    1    1    2    0    0 -0.20891525447E+03  0.24544782168E+03 -0.41065598876E+03  0.52204267817E+03  0.00000000000E+00 0. -1.
<mgrwt>
<rscale>  0 0.79373936E+03</rscale>
<asrwt>0</asrwt>
<pdfrwt beam="1">  1        2 0.92821460E-01 0.79373936E+03</pdfrwt>
<pdfrwt beam="2">  1       -2 0.40162500E-01 0.79373936E+03</pdfrwt>
<totfact> 0.29082147E+02</totfact>
</mgrwt>
</event>
<event>
 6    1  0.2238133E-007  0.3206179E+04  0.7818608E-02  0.8187187E-01
         -2   -1    0    0    0  501 -0.00000000000E+00  0.00000000000E+00  0.19728432167E+04  0.19728432167E+04  0.00000000000E+00 0.  1.
          2   -1    0    0  501    0  0.00000000000E+00 -0.00000000000E+00 -0.13026356493E+04  0.13026356493E+04  0.00000000000E+00 0. -1.
         23    2    1    2    0    0 -0.10322513605E+04  0.11745543070E+04 -0.20520828038E+02  0.15660267879E+04  0.83054830836E+02 0.  0.
         13    1    3    3    0    0 -0.84241198080E+03  0.90764596766E+03 -0.19469208204E+02  0.12384902899E+04  0.00000000000E+00 0. -1.
        -13    1    3    3    0    0 -0.18983937966E+03  0.26690833930E+03 -0.10516198343E+01  0.32753649806E+03  0.00000000000E+00 0.  1.
         22    1    1    2    0    0  0.10322513605E+04 -0.11745543070E+04  0.69072839536E+03  0.17094520781E+04  0.00000000000E+00 0.  1.
<mgrwt>
<rscale>  0 0.32061790E+04</rscale>
<asrwt>0</asrwt>
<pdfrwt beam="1">  1        2 0.20040548E+00 0.32061790E+04</pdfrwt>
<pdfrwt beam="2">  1       -2 0.30351434E+00 0.32061790E+04</pdfrwt>
<totfact> 0.41928392E-01</totfact>
</mgrwt>
</event>
<event>
 6    1  0.2238133E-007  0.1503511E+04  0.7818608E-02  0.8882122E-01
         -2   -1    0    0    0  501 -0.00000000000E+00  0.00000000000E+00  0.26291555100E+03  0.26291555100E+03  0.00000000000E+00 0.  1.
          2   -1    0    0  501    0  0.00000000000E+00 -0.00000000000E+00 -0.21494974308E+04  0.21494974308E+04  0.00000000000E+00 0. -1.
         23    2    1    2    0    0 -0.84959620670E+02  0.59421019103E+03 -0.16658824634E+04  0.17728724275E+04  0.87225993255E+02 0.  0.
         13    1    3    3    0    0 -0.61291248696E+02  0.37923663093E+03 -0.94038500949E+03  0.10158252829E+04  0.00000000000E+00 0.  1.
        -13    1    3    3    0    0 -0.23668371974E+02  0.21497356010E+03 -0.72549745391E+03  0.75704714451E+03  0.00000000000E+00 0. -1.
         22    1    1    2    0    0  0.84959620670E+02 -0.59421019103E+03 -0.22069941640E+03  0.63954055435E+03  0.00000000000E+00 0.  1.
<mgrwt>
<rscale>  0 0.15035110E+04</rscale>
<asrwt>0</asrwt>
<pdfrwt beam="1">  1        2 0.33069191E+00 0.15035110E+04</pdfrwt>
<pdfrwt beam="2">  1       -2 0.40448547E-01 0.15035110E+04</pdfrwt>
<totfact> 0.30837015E+01</totfact>
</mgrwt>
</event>
<event>
 6    1  0.2238133E-007  0.4571196E+04  0.7818608E-02  0.7898290E-01
          2   -1    0    0  501    0  0.00000000000E+00  0.00000000000E+00  0.28423925771E+04  0.28423925771E+04  0.00000000000E+00 0. -1.
         -2   -1    0    0    0  501 -0.00000000000E+00 -0.00000000000E+00 -0.18378738284E+04  0.18378738284E+04  0.00000000000E+00 0.  1.
         23    2    1    2    0    0  0.12270233366E+04  0.52449174793E+03  0.24012115267E+04  0.27485758043E+04  0.90411801399E+02 0.  0.
         13    1    3    3    0    0  0.29351151173E+03  0.15465075138E+03  0.65612683638E+03  0.73523349205E+03  0.00000000000E+00 0. -1.
        -13    1    3    3    0    0  0.93351182486E+03  0.36984099654E+03  0.17450846904E+04  0.20133423123E+04  0.00000000000E+00 0.  1.
         22    1    1    2    0    0 -0.12270233366E+04 -0.52449174793E+03 -0.13966927781E+04  0.19316906012E+04  0.00000000000E+00 0.  1.
<mgrwt>
<rscale>  0 0.45711963E+04</rscale>
<asrwt>0</asrwt>
<pdfrwt beam="1">  1        2 0.43729117E+00 0.45711963E+04</pdfrwt>
<pdfrwt beam="2">  1       -2 0.28274982E+00 0.45711963E+04</pdfrwt>
<totfact> 0.66501184E-02</totfact>
</mgrwt>
</event>
<event>
 6    1  0.2238133E-007  0.1294325E+04  0.7818608E-02  0.9034078E-01
          2   -1    0    0  501    0  0.00000000000E+00  0.00000000000E+00  0.11923386956E+04  0.11923386956E+04  0.00000000000E+00 0. -1.
         -2   -1    0    0    0  501 -0.00000000000E+00 -0.00000000000E+00 -0.35125860946E+03  0.35125860946E+03  0.00000000000E+00 0.  1.
         23    2    1    2    0    0  0.49798763403E+03 -0.37126595741E+03  0.62495444550E+03  0.88591927795E+03  0.91950058888E+02 0.  0.
         13    1    3    3    0    0  0.45828411255E+03 -0.33492933640E+03  0.60199497136E+03  0.82740554370E+03  0.00000000000E+00 0. -1.
        -13    1    3    3    0    0  0.39703521478E+02 -0.36336621009E+02  0.22959474136E+02  0.58513734257E+02  0.00000000000E+00 0.  1.
         22    1    1    2    0    0 -0.49798763403E+03  0.37126595741E+03  0.21612564062E+03  0.65767802709E+03  0.00000000000E+00 0. -1.
<mgrwt>
<rscale>  0 0.12943249E+04</rscale>
<asrwt>0</asrwt>
<pdfrwt beam="1">  1        2 0.18343672E+00 0.12943249E+04</pdfrwt>
<pdfrwt beam="2">  1       -2 0.54039787E-01 0.12943249E+04</pdfrwt>
<totfact> 0.60522429E+01</totfact>
</mgrwt>
</event>
<event>
 6    1  0.2238133E-007  0.2053978E+04  0.7818608E-02  0.8581792E-01
          2   -1    0    0  501    0  0.00000000000E+00  0.00000000000E+00  0.18194751036E+04  0.18194751036E+04  0.00000000000E+00 0. -1.
         -2   -1    0    0    0  501 -0.00000000000E+00 -0.00000000000E+00 -0.57967611480E+03  0.57967611480E+03  0.00000000000E+00 0.  1.
         23    2    1    2    0    0 -0.46347362594E+03 -0.91197493994E+03  0.69571039321E+03  0.12404715850E+04  0.90833413318E+02 0.  0.
         11    1    3    3    0    0 -0.31348236182E+03 -0.53903119533E+03  0.39030895114E+03  0.73564046793E+03  0.00000000000E+00 0. -1.
        -11    1    3    3    0    0 -0.14999126411E+03 -0.37294374462E+03  0.30540144207E+03  0.50483111708E+03  0.00000000000E+00 0.  1.
         22    1    1    2    0    0  0.46347362594E+03  0.91197493994E+03  0.54408859563E+03  0.11586796334E+04  0.00000000000E+00 0. -1.
<mgrwt>
<rscale>  0 0.20539779E+04</rscale>
<asrwt>0</asrwt>
<pdfrwt beam="1">  1        2 0.27991924E+00 0.20539779E+04</pdfrwt>
<pdfrwt beam="2">  1       -2 0.89180942E-01 0.20539779E+04</pdfrwt>
<totfact> 0.84027501E+00</totfact>
</mgrwt>
</event>
<event>
 6    1  0.2238133E-007  0.7731099E+03  0.7818608E-02  0.9599776E-01
          2   -1    0    0  501    0  0.00000000000E+00  0.00000000000E+00  0.21518656677E+04  0.21518656677E+04  0.00000000000E+00 0. -1.
         -2   -1    0    0    0  501 -0.00000000000E+00 -0.00000000000E+00 -0.69439619759E+02  0.69439619759E+02  0.00000000000E+00 0.  1.
         23    2    1    2    0    0 -0.27397845409E+03  0.96652544210E+02  0.17645207190E+04  0.17906433484E+04  0.92001769896E+02 0.  0.
         13    1    3    3    0    0 -0.91065668667E+02 -0.99904018809E+01  0.61499512340E+03  0.62178112383E+03  0.00000000000E+00 0. -1.
        -13    1    3    3    0    0 -0.18291278542E+03  0.10664294609E+03  0.11495255956E+04  0.11688622246E+04  0.00000000000E+00 0.  1.
         22    1    1    2    0    0  0.27397845409E+03 -0.96652544210E+02  0.31790532891E+03  0.43066193906E+03  0.00000000000E+00 0.  1.
<mgrwt>
<rscale>  0 0.77310991E+03</rscale>
<asrwt>0</asrwt>
<pdfrwt beam="1">  1        2 0.33105621E+00 0.77310991E+03</pdfrwt>
<pdfrwt beam="2">  1       -2 0.10683020E-01 0.77310991E+03</pdfrwt>
<totfact> 0.34736362E+02</totfact>
</mgrwt>
</event>
<event>
 6    1  0.2238133E-007  0.7022353E+03  0.7818608E-02  0.9713417E-01
         -2   -1    0    0    0  501 -0.00000000000E+00  0.00000000000E+00  0.57450083182E+03  0.57450083182E+03  0.00000000000E+00 0.  1.
          2   -1    0    0  501    0  0.00000000000E+00 -0.00000000000E+00 -0.21459254107E+03  0.21459254107E+03  0.00000000000E+00 0. -1.
         23    2    1    2    0    0  0.16886471301E+03  0.54421693064E+01  0.52118073189E+03  0.55552601905E+03  0.91841679257E+02 0.  0.
         13    1    3    3    0    0  0.52362606822E+02  0.40401774127E+02  0.12977505670E+03  0.14565614058E+03  0.00000000000E+00 0.  1.
        -13    1    3    3    0    0  0.11650210618E+03 -0.34959604820E+02  0.39140567519E+03  0.40986987848E+03  0.00000000000E+00 0. -1.
         22    1    1    2    0    0 -0.16886471301E+03 -0.54421693064E+01 -0.16127244115E+03  0.23356735384E+03  0.00000000000E+00 0. -1.
<mgrwt>
<rscale>  0 0.70223527E+03</rscale>
<asrwt>0</asrwt>
<pdfrwt beam="1">  1        2 0.33014237E-01 0.70223527E+03</pdfrwt>
<pdfrwt beam="2">  1       -2 0.88384743E-01 0.70223527E+03</pdfrwt>
<totfact> 0.17776834E+02</totfact>
</mgrwt>
</event>
<event>
 6    1  0.2238133E-007  0.1381517E+04  0.7818608E-02  0.8967307E-01
          2   -1    0    0  501    0  0.00000000000E+00  0.00000000000E+00  0.13731526774E+04  0.13731526774E+04  0.00000000000E+00 0. -1.
         -2   -1    0    0    0  501 -0.00000000000E+00 -0.00000000000E+00 -0.34748312431E+03  0.34748312431E+03  0.00000000000E+00 0.  1.
         23    2    1    2    0    0 -0.55997135883E+03 -0.39113946247E+03  0.41630428533E+03  0.80527574614E+03  0.92745714310E+02 0.  0.
         11    1    3    3    0    0 -0.41234352264E+03 -0.24768482455E+03  0.25981048441E+03  0.54669593083E+03  0.00000000000E+00 0. -1.
        -11    1    3    3    0    0 -0.14762783619E+03 -0.14345463792E+03  0.15649380092E+03  0.25857981531E+03  0.00000000000E+00 0.  1.
         22    1    1    2    0    0  0.55997135883E+03  0.39113946247E+03  0.60936526778E+03  0.91536005560E+03  0.00000000000E+00 0. -1.
<mgrwt>
<rscale>  0 0.13815171E+04</rscale>
<asrwt>0</asrwt>
<pdfrwt beam="1">  1        2 0.21125425E+00 0.13815171E+04</pdfrwt>
<pdfrwt beam="2">  1       -2 0.53458943E-01 0.13815171E+04</pdfrwt>
<totfact> 0.48182396E+01</totfact>
</mgrwt>
</event>
<event>
 6    1  0.2238133E-007  0.8578702E+03  0.7818608E-02  0.9479834E-01
         -2   -1    0    0    0  501 -0.00000000000E+00  0.00000000000E+00  0.45107247872E+03  0.45107247872E+03  0.00000000000E+00 0.  1.
          2   -1    0    0  501    0  0.00000000000E+00 -0.00000000000E+00 -0.40788417529E+03  0.40788417529E+03  0.00000000000E+00 0. -1.
         23    2    1    2    0    0  0.24066964054E+03 -0.33001288604E+03 -0.92612419591E+02  0.42852406091E+03  0.90694154633E+02 0.  0.
         13    1    3    3    0    0  0.23559618236E+03 -0.28517578204E+03 -0.99064240666E+02  0.38294191672E+03  0.00000000000E+00 0. -1.
        -13    1    3    3    0    0  0.50734581745E+01 -0.44837104005E+02  0.64518210746E+01  0.45582144186E+02  0.00000000000E+00 0.  1.
         22    1    1    2    0    0 -0.24066964054E+03  0.33001288604E+03  0.13580072303E+03  0.43043259310E+03  0.00000000000E+00 0.  1.
<mgrwt>
<rscale>  0 0.85787021E+03</rscale>
<asrwt>0</asrwt>
<pdfrwt beam="1">  1        2 0.62751411E-01 0.85787021E+03</pdfrwt>
<pdfrwt beam="2">  1       -2 0.69395766E-01 0.85787021E+03</pdfrwt>
<totfact> 0.14820698E+02</totfact>
</mgrwt>
</event>
<event>
 6    1  0.2238133E-007  0.1214984E+04  0.7818608E-02  0.9099841E-01
         -1   -1    0    0    0  501 -0.00000000000E+00  0.00000000000E+00  0.32536642630E+03  0.32536642630E+03  0.00000000000E+00 0.  1.
          1   -1    0    0  501    0  0.00000000000E+00 -0.00000000000E+00 -0.11342484440E+04  0.11342484440E+04  0.00000000000E+00 0. -1.
         23    2    1    2    0    0 -0.33348236078E+03  0.49038000668E+03 -0.26934883746E+03  0.65787982151E+03  0.92596044180E+02 0.  0.
         13    1    3    3    0    0 -0.60157797913E+02  0.15926098981E+03 -0.90020220976E+02  0.19257898044E+03  0.00000000000E+00 0.  1.
        -13    1    3    3    0    0 -0.27332456287E+03  0.33111901688E+03 -0.17932861649E+03  0.46530084107E+03  0.00000000000E+00 0. -1.
         22    1    1    2    0    0  0.33348236078E+03 -0.49038000668E+03 -0.53953318026E+03  0.80173504882E+03  0.00000000000E+00 0. -1.
<mgrwt>
<rscale>  0 0.12149837E+04</rscale>
<asrwt>0</asrwt>
<pdfrwt beam="1">  1        1 0.17449976E+00 0.12149837E+04</pdfrwt>
<pdfrwt beam="2">  1       -1 0.50056373E-01 0.12149837E+04</pdfrwt>
<totfact> 0.47309445E+01</totfact>
</mgrwt>
</event>
<event>
 6    1  0.2238133E-007  0.2149398E+04  0.7818608E-02  0.8539790E-01
         -1   -1    0    0    0  501 -0.00000000000E+00  0.00000000000E+00  0.88541379790E+03  0.88541379790E+03  0.00000000000E+00 0.  1.
          1   -1    0    0  501    0  0.00000000000E+00 -0.00000000000E+00 -0.13044504449E+04  0.13044504449E+04  0.00000000000E+00 0. -1.
         23    2    1    2    0    0  0.57408299090E+03 -0.57756225462E+03  0.50178199148E+03  0.96061390078E+03  0.88568961797E+02 0.  0.
         13    1    3    3    0    0  0.12099620117E+03 -0.17683864050E+03  0.13034787475E+03  0.25080381561E+03  0.00000000000E+00 0. -1.
        -13    1    3    3    0    0  0.45308678973E+03 -0.40072361413E+03  0.37143411673E+03  0.70981008517E+03  0.00000000000E+00 0.  1.
         22    1    1    2    0    0 -0.57408299090E+03  0.57756225462E+03 -0.92081863852E+03  0.12292503421E+04  0.00000000000E+00 0. -1.
<mgrwt>
<rscale>  0 0.21493984E+04</rscale>
<asrwt>0</asrwt>
<pdfrwt beam="1">  1        1 0.20068468E+00 0.21493984E+04</pdfrwt>
<pdfrwt beam="2">  1       -1 0.13621751E+00 0.21493984E+04</pdfrwt>
<totfact> 0.37016385E+00</totfact>
</mgrwt>
</event>
<event>
 6    1  0.2238133E-007  0.3762233E+04  0.7818608E-02  0.8054309E-01
          2   -1    0    0  501    0  0.00000000000E+00  0.00000000000E+00  0.19864323563E+04  0.19864323563E+04  0.00000000000E+00 0. -1.
         -2   -1    0    0    0  501 -0.00000000000E+00 -0.00000000000E+00 -0.17813839261E+04  0.17813839261E+04  0.00000000000E+00 0.  1.
         23    2    1    2    0    0 -0.83237898813E+03 -0.83325622974E+03  0.15697527868E+04  0.19651547210E+04  0.10265739772E+03 0.  0.
         13    1    3    3    0    0 -0.15032537655E+03 -0.15401538680E+03  0.22460026496E+03  0.31106870178E+03  0.00000000000E+00 0. -1.
        -13    1    3    3    0    0 -0.68205361158E+03 -0.67924084294E+03  0.13451525219E+04  0.16540860192E+04  0.00000000000E+00 0.  1.
         22    1    1    2    0    0  0.83237898813E+03  0.83325622974E+03 -0.13647043566E+04  0.18026615615E+04  0.00000000000E+00 0.  1.
<mgrwt>
<rscale>  0 0.37622327E+04</rscale>
<asrwt>0</asrwt>
<pdfrwt beam="1">  1        2 0.30560498E+00 0.37622327E+04</pdfrwt>
<pdfrwt beam="2">  1       -2 0.27405907E+00 0.37622327E+04</pdfrwt>
<totfact> 0.25032583E-01</totfact>
</mgrwt>
</event>
<event>
 6    1  0.2238133E-007  0.3816689E+04  0.7818608E-02  0.8042583E-01
          2   -1    0    0  501    0  0.00000000000E+00  0.00000000000E+00  0.19697019892E+04  0.19697019892E+04  0.00000000000E+00 0. -1.
         -2   -1    0    0    0  501 -0.00000000000E+00 -0.00000000000E+00 -0.18488983667E+04  0.18488983667E+04  0.00000000000E+00 0.  1.
         23    2    1    2    0    0 -0.89235757837E+03  0.16514505412E+04 -0.27735557689E+03  0.18997148237E+04  0.91648010563E+02 0.  0.
         11    1    3    3    0    0 -0.56242712506E+03  0.10938859094E+04 -0.14567871492E+03  0.12386012037E+04  0.00000000000E+00 0. -1.
        -11    1    3    3    0    0 -0.32993045331E+03  0.55756463174E+03 -0.13167686197E+03  0.66111362002E+03  0.00000000000E+00 0.  1.
         22    1    1    2    0    0  0.89235757837E+03 -0.16514505412E+04  0.39815919940E+03  0.19188855322E+04  0.00000000000E+00 0. -1.
<mgrwt>
<rscale>  0 0.38166890E+04</rscale>
<asrwt>0</asrwt>
<pdfrwt beam="1">  1        2 0.30303108E+00 0.38166890E+04</pdfrwt>
<pdfrwt beam="2">  1       -2 0.28444590E+00 0.38166890E+04</pdfrwt>
<totfact> 0.22003691E-01</totfact>
</mgrwt>
</event>
<event>
 6    1  0.2238133E-007  0.2624143E+04  0.7818608E-02  0.8360046E-01
         -2   -1    0    0    0  501 -0.00000000000E+00  0.00000000000E+00  0.21966125797E+04  0.21966125797E+04  0.00000000000E+00 0.  1.
          2   -1    0    0  501    0  0.00000000000E+00 -0.00000000000E+00 -0.78372116598E+03  0.78372116598E+03  0.00000000000E+00 0. -1.
         23    2    1    2    0    0  0.10137111482E+04  0.81563423652E+03  0.88512637124E+03  0.15762662830E+04  0.91088978956E+02 0.  0.
         11    1    3    3    0    0  0.57831344121E+03  0.45845002301E+03  0.55590136952E+03  0.92393137869E+03  0.00000000000E+00 0.  1.
        -11    1    3    3    0    0  0.43539770695E+03  0.35718421351E+03  0.32922500173E+03  0.65233490429E+03  0.00000000000E+00 0. -1.
         22    1    1    2    0    0 -0.10137111482E+04 -0.81563423652E+03  0.52776504244E+03  0.14040674627E+04  0.00000000000E+00 0.  1.
<mgrwt>
<rscale>  0 0.26241431E+04</rscale>
<asrwt>0</asrwt>
<pdfrwt beam="1">  1        2 0.12057249E+00 0.26241431E+04</pdfrwt>
<pdfrwt beam="2">  1       -2 0.33794039E+00 0.26241431E+04</pdfrwt>
<totfact> 0.57895899E-01</totfact>
</mgrwt>
</event>
<event>
 6    1  0.2238133E-007  0.2750800E+04  0.7818608E-02  0.8318708E-01
         -2   -1    0    0    0  501 -0.00000000000E+00  0.00000000000E+00  0.10704269545E+04  0.10704269545E+04  0.00000000000E+00 0.  1.
          2   -1    0    0  501    0  0.00000000000E+00 -0.00000000000E+00 -0.17672621189E+04  0.17672621189E+04  0.00000000000E+00 0. -1.
         23    2    1    2    0    0 -0.11563226704E+04 -0.61678101018E+03 -0.77445272355E+03  0.15248580035E+04  0.88960537820E+02 0.  0.
         13    1    3    3    0    0 -0.45085004774E+03 -0.19991138369E+03 -0.26329119105E+03  0.55906401973E+03  0.00000000000E+00 0.  1.
        -13    1    3    3    0    0 -0.70547262266E+03 -0.41686962649E+03 -0.51116153250E+03  0.96579398378E+03  0.00000000000E+00 0. -1.
         22    1    1    2    0    0  0.11563226704E+04  0.61678101018E+03  0.77617559220E+02  0.13128310699E+04  0.00000000000E+00 0. -1.
<mgrwt>
<rscale>  0 0.27507999E+04</rscale>
<asrwt>0</asrwt>
<pdfrwt beam="1">  1        2 0.27188648E+00 0.27507999E+04</pdfrwt>
<pdfrwt beam="2">  1       -2 0.16468107E+00 0.27507999E+04</pdfrwt>
<totfact> 0.18299576E+00</totfact>
</mgrwt>
</event>
<event>
 6    1  0.2238133E-007  0.3150696E+04  0.7818608E-02  0.8201961E-01
          2   -1    0    0  501    0  0.00000000000E+00  0.00000000000E+00  0.29380745494E+04  0.29380745494E+04  0.00000000000E+00 0. -1.
         -2   -1    0    0    0  501 -0.00000000000E+00 -0.00000000000E+00 -0.84467602053E+03  0.84467602053E+03  0.00000000000E+00 0.  1.
         23    2    1    2    0    0  0.14891291502E+03 -0.71879005632E+03  0.27193075003E+04  0.28180764064E+04  0.89928580879E+02 0.  0.
         13    1    3    3    0    0  0.10641356380E+03 -0.65008300151E+03  0.24161581167E+04  0.25043465815E+04  0.00000000000E+00 0.  1.
        -13    1    3    3    0    0  0.42499351219E+02 -0.68707054810E+02  0.30314938361E+03  0.31372982488E+03  0.00000000000E+00 0. -1.
         22    1    1    2    0    0 -0.14891291502E+03  0.71879005632E+03 -0.62590897142E+03  0.96467416356E+03  0.00000000000E+00 0.  1.
<mgrwt>
<rscale>  0 0.31506959E+04</rscale>
<asrwt>0</asrwt>
<pdfrwt beam="1">  1        2 0.45201146E+00 0.31506959E+04</pdfrwt>
<pdfrwt beam="2">  1       -2 0.12995016E+00 0.31506959E+04</pdfrwt>
<totfact> 0.69904998E-01</totfact>
</mgrwt>
</event>
<event>
 6    1  0.2238133E-007  0.2884292E+03  0.7818608E-02  0.1091172E+00
         -2   -1    0    0    0  501 -0.00000000000E+00  0.00000000000E+00  0.53358683792E+02  0.53358683792E+02  0.00000000000E+00 0.  1.
          2   -1    0    0  501    0  0.00000000000E+00 -0.00000000000E+00 -0.38977450802E+03  0.38977450802E+03  0.00000000000E+00 0. -1.
         23    2    1    2    0    0  0.58321590848E+02 -0.99964802268E+02 -0.27588169320E+03  0.31252403949E+03  0.90367012570E+02 0.  0.
         13    1    3    3    0    0  0.63422127154E+02 -0.78100062675E+02 -0.12730594652E+03  0.16226148656E+03  0.00000000000E+00 0. -1.
        -13    1    3    3    0    0 -0.51005363062E+01 -0.21864739594E+02 -0.14857574669E+03  0.15026255293E+03  0.00000000000E+00 0.  1.
         22    1    1    2    0    0 -0.58321590848E+02  0.99964802268E+02 -0.60534131020E+02  0.13060915232E+03  0.00000000000E+00 0.  1.
<mgrwt>
<rscale>  0 0.28842923E+03</rscale>
<asrwt>0</asrwt>
<pdfrwt beam="1">  1        2 0.59965310E-01 0.28842923E+03</pdfrwt>
<pdfrwt beam="2">  1       -2 0.82090282E-02 0.28842923E+03</pdfrwt>
<totfact> 0.74261211E+03</totfact>
</mgrwt>
</event>
<event>
 6    1  0.2238133E-007  0.1953142E+04  0.7818608E-02  0.8628847E-01
         -2   -1    0    0    0  501 -0.00000000000E+00  0.00000000000E+00  0.56660829488E+03  0.56660829488E+03  0.00000000000E+00 0.  1.
          2   -1    0    0  501    0  0.00000000000E+00 -0.00000000000E+00 -0.16831570652E+04  0.16831570652E+04  0.00000000000E+00 0. -1.
         23    2    1    2    0    0  0.66443365886E+02 -0.74278782001E+03  0.16456018116E+03  0.76740622277E+03  0.75390921867E+02 0.  0.
         11    1    3    3    0    0  0.69780603282E+02 -0.65631066474E+03  0.12288243505E+03  0.67135170670E+03  0.00000000000E+00 0. -1.
        -11    1    3    3    0    0 -0.33372373955E+01 -0.86477155272E+02  0.41677746107E+02  0.96054516072E+02  0.00000000000E+00 0.  1.
         22    1    1    2    0    0 -0.66443365886E+02  0.74278782001E+03 -0.12811089515E+04  0.14823591373E+04  0.00000000000E+00 0. -1.
<mgrwt>
<rscale>  0 0.19531418E+04</rscale>
<asrwt>0</asrwt>
<pdfrwt beam="1">  1        2 0.25894724E+00 0.19531418E+04</pdfrwt>
<pdfrwt beam="2">  1       -2 0.87170508E-01 0.19531418E+04</pdfrwt>
<totfact> 0.10629418E+01</totfact>
</mgrwt>
</event>
<event>
 6    1  0.2238133E-007  0.3280520E+04  0.7818608E-02  0.8167870E-01
          2   -1    0    0  501    0  0.00000000000E+00  0.00000000000E+00  0.26369580055E+04  0.26369580055E+04  0.00000000000E+00 0. -1.
         -2   -1    0    0    0  501 -0.00000000000E+00 -0.00000000000E+00 -0.10202863526E+04  0.10202863526E+04  0.00000000000E+00 0.  1.
         23    2    1    2    0    0  0.10537554654E+04  0.53543983772E+02  0.22074487780E+04  0.24479945284E+04  0.81114512585E+02 0.  0.
         13    1    3    3    0    0  0.27441843583E+03  0.33734554276E+02  0.51136647285E+03  0.58132535437E+03  0.00000000000E+00 0. -1.
        -13    1    3    3    0    0  0.77933702961E+03  0.19809429495E+02  0.16960823052E+04  0.18666691740E+04  0.00000000000E+00 0.  1.
         22    1    1    2    0    0 -0.10537554654E+04 -0.53543983772E+02 -0.59077712517E+03  0.12092498298E+04  0.00000000000E+00 0.  1.
<mgrwt>
<rscale>  0 0.32805196E+04</rscale>
<asrwt>0</asrwt>
<pdfrwt beam="1">  1        2 0.40568585E+00 0.32805196E+04</pdfrwt>
<pdfrwt beam="2">  1       -2 0.15696713E+00 0.32805196E+04</pdfrwt>
<totfact> 0.64224910E-01</totfact>
</mgrwt>
</event>
<event>
 6    1  0.2238133E-007  0.2730872E+04  0.7818608E-02  0.8325057E-01
          1   -1    0    0  501    0  0.00000000000E+00  0.00000000000E+00  0.19265182237E+04  0.19265182237E+04  0.00000000000E+00 0. -1.
         -1   -1    0    0    0  501 -0.00000000000E+00 -0.00000000000E+00 -0.96776450274E+03  0.96776450274E+03  0.00000000000E+00 0.  1.
         23    2    1    2    0    0  0.90748556787E+03  0.97370321554E+03  0.16519152902E+03  0.13446476209E+04  0.95712983920E+02 0.  0.
         11    1    3    3    0    0  0.86758405384E+02  0.72115473770E+02 -0.84941286511E+01  0.11313625716E+03  0.00000000000E+00 0.  1.
        -11    1    3    3    0    0  0.82072716249E+03  0.90158774177E+03  0.17368565768E+03  0.12315113637E+04  0.00000000000E+00 0. -1.
         22    1    1    2    0    0 -0.90748556787E+03 -0.97370321554E+03  0.79356219194E+03  0.15496351055E+04  0.00000000000E+00 0. -1.
<mgrwt>
<rscale>  0 0.27308724E+04</rscale>
<asrwt>0</asrwt>
<pdfrwt beam="1">  1        1 0.29638742E+00 0.27308724E+04</pdfrwt>
<pdfrwt beam="2">  1       -1 0.14888685E+00 0.27308724E+04</pdfrwt>
<totfact> 0.10361546E+00</totfact>
</mgrwt>
</event>
<event>
 6    1  0.2238133E-007  0.1904277E+04  0.7818608E-02  0.8652730E-01
          2   -1    0    0  501    0  0.00000000000E+00  0.00000000000E+00  0.36884563264E+04  0.36884563264E+04  0.00000000000E+00 0. -1.
         -2   -1    0    0    0  501 -0.00000000000E+00 -0.00000000000E+00 -0.24578520799E+03  0.24578520799E+03  0.00000000000E+00 0.  1.
         23    2    1    2    0    0  0.72258461249E+03 -0.61436355960E+03  0.16145729838E+04  0.18747479328E+04  0.90899865936E+02 0.  0.
         13    1    3    3    0    0  0.42315189120E+03 -0.35493125882E+03  0.85103596897E+03  0.10145422327E+04  0.00000000000E+00 0. -1.
        -13    1    3    3    0    0  0.29943272129E+03 -0.25943230078E+03  0.76353701487E+03  0.86020570002E+03  0.00000000000E+00 0.  1.
         22    1    1    2    0    0 -0.72258461249E+03  0.61436355960E+03  0.18280981345E+04  0.20594936016E+04  0.00000000000E+00 0.  1.
<mgrwt>
<rscale>  0 0.19042773E+04</rscale>
<asrwt>0</asrwt>
<pdfrwt beam="1">  1        2 0.56745478E+00 0.19042773E+04</pdfrwt>
<pdfrwt beam="2">  1       -2 0.37813112E-01 0.19042773E+04</pdfrwt>
<totfact> 0.37101798E+00</totfact>
</mgrwt>
</event>
<event>
 6    1  0.2238133E-007  0.2643930E+04  0.7818608E-02  0.8353431E-01
         -2   -1    0    0    0  501 -0.00000000000E+00  0.00000000000E+00  0.83321235044E+03  0.83321235044E+03  0.00000000000E+00 0.  1.
          2   -1    0    0  501    0  0.00000000000E+00 -0.00000000000E+00 -0.20974136976E+04  0.20974136976E+04  0.00000000000E+00 0. -1.
         23    2    1    2    0    0  0.73259851465E+03 -0.68217777944E+03  0.32154561299E+03  0.10553499275E+04  0.91130576215E+02 0.  0.
         13    1    3    3    0    0  0.14107469228E+03 -0.13030661260E+03  0.24741780640E+02  0.19363377236E+03  0.00000000000E+00 0. -1.
        -13    1    3    3    0    0  0.59152382237E+03 -0.55187116684E+03  0.29680383235E+03  0.86171615519E+03  0.00000000000E+00 0.  1.
         22    1    1    2    0    0 -0.73259851465E+03  0.68217777944E+03 -0.15857469601E+04  0.18752761204E+04  0.00000000000E+00 0. -1.
<mgrwt>
<rscale>  0 0.26439296E+04</rscale>
<asrwt>0</asrwt>
<pdfrwt beam="1">  1        2 0.32267903E+00 0.26439296E+04</pdfrwt>
<pdfrwt beam="2">  1       -2 0.12818652E+00 0.26439296E+04</pdfrwt>
<totfact> 0.23382501E+00</totfact>
</mgrwt>
</event>
<event>
 6    1  0.2238133E-007  0.8694524E+03  0.7818608E-02  0.9464594E-01
          2   -1    0    0  501    0  0.00000000000E+00  0.00000000000E+00  0.16374113851E+04  0.16374113851E+04  0.00000000000E+00 0. -1.
         -2   -1    0    0    0  501 -0.00000000000E+00 -0.00000000000E+00 -0.11541807973E+03  0.11541807973E+03  0.00000000000E+00 0.  1.
         23    2    1    2    0    0 -0.26878483546E+03  0.21344208541E+03  0.12912444225E+04  0.13392501392E+04  0.92065006012E+02 0.  0.
         13    1    3    3    0    0 -0.43430234428E+02  0.83738508987E+02  0.39012455265E+03  0.40136702621E+03  0.00000000000E+00 0. -1.
        -13    1    3    3    0    0 -0.22535460103E+03  0.12970357642E+03  0.90111986981E+03  0.93788311303E+03  0.00000000000E+00 0.  1.
         22    1    1    2    0    0  0.26878483546E+03 -0.21344208541E+03  0.23074888294E+03  0.41357932561E+03  0.00000000000E+00 0.  1.
<mgrwt>
<rscale>  0 0.86945242E+03</rscale>
<asrwt>0</asrwt>
<pdfrwt beam="1">  1        2 0.25190943E+00 0.86945242E+03</pdfrwt>
<pdfrwt beam="2">  1       -2 0.17756629E-01 0.86945242E+03</pdfrwt>
<totfact> 0.28116479E+02</totfact>
</mgrwt>
</event>
<event>
 6    1  0.2238133E-007  0.1683302E+04  0.7818608E-02  0.8770946E-01
          2   -1    0    0  501    0  0.00000000000E+00  0.00000000000E+00  0.19836437564E+04  0.19836437564E+04  0.00000000000E+00 0. -1.
         -2   -1    0    0    0  501 -0.00000000000E+00 -0.00000000000E+00 -0.35710862754E+03  0.35710862754E+03  0.00000000000E+00 0.  1.
         23    2    1    2    0    0  0.29740522523E+03 -0.18518275842E+03 -0.24481360014E+03  0.43689089016E+03  0.90539654744E+02 0.  0.
         13    1    3    3    0    0  0.15442838151E+03 -0.81003044514E+02 -0.17398091394E+03  0.24633103063E+03  0.00000000000E+00 0. -1.
        -13    1    3    3    0    0  0.14297684372E+03 -0.10417971390E+03 -0.70832686198E+02  0.19055985953E+03  0.00000000000E+00 0.  1.
         22    1    1    2    0    0 -0.29740522523E+03  0.18518275842E+03  0.18713487290E+04  0.19038614938E+04  0.00000000000E+00 0. -1.
<mgrwt>
<rscale>  0 0.16833019E+04</rscale>
<asrwt>0</asrwt>
<pdfrwt beam="1">  1        2 0.30517596E+00 0.16833019E+04</pdfrwt>
<pdfrwt beam="2">  1       -2 0.54939790E-01 0.16833019E+04</pdfrwt>
<totfact> 0.20258396E+01</totfact>
</mgrwt>
</event>
<event>
 6    1  0.2238133E-007  0.2965961E+04  0.7818608E-02  0.8253518E-01
          2   -1    0    0  501    0  0.00000000000E+00  0.00000000000E+00  0.18330853928E+04  0.18330853928E+04  0.00000000000E+00 0. -1.
         -2   -1    0    0    0  501 -0.00000000000E+00 -0.00000000000E+00 -0.11997427384E+04  0.11997427384E+04  0.00000000000E+00 0.  1.
         23    2    1    2    0    0 -0.45825427304E+03 -0.11942056347E+04  0.10798261712E+04  0.16780323505E+04  0.11680724501E+03 0.  0.
         13    1    3    3    0    0 -0.11574136209E+03 -0.28913947577E+03  0.33051367137E+03  0.45413322528E+03  0.00000000000E+00 0. -1.
        -13    1    3    3    0    0 -0.34251291094E+03 -0.90506615897E+03  0.74931249986E+03  0.12238991252E+04  0.00000000000E+00 0.  1.
         22    1    1    2    0    0  0.45825427304E+03  0.11942056347E+04 -0.44648351678E+03  0.13547957808E+04  0.00000000000E+00 0.  1.
<mgrwt>
<rscale>  0 0.29659608E+04</rscale>
<asrwt>0</asrwt>
<pdfrwt beam="1">  1        2 0.28201314E+00 0.29659608E+04</pdfrwt>
<pdfrwt beam="2">  1       -2 0.18457581E+00 0.29659608E+04</pdfrwt>
<totfact> 0.11977664E+00</totfact>
</mgrwt>
</event>
<event>
 6    1  0.2238133E-007  0.1396293E+04  0.7818608E-02  0.8956506E-01
          2   -1    0    0  501    0  0.00000000000E+00  0.00000000000E+00  0.75128176587E+03  0.75128176587E+03  0.00000000000E+00 0. -1.
         -2   -1    0    0    0  501 -0.00000000000E+00 -0.00000000000E+00 -0.64876906689E+03  0.64876906689E+03  0.00000000000E+00 0.  1.
         23    2    1    2    0    0  0.12122987469E+03 -0.55518840264E+03 -0.34987526250E+03  0.67369987583E+03  0.92347054290E+02 0.  0.
         11    1    3    3    0    0  0.10764451530E+03 -0.29075394298E+03 -0.20744520875E+03  0.37303982584E+03  0.00000000000E+00 0. -1.
        -11    1    3    3    0    0  0.13585359397E+02 -0.26443445966E+03 -0.14243005376E+03  0.30066004999E+03  0.00000000000E+00 0.  1.
         22    1    1    2    0    0 -0.12122987469E+03  0.55518840264E+03  0.45238796149E+03  0.72635095694E+03  0.00000000000E+00 0. -1.
<mgrwt>
<rscale>  0 0.13962928E+04</rscale>
<asrwt>0</asrwt>
<pdfrwt beam="1">  1        2 0.11558181E+00 0.13962928E+04</pdfrwt>
<pdfrwt beam="2">  1       -2 0.99810626E-01 0.13962928E+04</pdfrwt>
<totfact> 0.30232308E+01</totfact>
</mgrwt>
</event>
<event>
 6    1  0.2238133E-007  0.1637881E+04  0.7818608E-02  0.8797608E-01
          2   -1    0    0  501    0  0.00000000000E+00  0.00000000000E+00  0.96416059901E+03  0.96416059901E+03  0.00000000000E+00 0. -1.
         -2   -1    0    0    0  501 -0.00000000000E+00 -0.00000000000E+00 -0.69559304745E+03  0.69559304745E+03  0.00000000000E+00 0.  1.
         23    2    1    2    0    0 -0.46853525695E+03  0.77940890236E+02  0.80754705631E+03  0.94135335699E+03  0.91726905408E+02 0.  0.
         13    1    3    3    0    0 -0.33683964682E+03  0.53897381329E+02  0.65416858039E+03  0.73776853210E+03  0.00000000000E+00 0. -1.
        -13    1    3    3    0    0 -0.13169561014E+03  0.24043508906E+02  0.15337847592E+03  0.20358482489E+03  0.00000000000E+00 0.  1.
         22    1    1    2    0    0  0.46853525695E+03 -0.77940890236E+02 -0.53897950475E+03  0.71840028948E+03  0.00000000000E+00 0.  1.
<mgrwt>
<rscale>  0 0.16378808E+04</rscale>
<asrwt>0</asrwt>
<pdfrwt beam="1">  1        2 0.14833240E+00 0.16378808E+04</pdfrwt>
<pdfrwt beam="2">  1       -2 0.10701431E+00 0.16378808E+04</pdfrwt>
<totfact> 0.17845387E+01</totfact>
</mgrwt>
</event>
<event>
 6    1  0.2238133E-007  0.1931028E+04  0.7818608E-02  0.8639564E-01
          2   -1    0    0  501    0  0.00000000000E+00  0.00000000000E+00  0.89248866800E+03  0.89248866800E+03  0.00000000000E+00 0. -1.
         -2   -1    0    0    0  501 -0.00000000000E+00 -0.00000000000E+00 -0.10445143438E+04  0.10445143438E+04  0.00000000000E+00 0.  1.
         23    2    1    2    0    0  0.48753464385E+03  0.20376885853E+03  0.73174240568E+03  0.90731480730E+03  0.92528020772E+02 0.  0.
         13    1    3    3    0    0  0.21338833574E+03  0.13609123303E+03  0.31861050393E+03  0.40690055143E+03  0.00000000000E+00 0. -1.
        -13    1    3    3    0    0  0.27414630811E+03  0.67677625499E+02  0.41313190174E+03  0.50041425587E+03  0.00000000000E+00 0.  1.
         22    1    1    2    0    0 -0.48753464385E+03 -0.20376885853E+03 -0.88376808150E+03  0.10296882045E+04  0.00000000000E+00 0.  1.
<mgrwt>
<rscale>  0 0.19310279E+04</rscale>
<asrwt>0</asrwt>
<pdfrwt beam="1">  1        2 0.13730595E+00 0.19310279E+04</pdfrwt>
<pdfrwt beam="2">  1       -2 0.16069452E+00 0.19310279E+04</pdfrwt>
<totfact> 0.68975807E+00</totfact>
</mgrwt>
</event>
<event>
 6    1  0.2238133E-007  0.4275292E+04  0.7818608E-02  0.7951203E-01
         -2   -1    0    0    0  501 -0.00000000000E+00  0.00000000000E+00  0.15573552089E+04  0.15573552089E+04  0.00000000000E+00 0.  1.
          2   -1    0    0  501    0  0.00000000000E+00 -0.00000000000E+00 -0.29341606446E+04  0.29341606446E+04  0.00000000000E+00 0. -1.
         23    2    1    2    0    0  0.14966950598E+04 -0.92921785813E+03  0.58146302487E+03  0.18574396790E+04  0.91874817242E+02 0.  0.
         11    1    3    3    0    0  0.10840237412E+04 -0.65904128690E+03  0.45996967762E+03  0.13494498855E+04  0.00000000000E+00 0. -1.
        -11    1    3    3    0    0  0.41267131860E+03 -0.27017657123E+03  0.12149334725E+03  0.50798979346E+03  0.00000000000E+00 0.  1.
         22    1    1    2    0    0 -0.14966950598E+04  0.92921785813E+03 -0.19582684605E+04  0.26340761745E+04  0.00000000000E+00 0. -1.
<mgrwt>
<rscale>  0 0.42752920E+04</rscale>
<asrwt>0</asrwt>
<pdfrwt beam="1">  1        2 0.45140933E+00 0.42752920E+04</pdfrwt>
<pdfrwt beam="2">  1       -2 0.23959311E+00 0.42752920E+04</pdfrwt>
<totfact> 0.10996775E-01</totfact>
</mgrwt>
</event>
<event>
 6    1  0.2238133E-007  0.4001694E+04  0.7818608E-02  0.8004205E-01
         -2   -1    0    0    0  501 -0.00000000000E+00  0.00000000000E+00  0.18875197028E+04  0.18875197028E+04  0.00000000000E+00 0.  1.
          2   -1    0    0  501    0  0.00000000000E+00 -0.00000000000E+00 -0.21209781652E+04  0.21209781652E+04  0.00000000000E+00 0. -1.
         23    2    1    2    0    0 -0.46616094557E+03  0.75582257601E+03 -0.19116999134E+04  0.21097961639E+04  0.89830398060E+02 0.  0.
         13    1    3    3    0    0 -0.31875340674E+03  0.53188808267E+03 -0.14267150587E+04  0.15556428014E+04  0.00000000000E+00 0.  1.
        -13    1    3    3    0    0 -0.14740753883E+03  0.22393449334E+03 -0.48498485474E+03  0.55415336247E+03  0.00000000000E+00 0. -1.
         22    1    1    2    0    0  0.46616094557E+03 -0.75582257601E+03  0.16782414510E+04  0.18987017042E+04  0.00000000000E+00 0.  1.
<mgrwt>
<rscale>  0 0.40016937E+04</rscale>
<asrwt>0</asrwt>
<pdfrwt beam="1">  1        2 0.32630433E+00 0.40016937E+04</pdfrwt>
<pdfrwt beam="2">  1       -2 0.29038765E+00 0.40016937E+04</pdfrwt>
<totfact> 0.16417207E-01</totfact>
</mgrwt>
</event>
<event>
 6    1  0.2238133E-007  0.1908620E+04  0.7818608E-02  0.8650577E-01
          2   -1    0    0  501    0  0.00000000000E+00  0.00000000000E+00  0.17633900644E+04  0.17633900644E+04  0.00000000000E+00 0. -1.
         -2   -1    0    0    0  501 -0.00000000000E+00 -0.00000000000E+00 -0.51645297882E+03  0.51645297882E+03  0.00000000000E+00 0.  1.
         23    2    1    2    0    0  0.69066411357E+03 -0.12895394958E+03 -0.14265757455E+03  0.72272411445E+03  0.91284846135E+02 0.  0.
         13    1    3    3    0    0  0.44363165594E+03 -0.10468706706E+03 -0.53360412038E+02  0.45892892885E+03  0.00000000000E+00 0. -1.
        -13    1    3    3    0    0  0.24703245763E+03 -0.24266882526E+02 -0.89297162510E+02  0.26379518560E+03  0.00000000000E+00 0.  1.
         22    1    1    2    0    0 -0.69066411357E+03  0.12895394958E+03  0.13895946601E+04  0.15571189288E+04  0.00000000000E+00 0. -1.
<mgrwt>
<rscale>  0 0.19086205E+04</rscale>
<asrwt>0</asrwt>
<pdfrwt beam="1">  1        2 0.27129078E+00 0.19086205E+04</pdfrwt>
<pdfrwt beam="2">  1       -2 0.79454305E-01 0.19086205E+04</pdfrwt>
<totfact> 0.11878852E+01</totfact>
</mgrwt>
</event>
<event>
 6    1  0.2238133E-007  0.2372896E+04  0.7818608E-02  0.8449721E-01
         -1   -1    0    0    0  501 -0.00000000000E+00  0.00000000000E+00  0.60072529947E+03  0.60072529947E+03  0.00000000000E+00 0.  1.
          1   -1    0    0  501    0  0.00000000000E+00 -0.00000000000E+00 -0.23432657634E+04  0.23432657634E+04  0.00000000000E+00 0. -1.
         23    2    1    2    0    0 -0.95101721173E+03  0.58256637155E+03 -0.13682424165E+04  0.17675913253E+04  0.92056877787E+02 0.  0.
         13    1    3    3    0    0 -0.58655336002E+03  0.37607491950E+03 -0.92018014060E+03  0.11542134466E+04  0.00000000000E+00 0. -1.
        -13    1    3    3    0    0 -0.36446385171E+03  0.20649145205E+03 -0.44806227589E+03  0.61337787868E+03  0.00000000000E+00 0.  1.
         22    1    1    2    0    0  0.95101721173E+03 -0.58256637155E+03 -0.37429804747E+03  0.11763997376E+04  0.00000000000E+00 0.  1.
<mgrwt>
<rscale>  0 0.23728961E+04</rscale>
<asrwt>0</asrwt>
<pdfrwt beam="1">  1        1 0.36050242E+00 0.23728961E+04</pdfrwt>
<pdfrwt beam="2">  1       -1 0.92419278E-01 0.23728961E+04</pdfrwt>
<totfact> 0.17776455E+00</totfact>
</mgrwt>
</event>
<event>
 6    1  0.2238133E-007  0.3047046E+04  0.7818608E-02  0.8230423E-01
         -2   -1    0    0    0  501 -0.00000000000E+00  0.00000000000E+00  0.10298274049E+04  0.10298274049E+04  0.00000000000E+00 0.  1.
          2   -1    0    0  501    0  0.00000000000E+00 -0.00000000000E+00 -0.22538937905E+04  0.22538937905E+04  0.00000000000E+00 0. -1.
         23    2    1    2    0    0 -0.70575768208E+03  0.15772418812E+03 -0.20560138521E+04  0.21814020890E+04  0.91385384137E+02 0.  0.
         13    1    3    3    0    0 -0.55880942345E+03  0.10569968909E+03 -0.17044458649E+04  0.17968238929E+04  0.00000000000E+00 0.  1.
        -13    1    3    3    0    0 -0.14694825863E+03  0.52024499028E+02 -0.35156798725E+03  0.38457819604E+03  0.00000000000E+00 0. -1.
         22    1    1    2    0    0  0.70575768208E+03 -0.15772418812E+03  0.83194746646E+03  0.11023191064E+04  0.00000000000E+00 0.  1.
<mgrwt>
<rscale>  0 0.30470455E+04</rscale>
<asrwt>0</asrwt>
<pdfrwt beam="1">  1        2 0.34675289E+00 0.30470455E+04</pdfrwt>
<pdfrwt beam="2">  1       -2 0.15843499E+00 0.30470455E+04</pdfrwt>
<totfact> 0.10621416E+00</totfact>
</mgrwt>
</event>
<event>
 6    1  0.2238133E-007  0.3995265E+04  0.7818608E-02  0.8005502E-01
         -2   -1    0    0    0  501 -0.00000000000E+00  0.00000000000E+00  0.15482128440E+04  0.15482128440E+04  0.00000000000E+00 0.  1.
          2   -1    0    0  501    0  0.00000000000E+00 -0.00000000000E+00 -0.25775115393E+04  0.25775115393E+04  0.00000000000E+00 0. -1.
         23    2    1    2    0    0  0.12182929163E+04 -0.62619394821E+03  0.98510288469E+03  0.16897091501E+04  0.91284323170E+02 0.  0.
         13    1    3    3    0    0  0.86658199095E+03 -0.40750113515E+03  0.65676841629E+03  0.11611917477E+04  0.00000000000E+00 0.  1.
        -13    1    3    3    0    0  0.35171092536E+03 -0.21869281306E+03  0.32833446840E+03  0.52851740240E+03  0.00000000000E+00 0. -1.
         22    1    1    2    0    0 -0.12182929163E+04  0.62619394821E+03 -0.20144015800E+04  0.24360152332E+04  0.00000000000E+00 0.  1.
<mgrwt>
<rscale>  0 0.39952654E+04</rscale>
<asrwt>0</asrwt>
<pdfrwt beam="1">  1        2 0.39654023E+00 0.39952654E+04</pdfrwt>
<pdfrwt beam="2">  1       -2 0.23818659E+00 0.39952654E+04</pdfrwt>
<totfact> 0.18819460E-01</totfact>
</mgrwt>
</event>
<event>
 6    1  0.2238133E-007  0.1806379E+04  0.7818608E-02  0.8702915E-01
          2   -1    0    0  501    0  0.00000000000E+00  0.00000000000E+00  0.14937920019E+04  0.14937920019E+04  0.00000000000E+00 0. -1.
         -2   -1    0    0    0  501 -0.00000000000E+00 -0.00000000000E+00 -0.54609425624E+03  0.54609425624E+03  0.00000000000E+00 0.  1.
         23    2    1    2    0    0  0.10628533681E+02 -0.42900710162E+03  0.13693066523E+04  0.14382932653E+04  0.97605072240E+02 0.  0.
         13    1    3    3    0    0 -0.13288911783E+02 -0.31760030312E+03  0.11189433239E+04  0.11632199749E+04  0.00000000000E+00 0.  1.
        -13    1    3    3    0    0  0.23917445464E+02 -0.11140679850E+03  0.25036332832E+03  0.27507329044E+03  0.00000000000E+00 0. -1.
         22    1    1    2    0    0 -0.10628533681E+02  0.42900710162E+03 -0.42160890657E+03  0.60159299287E+03  0.00000000000E+00 0.  1.
<mgrwt>
<rscale>  0 0.18063790E+04</rscale>
<asrwt>0</asrwt>
<pdfrwt beam="1">  1        2 0.22981415E+00 0.18063790E+04</pdfrwt>
<pdfrwt beam="2">  1       -2 0.84014502E-01 0.18063790E+04</pdfrwt>
<totfact> 0.14940880E+01</totfact>
</mgrwt>
</event>
<event>
 6    1  0.2238133E-007  0.2059743E+04  0.7818608E-02  0.8579187E-01
         -2   -1    0    0    0  501 -0.00000000000E+00  0.00000000000E+00  0.10555603136E+04  0.10555603136E+04  0.00000000000E+00 0.  1.
          2   -1    0    0  501    0  0.00000000000E+00 -0.00000000000E+00 -0.10048078272E+04  0.10048078272E+04  0.00000000000E+00 0. -1.
         23    2    1    2    0    0  0.83891457291E+01 -0.32105446625E+03 -0.95127440252E+03  0.10081304137E+04  0.90871305427E+02 0.  0.
         13    1    3    3    0    0 -0.32517498088E+02 -0.98554760658E+02 -0.37332438896E+03  0.38748100331E+03  0.00000000000E+00 0. -1.
        -13    1    3    3    0    0  0.40906643817E+02 -0.22249970560E+03 -0.57795001356E+03  0.62064941044E+03  0.00000000000E+00 0.  1.
         22    1    1    2    0    0 -0.83891457291E+01  0.32105446625E+03  0.10020268889E+04  0.10522377270E+04  0.00000000000E+00 0.  1.
<mgrwt>
<rscale>  0 0.20597430E+04</rscale>
<asrwt>0</asrwt>
<pdfrwt beam="1">  1        2 0.15458582E+00 0.20597430E+04</pdfrwt>
<pdfrwt beam="2">  1       -2 0.16239389E+00 0.20597430E+04</pdfrwt>
<totfact> 0.55920579E+00</totfact>
</mgrwt>
</event>
<event>
 6    1  0.2238133E-007  0.1326054E+04  0.7818608E-02  0.9009156E-01
         -2   -1    0    0    0  501 -0.00000000000E+00  0.00000000000E+00  0.17719446447E+03  0.17719446447E+03  0.00000000000E+00 0.  1.
          2   -1    0    0  501    0  0.00000000000E+00 -0.00000000000E+00 -0.24809165417E+04  0.24809165417E+04  0.00000000000E+00 0. -1.
         23    2    1    2    0    0 -0.13577824460E+03 -0.61774374219E+03 -0.77941609896E+03  0.10077923163E+04  0.90071276021E+02 0.  0.
         13    1    3    3    0    0 -0.55484431075E+02 -0.39293281622E+03 -0.43594297472E+03  0.58950911559E+03  0.00000000000E+00 0.  1.
        -13    1    3    3    0    0 -0.80293813523E+02 -0.22481092596E+03 -0.34347312424E+03  0.41828320071E+03  0.00000000000E+00 0. -1.
         22    1    1    2    0    0  0.13577824460E+03  0.61774374219E+03 -0.15243059782E+04  0.16503186898E+04  0.00000000000E+00 0. -1.
<mgrwt>
<rscale>  0 0.13260538E+04</rscale>
<asrwt>0</asrwt>
<pdfrwt beam="1">  1        2 0.38167947E+00 0.13260538E+04</pdfrwt>
<pdfrwt beam="2">  1       -2 0.27260686E-01 0.13260538E+04</pdfrwt>
<totfact> 0.42971272E+01</totfact>
</mgrwt>
</event>
<event>
 6    1  0.2238133E-007  0.1853696E+04  0.7818608E-02  0.8678255E-01
         -2   -1    0    0    0  501 -0.00000000000E+00  0.00000000000E+00  0.13730254898E+04  0.13730254898E+04  0.00000000000E+00 0.  1.
          2   -1    0    0  501    0  0.00000000000E+00 -0.00000000000E+00 -0.62565983987E+03  0.62565983987E+03  0.00000000000E+00 0. -1.
         23    2    1    2    0    0 -0.92038770730E+03  0.79126335359E+02  0.33628868697E+03  0.98756774098E+03  0.93943884077E+02 0.  0.
         11    1    3    3    0    0 -0.61419572368E+03  0.70280654423E+02  0.18112456461E+03  0.64419086091E+03  0.00000000000E+00 0.  1.
        -11    1    3    3    0    0 -0.30619198362E+03  0.88456809367E+01  0.15516412236E+03  0.34337688008E+03  0.00000000000E+00 0. -1.
         22    1    1    2    0    0  0.92038770730E+03 -0.79126335359E+02  0.41107696299E+03  0.10111175887E+04  0.00000000000E+00 0. -1.
<mgrwt>
<rscale>  0 0.18536957E+04</rscale>
<asrwt>0</asrwt>
<pdfrwt beam="1">  1        2 0.96255360E-01 0.18536957E+04</pdfrwt>
<pdfrwt beam="2">  1       -2 0.21123469E+00 0.18536957E+04</pdfrwt>
<totfact> 0.49773595E+00</totfact>
</mgrwt>
</event>
<event>
 6    1  0.2238133E-007  0.3277584E+04  0.7818608E-02  0.8168623E-01
         -2   -1    0    0    0  501 -0.00000000000E+00  0.00000000000E+00  0.80346120483E+03  0.80346120483E+03  0.00000000000E+00 0.  1.
          2   -1    0    0  501    0  0.00000000000E+00 -0.00000000000E+00 -0.33425879066E+04  0.33425879066E+04  0.00000000000E+00 0. -1.
         23    2    1    2    0    0 -0.90468601642E+03 -0.11243112119E+04 -0.29099294206E+03  0.14746004611E+04  0.85071370526E+02 0.  0.
         11    1    3    3    0    0 -0.53543368410E+03 -0.59911983817E+03 -0.15390325967E+03  0.81811981023E+03  0.00000000000E+00 0. -1.
        -11    1    3    3    0    0 -0.36925233232E+03 -0.52519137376E+03 -0.13708968239E+03  0.65648065091E+03  0.00000000000E+00 0.  1.
         22    1    1    2    0    0  0.90468601642E+03  0.11243112119E+04 -0.22481337597E+04  0.26714486503E+04  0.00000000000E+00 0.  1.
<mgrwt>
<rscale>  0 0.32775843E+04</rscale>
<asrwt>0</asrwt>
<pdfrwt beam="1">  1        2 0.51424429E+00 0.32775843E+04</pdfrwt>
<pdfrwt beam="2">  1       -2 0.12360942E+00 0.32775843E+04</pdfrwt>
<totfact> 0.42981791E-01</totfact>
</mgrwt>
</event>
<event>
 6    1  0.2238133E-007  0.5573039E+04  0.7818608E-02  0.7745718E-01
         -2   -1    0    0    0  501 -0.00000000000E+00  0.00000000000E+00  0.25415701001E+04  0.25415701001E+04  0.00000000000E+00 0.  1.
          2   -1    0    0  501    0  0.00000000000E+00 -0.00000000000E+00 -0.30550760828E+04  0.30550760828E+04  0.00000000000E+00 0. -1.
         23    2    1    2    0    0 -0.23840562779E+04  0.14249085942E+04 -0.47316229741E+03  0.28189283335E+04  0.91572656040E+02 0.  0.
         11    1    3    3    0    0 -0.15116830816E+04  0.87548060526E+03 -0.25984485552E+03  0.17661176003E+04  0.00000000000E+00 0. -1.
        -11    1    3    3    0    0 -0.87237319637E+03  0.54942798898E+03 -0.21331744190E+03  0.10528107332E+04  0.00000000000E+00 0.  1.
         22    1    1    2    0    0  0.23840562779E+04 -0.14249085942E+04 -0.40343685258E+02  0.27777178495E+04  0.00000000000E+00 0.  1.
<mgrwt>
<rscale>  0 0.55730387E+04</rscale>
<asrwt>0</asrwt>
<pdfrwt beam="1">  1        2 0.47001171E+00 0.55730387E+04</pdfrwt>
<pdfrwt beam="2">  1       -2 0.39101078E+00 0.55730387E+04</pdfrwt>
<totfact> 0.95031170E-03</totfact>
</mgrwt>
</event>
<event>
 6    1  0.2238133E-007  0.3095746E+04  0.7818608E-02  0.8216906E-01
         -2   -1    0    0    0  501 -0.00000000000E+00  0.00000000000E+00  0.14190936128E+04  0.14190936128E+04  0.00000000000E+00 0.  1.
          2   -1    0    0  501    0  0.00000000000E+00 -0.00000000000E+00 -0.16883384806E+04  0.16883384806E+04  0.00000000000E+00 0. -1.
         23    2    1    2    0    0 -0.85856007050E+03 -0.12131902645E+04 -0.56389714133E+03  0.15922502644E+04  0.91240922370E+02 0.  0.
         11    1    3    3    0    0 -0.51544772596E+03 -0.80055434184E+03 -0.37491826755E+03  0.10232972783E+04  0.00000000000E+00 0. -1.
        -11    1    3    3    0    0 -0.34311234454E+03 -0.41263592270E+03 -0.18897887378E+03  0.56895298612E+03  0.00000000000E+00 0.  1.
         22    1    1    2    0    0  0.85856007050E+03  0.12131902645E+04  0.29465227347E+03  0.15151818290E+04  0.00000000000E+00 0.  1.
<mgrwt>
<rscale>  0 0.30957457E+04</rscale>
<asrwt>0</asrwt>
<pdfrwt beam="1">  1        2 0.25974438E+00 0.30957457E+04</pdfrwt>
<pdfrwt beam="2">  1       -2 0.21832209E+00 0.30957457E+04</pdfrwt>
<totfact> 0.85643777E-01</totfact>
</mgrwt>
</event>
<event>
 6    1  0.2238133E-007  0.9694522E+03  0.7818608E-02  0.9342698E-01
         -2   -1    0    0    0  501 -0.00000000000E+00  0.00000000000E+00  0.14551153060E+04  0.14551153060E+04  0.00000000000E+00 0.  1.
          2   -1    0    0  501    0  0.00000000000E+00 -0.00000000000E+00 -0.16147133553E+03  0.16147133553E+03  0.00000000000E+00 0. -1.
         23    2    1    2    0    0 -0.40965507866E+03 -0.89611242287E+02  0.26047417921E+03  0.50155871552E+03  0.88695483887E+02 0.  0.
         11    1    3    3    0    0 -0.18114575885E+03 -0.37769543275E+01  0.80382157902E+02  0.19821539456E+03  0.00000000000E+00 0.  1.
        -11    1    3    3    0    0 -0.22850931981E+03 -0.85834287959E+02  0.18009202131E+03  0.30334332096E+03  0.00000000000E+00 0. -1.
         22    1    1    2    0    0  0.40965507866E+03  0.89611242287E+02  0.10331697913E+04  0.11150279260E+04  0.00000000000E+00 0.  1.
<mgrwt>
<rscale>  0 0.96945224E+03</rscale>
<asrwt>0</asrwt>
<pdfrwt beam="1">  1        2 0.24841745E-01 0.96945224E+03</pdfrwt>
<pdfrwt beam="2">  1       -2 0.22386388E+00 0.96945224E+03</pdfrwt>
<totfact> 0.20728836E+01</totfact>
</mgrwt>
</event>
<event>
 6    1  0.2238133E-007  0.3614960E+04  0.7818608E-02  0.8087073E-01
          2   -1    0    0  501    0  0.00000000000E+00  0.00000000000E+00  0.35597227667E+04  0.35597227667E+04  0.00000000000E+00 0. -1.
         -2   -1    0    0    0  501 -0.00000000000E+00 -0.00000000000E+00 -0.91776362718E+03  0.91776362718E+03  0.00000000000E+00 0.  1.
         23    2    1    2    0    0 -0.10655149905E+04 -0.14032695410E+04  0.82898175762E+03  0.19493695875E+04  0.91342402980E+02 0.  0.
         13    1    3    3    0    0 -0.27799345208E+03 -0.34326029537E+03  0.16727020274E+03  0.47232119421E+03  0.00000000000E+00 0. -1.
        -13    1    3    3    0    0 -0.78752153840E+03 -0.10600092456E+04  0.66171155488E+03  0.14770483933E+04  0.00000000000E+00 0.  1.
         22    1    1    2    0    0  0.10655149905E+04  0.14032695410E+04  0.18129773819E+04  0.25281168064E+04  0.00000000000E+00 0. -1.
<mgrwt>
<rscale>  0 0.36149601E+04</rscale>
<asrwt>0</asrwt>
<pdfrwt beam="1">  1        2 0.54764965E+00 0.36149601E+04</pdfrwt>
<pdfrwt beam="2">  1       -2 0.14119441E+00 0.36149601E+04</pdfrwt>
<totfact> 0.21059298E-01</totfact>
</mgrwt>
</event>
<event>
 6    1  0.2238133E-007  0.1606431E+04  0.7818608E-02  0.8816607E-01
          2   -1    0    0  501    0  0.00000000000E+00  0.00000000000E+00  0.63522225581E+03  0.63522225581E+03  0.00000000000E+00 0. -1.
         -2   -1    0    0    0  501 -0.00000000000E+00 -0.00000000000E+00 -0.10156373430E+04  0.10156373430E+04  0.00000000000E+00 0.  1.
         23    2    1    2    0    0 -0.16481362927E+03 -0.44348606613E+03  0.47284457072E+03  0.67520829478E+03  0.92091422221E+02 0.  0.
         13    1    3    3    0    0  0.11681890306E+02 -0.19548060102E+02  0.23570873578E+02  0.32774674615E+02  0.00000000000E+00 0. -1.
        -13    1    3    3    0    0 -0.17649551958E+03 -0.42393800602E+03  0.44927369714E+03  0.64243362017E+03  0.00000000000E+00 0.  1.
         22    1    1    2    0    0  0.16481362927E+03  0.44348606613E+03 -0.85325965792E+03  0.97565130404E+03  0.00000000000E+00 0.  1.
<mgrwt>
<rscale>  0 0.16064314E+04</rscale>
<asrwt>0</asrwt>
<pdfrwt beam="1">  1        2 0.97726502E-01 0.16064314E+04</pdfrwt>
<pdfrwt beam="2">  1       -2 0.15625190E+00 0.16064314E+04</pdfrwt>
<totfact> 0.11901409E+01</totfact>
</mgrwt>
</event>
<event>
 6    1  0.2238133E-007  0.3266161E+04  0.7818608E-02  0.8171559E-01
         -2   -1    0    0    0  501 -0.00000000000E+00  0.00000000000E+00  0.91191983291E+03  0.91191983291E+03  0.00000000000E+00 0.  1.
          2   -1    0    0  501    0  0.00000000000E+00 -0.00000000000E+00 -0.29245467535E+04  0.29245467535E+04  0.00000000000E+00 0. -1.
         23    2    1    2    0    0  0.80415395898E+03 -0.10099720196E+04  0.16576432681E+03  0.13042550042E+04  0.83043566810E+02 0.  0.
         11    1    3    3    0    0  0.26933283316E+03 -0.27750424086E+03  0.46115351950E+02  0.38945526624E+03  0.00000000000E+00 0.  1.
        -11    1    3    3    0    0  0.53482112583E+03 -0.73246777871E+03  0.11964897486E+03  0.91479973801E+03  0.00000000000E+00 0. -1.
         22    1    1    2    0    0 -0.80415395898E+03  0.10099720196E+04 -0.21783912474E+04  0.25322115822E+04  0.00000000000E+00 0. -1.
<mgrwt>
<rscale>  0 0.32661612E+04</rscale>
<asrwt>0</asrwt>
<pdfrwt beam="1">  1        2 0.44993028E+00 0.32661612E+04</pdfrwt>
<pdfrwt beam="2">  1       -2 0.14029536E+00 0.32661612E+04</pdfrwt>
<totfact> 0.58004746E-01</totfact>
</mgrwt>
</event>
<event>
 6    1  0.2238133E-007  0.4378738E+04  0.7818608E-02  0.7932217E-01
         -2   -1    0    0    0  501 -0.00000000000E+00  0.00000000000E+00  0.16314905378E+04  0.16314905378E+04  0.00000000000E+00 0.  1.
          2   -1    0    0  501    0  0.00000000000E+00 -0.00000000000E+00 -0.29380105239E+04  0.29380105239E+04  0.00000000000E+00 0. -1.
         23    2    1    2    0    0 -0.11831891509E+04 -0.12587727219E+04  0.74810135540E+03  0.18851176709E+04  0.97814432212E+02 0.  0.
         13    1    3    3    0    0 -0.75549418165E+03 -0.87056622761E+03  0.50463141717E+03  0.12582964207E+04  0.00000000000E+00 0.  1.
        -13    1    3    3    0    0 -0.42769496922E+03 -0.38820649425E+03  0.24346993823E+03  0.62682125019E+03  0.00000000000E+00 0. -1.
         22    1    1    2    0    0  0.11831891509E+04  0.12587727219E+04 -0.20546213415E+04  0.26843833908E+04  0.00000000000E+00 0. -1.
<mgrwt>
<rscale>  0 0.43787379E+04</rscale>
<asrwt>0</asrwt>
<pdfrwt beam="1">  1        2 0.45200162E+00 0.43787379E+04</pdfrwt>
<pdfrwt beam="2">  1       -2 0.25099854E+00 0.43787379E+04</pdfrwt>
<totfact> 0.92229435E-02</totfact>
</mgrwt>
</event>
<event>
 6    1  0.2238133E-007  0.2762680E+04  0.7818608E-02  0.8314949E-01
          2   -1    0    0  501    0  0.00000000000E+00  0.00000000000E+00  0.26361100666E+04  0.26361100666E+04  0.00000000000E+00 0. -1.
         -2   -1    0    0    0  501 -0.00000000000E+00 -0.00000000000E+00 -0.72383199115E+03  0.72383199115E+03  0.00000000000E+00 0.  1.
         23    2    1    2    0    0  0.39582079176E+03 -0.82201357791E+03 -0.30178645377E+03  0.96526835117E+03  0.91035732723E+02 0.  0.
         13    1    3    3    0    0  0.12747377270E+03 -0.27196481816E+03 -0.54909490865E+02  0.30533502457E+03  0.00000000000E+00 0. -1.
        -13    1    3    3    0    0  0.26834701906E+03 -0.55004875974E+03 -0.24687696291E+03  0.65993332659E+03  0.00000000000E+00 0.  1.
         22    1    1    2    0    0 -0.39582079176E+03  0.82201357791E+03  0.22140645292E+04  0.23946737066E+04  0.00000000000E+00 0. -1.
<mgrwt>
<rscale>  0 0.27626804E+04</rscale>
<asrwt>0</asrwt>
<pdfrwt beam="1">  1        2 0.40555539E+00 0.27626804E+04</pdfrwt>
<pdfrwt beam="2">  1       -2 0.11135877E+00 0.27626804E+04</pdfrwt>
<totfact> 0.16124658E+00</totfact>
</mgrwt>
</event>
<event>
 6    1  0.2238133E-007  0.3182682E+04  0.7818608E-02  0.8193406E-01
          2   -1    0    0  501    0  0.00000000000E+00  0.00000000000E+00  0.15764140701E+04  0.15764140701E+04  0.00000000000E+00 0. -1.
         -2   -1    0    0    0  501 -0.00000000000E+00 -0.00000000000E+00 -0.16064090266E+04  0.16064090266E+04  0.00000000000E+00 0.  1.
         23    2    1    2    0    0 -0.94125451751E+03 -0.21927490070E+03 -0.12776526664E+04  0.16046306782E+04  0.91660944261E+02 0.  0.
         11    1    3    3    0    0 -0.36558906852E+03 -0.10469476729E+03 -0.43631706926E+03  0.57878229607E+03  0.00000000000E+00 0.  1.
        -11    1    3    3    0    0 -0.57566544899E+03 -0.11458013341E+03 -0.84133559710E+03  0.10258483821E+04  0.00000000000E+00 0. -1.
         22    1    1    2    0    0  0.94125451751E+03  0.21927490070E+03  0.12476577099E+04  0.15781924185E+04  0.00000000000E+00 0. -1.
<mgrwt>
<rscale>  0 0.31826818E+04</rscale>
<asrwt>0</asrwt>
<pdfrwt beam="1">  1        2 0.24252524E+00 0.31826818E+04</pdfrwt>
<pdfrwt beam="2">  1       -2 0.24713985E+00 0.31826818E+04</pdfrwt>
<totfact> 0.64881888E-01</totfact>
</mgrwt>
</event>
<event>
 6    1  0.2238133E-007  0.2010967E+04  0.7818608E-02  0.8601510E-01
          2   -1    0    0  501    0  0.00000000000E+00  0.00000000000E+00  0.29010390215E+04  0.29010390215E+04  0.00000000000E+00 0. -1.
         -2   -1    0    0    0  501 -0.00000000000E+00 -0.00000000000E+00 -0.34849473807E+03  0.34849473807E+03  0.00000000000E+00 0.  1.
         23    2    1    2    0    0  0.39294507008E+03 -0.29080270864E+03  0.26948853725E+04  0.27403844405E+04  0.91256053134E+02 0.  0.
         13    1    3    3    0    0  0.24117178514E+03 -0.13525354768E+03  0.16668221951E+04  0.16896016045E+04  0.00000000000E+00 0.  1.
        -13    1    3    3    0    0  0.15177328493E+03 -0.15554916096E+03  0.10280631775E+04  0.10507828360E+04  0.00000000000E+00 0. -1.
         22    1    1    2    0    0 -0.39294507008E+03  0.29080270864E+03 -0.14234108910E+03  0.50914931906E+03  0.00000000000E+00 0.  1.
<mgrwt>
<rscale>  0 0.20109668E+04</rscale>
<asrwt>0</asrwt>
<pdfrwt beam="1">  1        2 0.44631368E+00 0.20109668E+04</pdfrwt>
<pdfrwt beam="2">  1       -2 0.53614577E-01 0.20109668E+04</pdfrwt>
<totfact> 0.61157222E+00</totfact>
</mgrwt>
</event>
<event>
 6    1  0.2238133E-007  0.2477720E+04  0.7818608E-02  0.8410966E-01
          2   -1    0    0  501    0  0.00000000000E+00  0.00000000000E+00  0.11688867853E+04  0.11688867853E+04  0.00000000000E+00 0. -1.
         -2   -1    0    0    0  501 -0.00000000000E+00 -0.00000000000E+00 -0.13130223673E+04  0.13130223673E+04  0.00000000000E+00 0.  1.
         23    2    1    2    0    0  0.41275202202E+03  0.52759871473E+03  0.96971381559E+03  0.11821456680E+04  0.91645298672E+02 0.  0.
         11    1    3    3    0    0  0.17004288548E+03  0.18438466441E+03  0.29522720870E+03  0.38739049050E+03  0.00000000000E+00 0.  1.
        -11    1    3    3    0    0  0.24270913654E+03  0.34321405032E+03  0.67448660689E+03  0.79475517750E+03  0.00000000000E+00 0. -1.
         22    1    1    2    0    0 -0.41275202202E+03 -0.52759871473E+03 -0.11138493976E+04  0.12997634846E+04  0.00000000000E+00 0.  1.
<mgrwt>
<rscale>  0 0.24777203E+04</rscale>
<asrwt>0</asrwt>
<pdfrwt beam="1">  1        2 0.17982874E+00 0.24777203E+04</pdfrwt>
<pdfrwt beam="2">  1       -2 0.20200344E+00 0.24777203E+04</pdfrwt>
<totfact> 0.22798040E+00</totfact>
</mgrwt>
</event>
<event>
 6    1  0.2238133E-007  0.2027007E+04  0.7818608E-02  0.8594097E-01
          2   -1    0    0  501    0  0.00000000000E+00  0.00000000000E+00  0.91940436928E+03  0.91940436928E+03  0.00000000000E+00 0. -1.
         -2   -1    0    0    0  501 -0.00000000000E+00 -0.00000000000E+00 -0.11172334565E+04  0.11172334565E+04  0.00000000000E+00 0.  1.
         23    2    1    2    0    0  0.69068214998E+03 -0.22005631108E+03 -0.80787503385E+03  0.10892083195E+04  0.90807932581E+02 0.  0.
         13    1    3    3    0    0  0.56139352123E+03 -0.17703925700E+03 -0.59904712228E+03  0.83985893988E+03  0.00000000000E+00 0.  1.
        -13    1    3    3    0    0  0.12928862875E+03 -0.43017054081E+02 -0.20882791157E+03  0.24934937962E+03  0.00000000000E+00 0. -1.
         22    1    1    2    0    0 -0.69068214998E+03  0.22005631108E+03  0.61004594664E+03  0.94742950627E+03  0.00000000000E+00 0. -1.
<mgrwt>
<rscale>  0 0.20270070E+04</rscale>
<asrwt>0</asrwt>
<pdfrwt beam="1">  1        2 0.14144683E+00 0.20270070E+04</pdfrwt>
<pdfrwt beam="2">  1       -2 0.17188207E+00 0.20270070E+04</pdfrwt>
<totfact> 0.54496032E+00</totfact>
</mgrwt>
</event>
<event>
 6    1  0.2238133E-007  0.1721799E+04  0.7818608E-02  0.8749029E-01
         -2   -1    0    0    0  501 -0.00000000000E+00  0.00000000000E+00  0.10076734620E+04  0.10076734620E+04  0.00000000000E+00 0.  1.
          2   -1    0    0  501    0  0.00000000000E+00 -0.00000000000E+00 -0.73550368131E+03  0.73550368131E+03  0.00000000000E+00 0. -1.
         23    2    1    2    0    0 -0.16863998609E+03  0.24980730377E+03  0.95020462265E+03  0.10011701481E+04  0.92788504884E+02 0.  0.
         13    1    3    3    0    0 -0.17427469868E+03  0.20027311232E+03  0.79530718340E+03  0.83844767642E+03  0.00000000000E+00 0.  1.
        -13    1    3    3    0    0  0.56347125930E+01  0.49534191444E+02  0.15489743925E+03  0.16272247170E+03  0.00000000000E+00 0. -1.
         22    1    1    2    0    0  0.16863998609E+03 -0.24980730377E+03 -0.67803484199E+03  0.74200699516E+03  0.00000000000E+00 0. -1.
<mgrwt>
<rscale>  0 0.17217985E+04</rscale>
<asrwt>0</asrwt>
<pdfrwt beam="1">  1        2 0.11315441E+00 0.17217985E+04</pdfrwt>
<pdfrwt beam="2">  1       -2 0.15502669E+00 0.17217985E+04</pdfrwt>
<totfact> 0.10019414E+01</totfact>
</mgrwt>
</event>
<event>
 6    1  0.2238133E-007  0.2246954E+04  0.7818608E-02  0.8499135E-01
         -2   -1    0    0    0  501 -0.00000000000E+00  0.00000000000E+00  0.77732690541E+03  0.77732690541E+03  0.00000000000E+00 0.  1.
          2   -1    0    0  501    0  0.00000000000E+00 -0.00000000000E+00 -0.16237707318E+04  0.16237707318E+04  0.00000000000E+00 0. -1.
         23    2    1    2    0    0  0.44735236047E+03  0.71261486393E+03  0.36860305830E+03  0.92316563245E+03  0.91774133817E+02 0.  0.
         11    1    3    3    0    0  0.24343575192E+03  0.35253448617E+03  0.14178947787E+03  0.45127129899E+03  0.00000000000E+00 0.  1.
        -11    1    3    3    0    0  0.20391660855E+03  0.36008037776E+03  0.22681358043E+03  0.47189433346E+03  0.00000000000E+00 0. -1.
         22    1    1    2    0    0 -0.44735236047E+03 -0.71261486393E+03 -0.12150468847E+04  0.14779320048E+04  0.00000000000E+00 0. -1.
<mgrwt>
<rscale>  0 0.22469541E+04</rscale>
<asrwt>0</asrwt>
<pdfrwt beam="1">  1        2 0.24981088E+00 0.22469541E+04</pdfrwt>
<pdfrwt beam="2">  1       -2 0.11958876E+00 0.22469541E+04</pdfrwt>
<totfact> 0.52748811E+00</totfact>
</mgrwt>
</event>
<event>
 6    1  0.2238133E-007  0.6028568E+04  0.7818608E-02  0.7686870E-01
          2   -1    0    0  501    0  0.00000000000E+00  0.00000000000E+00  0.44776723209E+04  0.44776723209E+04  0.00000000000E+00 0. -1.
         -2   -1    0    0    0  501 -0.00000000000E+00 -0.00000000000E+00 -0.20291588961E+04  0.20291588961E+04  0.00000000000E+00 0.  1.
         23    2    1    2    0    0 -0.19053240709E+04  0.10755376446E+04 -0.10122132212E+04  0.24124851205E+04  0.92020710189E+02 0.  0.
         13    1    3    3    0    0 -0.13496978866E+04  0.71663858484E+03 -0.68961356051E+03  0.16765506581E+04  0.00000000000E+00 0.  1.
        -13    1    3    3    0    0 -0.55562618433E+03  0.35889905978E+03 -0.32259966067E+03  0.73593446236E+03  0.00000000000E+00 0. -1.
         22    1    1    2    0    0  0.19053240709E+04 -0.10755376446E+04  0.34607266460E+04  0.40943460966E+04  0.00000000000E+00 0. -1.
<mgrwt>
<rscale>  0 0.60285682E+04</rscale>
<asrwt>0</asrwt>
<pdfrwt beam="1">  1        2 0.68887266E+00 0.60285682E+04</pdfrwt>
<pdfrwt beam="2">  1       -2 0.31217829E+00 0.60285682E+04</pdfrwt>
<totfact> 0.22988280E-03</totfact>
</mgrwt>
</event>
<event>
 6    1  0.2238133E-007  0.2322433E+04  0.7818608E-02  0.8469128E-01
          2   -1    0    0  501    0  0.00000000000E+00  0.00000000000E+00  0.12754826431E+04  0.12754826431E+04  0.00000000000E+00 0. -1.
         -2   -1    0    0    0  501 -0.00000000000E+00 -0.00000000000E+00 -0.10571866379E+04  0.10571866379E+04  0.00000000000E+00 0.  1.
         23    2    1    2    0    0 -0.11214594816E+04 -0.25433020216E+03  0.25803686858E+03  0.11820457297E+04  0.91070636526E+02 0.  0.
         13    1    3    3    0    0 -0.24977431705E+03 -0.43050379004E+02  0.20988006717E+02  0.25432467638E+03  0.00000000000E+00 0. -1.
        -13    1    3    3    0    0 -0.87168516455E+03 -0.21127982315E+03  0.23704886187E+03  0.92772105327E+03  0.00000000000E+00 0.  1.
         22    1    1    2    0    0  0.11214594816E+04  0.25433020216E+03 -0.39740863385E+02  0.11506235513E+04  0.00000000000E+00 0.  1.
<mgrwt>
<rscale>  0 0.23224325E+04</rscale>
<asrwt>0</asrwt>
<pdfrwt beam="1">  1        2 0.19622810E+00 0.23224325E+04</pdfrwt>
<pdfrwt beam="2">  1       -2 0.16264410E+00 0.23224325E+04</pdfrwt>
<totfact> 0.37246514E+00</totfact>
</mgrwt>
</event>
<event>
 6    1  0.2238133E-007  0.4537536E+03  0.7818608E-02  0.1026609E+00
         -2   -1    0    0    0  501 -0.00000000000E+00  0.00000000000E+00  0.62620068530E+02  0.62620068530E+02  0.00000000000E+00 0.  1.
          2   -1    0    0  501    0  0.00000000000E+00 -0.00000000000E+00 -0.82199002562E+03  0.82199002562E+03  0.00000000000E+00 0. -1.
         23    2    1    2    0    0 -0.39179486979E+00  0.16100217328E+03 -0.68075163978E+03  0.70543784986E+03  0.91092873785E+02 0.  0.
         13    1    3    3    0    0 -0.41432602425E+01  0.48193227361E+02 -0.74897376244E+02  0.89159243700E+02  0.00000000000E+00 0.  1.
        -13    1    3    3    0    0  0.37514653727E+01  0.11280894592E+03 -0.60585426353E+03  0.61627860616E+03  0.00000000000E+00 0. -1.
         22    1    1    2    0    0  0.39179486979E+00 -0.16100217328E+03 -0.78618317311E+02  0.17917224429E+03  0.00000000000E+00 0.  1.
<mgrwt>
<rscale>  0 0.45375355E+03</rscale>
<asrwt>0</asrwt>
<pdfrwt beam="1">  1        2 0.12646000E+00 0.45375355E+03</pdfrwt>
<pdfrwt beam="2">  1       -2 0.96338570E-02 0.45375355E+03</pdfrwt>
<totfact> 0.24219445E+03</totfact>
</mgrwt>
</event>
<event>
 6    1  0.2238133E-007  0.1296918E+04  0.7818608E-02  0.9032013E-01
         -2   -1    0    0    0  501 -0.00000000000E+00  0.00000000000E+00  0.39138873803E+03  0.39138873803E+03  0.00000000000E+00 0.  1.
          2   -1    0    0  501    0  0.00000000000E+00 -0.00000000000E+00 -0.10743771174E+04  0.10743771174E+04  0.00000000000E+00 0. -1.
         23    2    1    2    0    0 -0.47433588381E+03  0.37869171107E+03 -0.58952772216E+03  0.85165117789E+03  0.96772159817E+02 0.  0.
         11    1    3    3    0    0 -0.44242808140E+02  0.57836145490E+02 -0.37894670752E+02  0.82088073851E+02  0.00000000000E+00 0. -1.
        -11    1    3    3    0    0 -0.43009307567E+03  0.32085556558E+03 -0.55163305140E+03  0.76956310404E+03  0.00000000000E+00 0.  1.
         22    1    1    2    0    0  0.47433588381E+03 -0.37869171107E+03 -0.93460657198E+02  0.61411467752E+03  0.00000000000E+00 0. -1.
<mgrwt>
<rscale>  0 0.12969180E+04</rscale>
<asrwt>0</asrwt>
<pdfrwt beam="1">  1        2 0.16528878E+00 0.12969180E+04</pdfrwt>
<pdfrwt beam="2">  1       -2 0.60213653E-01 0.12969180E+04</pdfrwt>
<totfact> 0.56955472E+01</totfact>
</mgrwt>
</event>
<event>
 6    1  0.2238133E-007  0.1509576E+04  0.7818608E-02  0.8878110E-01
         -2   -1    0    0    0  501 -0.00000000000E+00  0.00000000000E+00  0.28781877325E+03  0.28781877325E+03  0.00000000000E+00 0.  1.
          2   -1    0    0  501    0  0.00000000000E+00 -0.00000000000E+00 -0.19793869332E+04  0.19793869332E+04  0.00000000000E+00 0. -1.
         23    2    1    2    0    0  0.43663260907E+03  0.60075058656E+03 -0.10255999715E+04  0.12696772955E+04  0.93144139302E+02 0.  0.
         11    1    3    3    0    0  0.36481314140E+03  0.51460330602E+03 -0.80998491322E+03  0.10266356463E+04  0.00000000000E+00 0. -1.
        -11    1    3    3    0    0  0.71819467665E+02  0.86147280549E+02 -0.21561505828E+03  0.24304164919E+03  0.00000000000E+00 0.  1.
         22    1    1    2    0    0 -0.43663260907E+03 -0.60075058656E+03 -0.66596818844E+03  0.99752841091E+03  0.00000000000E+00 0.  1.
<mgrwt>
<rscale>  0 0.15095757E+04</rscale>
<asrwt>0</asrwt>
<pdfrwt beam="1">  1        2 0.30452107E+00 0.15095757E+04</pdfrwt>
<pdfrwt beam="2">  1       -2 0.44279811E-01 0.15095757E+04</pdfrwt>
<totfact> 0.32045277E+01</totfact>
</mgrwt>
</event>
<event>
 6    1  0.2238133E-007  0.1831727E+04  0.7818608E-02  0.8689607E-01
         -1   -1    0    0    0  501 -0.00000000000E+00  0.00000000000E+00  0.45954730344E+03  0.45954730344E+03  0.00000000000E+00 0.  1.
          1   -1    0    0  501    0  0.00000000000E+00 -0.00000000000E+00 -0.18252876085E+04  0.18252876085E+04  0.00000000000E+00 0. -1.
         23    2    1    2    0    0  0.48167790294E+03  0.58818782235E+03 -0.13164760159E+04  0.15229914327E+04  0.91734874443E+02 0.  0.
         11    1    3    3    0    0  0.14023944456E+03  0.21850917908E+03 -0.38697189504E+03  0.46600494708E+03  0.00000000000E+00 0. -1.
        -11    1    3    3    0    0  0.34143845839E+03  0.36967864327E+03 -0.92950412088E+03  0.10569864857E+04  0.00000000000E+00 0.  1.
         22    1    1    2    0    0 -0.48167790294E+03 -0.58818782235E+03 -0.49264289109E+02  0.76184347915E+03  0.00000000000E+00 0.  1.
<mgrwt>
<rscale>  0 0.18317271E+04</rscale>
<asrwt>0</asrwt>
<pdfrwt beam="1">  1        1 0.28081348E+00 0.18317271E+04</pdfrwt>
<pdfrwt beam="2">  1       -1 0.70699585E-01 0.18317271E+04</pdfrwt>
<totfact> 0.74486463E+00</totfact>
</mgrwt>
</event>
<event>
 6    1  0.2238133E-007  0.8206214E+03  0.7818608E-02  0.9530639E-01
          4   -1    0    0  501    0  0.00000000000E+00  0.00000000000E+00  0.70713064836E+03  0.70713064836E+03  0.00000000000E+00 0. -1.
         -4   -1    0    0    0  501 -0.00000000000E+00 -0.00000000000E+00 -0.23808171577E+03  0.23808171577E+03  0.00000000000E+00 0.  1.
         23    2    1    2    0    0 -0.34676129026E+03  0.17060039201E+03  0.37804301173E+03  0.54818596223E+03  0.90793415441E+02 0.  0.
         13    1    3    3    0    0 -0.11007153713E+03  0.94911432636E+01  0.97947387480E+02  0.14764659089E+03  0.00000000000E+00 0. -1.
        -13    1    3    3    0    0 -0.23668975313E+03  0.16110924874E+03  0.28009562425E+03  0.40053937133E+03  0.00000000000E+00 0.  1.
         22    1    1    2    0    0  0.34676129026E+03 -0.17060039201E+03  0.91005920861E+02  0.39702640191E+03  0.00000000000E+00 0.  1.
<mgrwt>
<rscale>  0 0.82062142E+03</rscale>
<asrwt>0</asrwt>
<pdfrwt beam="1">  1        4 0.10878933E+00 0.82062142E+03</pdfrwt>
<pdfrwt beam="2">  1       -4 0.36627957E-01 0.82062142E+03</pdfrwt>
<totfact> 0.97508789E+00</totfact>
</mgrwt>
</event>
<event>
 6    1  0.2238133E-007  0.3694057E+04  0.7818608E-02  0.8069280E-01
          2   -1    0    0  501    0  0.00000000000E+00  0.00000000000E+00  0.15191873859E+04  0.15191873859E+04  0.00000000000E+00 0. -1.
         -2   -1    0    0    0  501 -0.00000000000E+00 -0.00000000000E+00 -0.22456178518E+04  0.22456178518E+04  0.00000000000E+00 0.  1.
         23    2    1    2    0    0 -0.10550491991E+04  0.12928363032E+04 -0.11677411032E+04  0.20387375687E+04  0.90978406393E+02 0.  0.
         13    1    3    3    0    0 -0.81766720093E+03  0.93982481049E+03 -0.87671269702E+03  0.15233106968E+04  0.00000000000E+00 0.  1.
        -13    1    3    3    0    0 -0.23738199821E+03  0.35301149274E+03 -0.29102840614E+03  0.51542687188E+03  0.00000000000E+00 0. -1.
         22    1    1    2    0    0  0.10550491991E+04 -0.12928363032E+04  0.44131063727E+03  0.17260676690E+04  0.00000000000E+00 0. -1.
<mgrwt>
<rscale>  0 0.36940570E+04</rscale>
<asrwt>0</asrwt>
<pdfrwt beam="1">  1        2 0.23372114E+00 0.36940570E+04</pdfrwt>
<pdfrwt beam="2">  1       -2 0.34547967E+00 0.36940570E+04</pdfrwt>
<totfact> 0.16629048E-01</totfact>
</mgrwt>
</event>
<event>
 6    1  0.2238133E-007  0.1817689E+04  0.7818608E-02  0.8696949E-01
          2   -1    0    0  501    0  0.00000000000E+00  0.00000000000E+00  0.12961338689E+04  0.12961338689E+04  0.00000000000E+00 0. -1.
         -2   -1    0    0    0  501 -0.00000000000E+00 -0.00000000000E+00 -0.63727877464E+03  0.63727877464E+03  0.00000000000E+00 0.  1.
         23    2    1    2    0    0  0.19152426998E+03  0.88517283221E+03  0.28823380548E+03  0.95485624326E+03  0.91974071293E+02 0.  0.
         11    1    3    3    0    0  0.15518097491E+03  0.51001451811E+03  0.15677735551E+03  0.55567533944E+03  0.00000000000E+00 0.  1.
        -11    1    3    3    0    0  0.36343295062E+02  0.37515831410E+03  0.13145644997E+03  0.39918090382E+03  0.00000000000E+00 0. -1.
         22    1    1    2    0    0 -0.19152426998E+03 -0.88517283221E+03  0.37062128881E+03  0.97855640031E+03  0.00000000000E+00 0.  1.
<mgrwt>
<rscale>  0 0.18176893E+04</rscale>
<asrwt>0</asrwt>
<pdfrwt beam="1">  1        2 0.19940521E+00 0.18176893E+04</pdfrwt>
<pdfrwt beam="2">  1       -2 0.98042888E-01 0.18176893E+04</pdfrwt>
<totfact> 0.13561115E+01</totfact>
</mgrwt>
</event>
<event>
 6    1  0.2238133E-007  0.2697462E+04  0.7818608E-02  0.8335829E-01
          2   -1    0    0  501    0  0.00000000000E+00  0.00000000000E+00  0.13235956658E+04  0.13235956658E+04  0.00000000000E+00 0. -1.
         -2   -1    0    0    0  501 -0.00000000000E+00 -0.00000000000E+00 -0.13743437127E+04  0.13743437127E+04  0.00000000000E+00 0.  1.
         23    2    1    2    0    0 -0.69385419037E+03 -0.17457819874E+03 -0.11671120074E+04  0.13719756997E+04  0.90860870665E+02 0.  0.
         13    1    3    3    0    0 -0.28081998687E+03 -0.41897752747E+02 -0.52865737853E+03  0.60007825371E+03  0.00000000000E+00 0. -1.
        -13    1    3    3    0    0 -0.41303420351E+03 -0.13268044599E+03 -0.63845462890E+03  0.77189744602E+03  0.00000000000E+00 0.  1.
         22    1    1    2    0    0  0.69385419037E+03  0.17457819874E+03  0.11163639606E+04  0.13259636788E+04  0.00000000000E+00 0. -1.
<mgrwt>
<rscale>  0 0.26974621E+04</rscale>
<asrwt>0</asrwt>
<pdfrwt beam="1">  1        2 0.20363010E+00 0.26974621E+04</pdfrwt>
<pdfrwt beam="2">  1       -2 0.21143749E+00 0.26974621E+04</pdfrwt>
<totfact> 0.15754565E+00</totfact>
</mgrwt>
</event>
<event>
 6    1  0.2238133E-007  0.2451375E+04  0.7818608E-02  0.8420516E-01
         -1   -1    0    0    0  501 -0.00000000000E+00  0.00000000000E+00  0.54363680032E+03  0.54363680032E+03  0.00000000000E+00 0.  1.
          1   -1    0    0  501    0  0.00000000000E+00 -0.00000000000E+00 -0.27634449097E+04  0.27634449097E+04  0.00000000000E+00 0. -1.
         23    2    1    2    0    0 -0.20204940854E+03 -0.75216992637E+03 -0.23852847527E+04  0.25108618402E+04  0.90886011744E+02 0.  0.
         11    1    3    3    0    0 -0.16020149997E+03 -0.44369437532E+03 -0.15010461740E+04  0.15734258279E+04  0.00000000000E+00 0. -1.
        -11    1    3    3    0    0 -0.41847908571E+02 -0.30847555105E+03 -0.88423857872E+03  0.93743601229E+03  0.00000000000E+00 0.  1.
         22    1    1    2    0    0  0.20204940854E+03  0.75216992637E+03  0.16547664337E+03  0.79621986984E+03  0.00000000000E+00 0.  1.
<mgrwt>
<rscale>  0 0.24513754E+04</rscale>
<asrwt>0</asrwt>
<pdfrwt beam="1">  1        1 0.42514537E+00 0.24513754E+04</pdfrwt>
<pdfrwt beam="2">  1       -1 0.83636430E-01 0.24513754E+04</pdfrwt>
<totfact> 0.11191971E+00</totfact>
</mgrwt>
</event>
<event>
 6    1  0.2238133E-007  0.1563788E+04  0.7818608E-02  0.8843109E-01
         -2   -1    0    0    0  501 -0.00000000000E+00  0.00000000000E+00  0.12294022356E+04  0.12294022356E+04  0.00000000000E+00 0.  1.
          2   -1    0    0  501    0  0.00000000000E+00 -0.00000000000E+00 -0.49728056700E+03  0.49728056700E+03  0.00000000000E+00 0. -1.
         23    2    1    2    0    0 -0.72599591778E+03 -0.27023186500E+03  0.46178762849E+03  0.90620987390E+03  0.88730988024E+02 0.  0.
         13    1    3    3    0    0 -0.36882587825E+03 -0.16750206354E+03  0.28038502665E+03  0.49265122848E+03  0.00000000000E+00 0. -1.
        -13    1    3    3    0    0 -0.35717003953E+03 -0.10272980146E+03  0.18140260184E+03  0.41355864542E+03  0.00000000000E+00 0.  1.
         22    1    1    2    0    0  0.72599591778E+03  0.27023186500E+03  0.27033404012E+03  0.82047292871E+03  0.00000000000E+00 0. -1.
<mgrwt>
<rscale>  0 0.15637875E+04</rscale>
<asrwt>0</asrwt>
<pdfrwt beam="1">  1        2 0.76504703E-01 0.15637875E+04</pdfrwt>
<pdfrwt beam="2">  1       -2 0.18913881E+00 0.15637875E+04</pdfrwt>
<totfact> 0.93506387E+00</totfact>
</mgrwt>
</event>
<event>
 6    1  0.2238133E-007  0.1247363E+04  0.7818608E-02  0.9072381E-01
         -3   -1    0    0    0  501 -0.00000000000E+00  0.00000000000E+00  0.44826746730E+03  0.44826746730E+03  0.00000000000E+00 0.  1.
          3   -1    0    0  501    0  0.00000000000E+00 -0.00000000000E+00 -0.86773834551E+03  0.86773834551E+03  0.00000000000E+00 0. -1.
         23    2    1    2    0    0 -0.53029286696E+03  0.15477314037E+03 -0.50828992195E+03  0.75649346061E+03  0.93586652151E+02 0.  0.
         11    1    3    3    0    0 -0.68236028459E+02  0.15692194445E+02 -0.11200154905E+03  0.13208613681E+03  0.00000000000E+00 0. -1.
        -11    1    3    3    0    0 -0.46205683850E+03  0.13908094593E+03 -0.39628837290E+03  0.62440732380E+03  0.00000000000E+00 0.  1.
         22    1    1    2    0    0  0.53029286696E+03 -0.15477314037E+03  0.88819043745E+02  0.55951235220E+03  0.00000000000E+00 0.  1.
<mgrwt>
<rscale>  0 0.12473634E+04</rscale>
<asrwt>0</asrwt>
<pdfrwt beam="1">  1        3 0.13349821E+00 0.12473634E+04</pdfrwt>
<pdfrwt beam="2">  1       -3 0.68964226E-01 0.12473634E+04</pdfrwt>
<totfact> 0.22625129E+00</totfact>
</mgrwt>
</event>
<event>
 6    1  0.2238133E-007  0.1209242E+04  0.7818608E-02  0.9104805E-01
         -2   -1    0    0    0  501 -0.00000000000E+00  0.00000000000E+00  0.21268914600E+03  0.21268914600E+03  0.00000000000E+00 0.  1.
          2   -1    0    0  501    0  0.00000000000E+00 -0.00000000000E+00 -0.17187829171E+04  0.17187829171E+04  0.00000000000E+00 0. -1.
         23    2    1    2    0    0  0.23350271892E+03  0.15238614001E+03 -0.16080700714E+04  0.16345811383E+04  0.90670214015E+02 0.  0.
         11    1    3    3    0    0  0.87167506535E+02  0.67063641962E+02 -0.89166693639E+03  0.89842397103E+03  0.00000000000E+00 0. -1.
        -11    1    3    3    0    0  0.14633521239E+03  0.85322498051E+02 -0.71640313503E+03  0.73615716728E+03  0.00000000000E+00 0.  1.
         22    1    1    2    0    0 -0.23350271892E+03 -0.15238614001E+03  0.10197630030E+03  0.29689092481E+03  0.00000000000E+00 0.  1.
<mgrwt>
<rscale>  0 0.12092419E+04</rscale>
<asrwt>0</asrwt>
<pdfrwt beam="1">  1        2 0.26442813E+00 0.12092419E+04</pdfrwt>
<pdfrwt beam="2">  1       -2 0.32721408E-01 0.12092419E+04</pdfrwt>
<totfact> 0.82215071E+01</totfact>
</mgrwt>
</event>
<event>
 6    1  0.2238133E-007  0.3588588E+04  0.7818608E-02  0.8093111E-01
         -2   -1    0    0    0  501 -0.00000000000E+00  0.00000000000E+00  0.23247084836E+04  0.23247084836E+04  0.00000000000E+00 0.  1.
          2   -1    0    0  501    0  0.00000000000E+00 -0.00000000000E+00 -0.13849007694E+04  0.13849007694E+04  0.00000000000E+00 0. -1.
         23    2    1    2    0    0  0.43623000514E+03 -0.21846074288E+03 -0.13134761799E+04  0.14041136402E+04  0.91069894387E+02 0.  0.
         11    1    3    3    0    0  0.30274424307E+03 -0.17303510638E+03 -0.82434266898E+03  0.89506204291E+03  0.00000000000E+00 0. -1.
        -11    1    3    3    0    0  0.13348576207E+03 -0.45425636501E+02 -0.48913351095E+03  0.50905159725E+03  0.00000000000E+00 0.  1.
         22    1    1    2    0    0 -0.43623000514E+03  0.21846074288E+03  0.22532838941E+04  0.23054956129E+04  0.00000000000E+00 0.  1.
<mgrwt>
<rscale>  0 0.35885878E+04</rscale>
<asrwt>0</asrwt>
<pdfrwt beam="1">  1        2 0.21306166E+00 0.35885878E+04</pdfrwt>
<pdfrwt beam="2">  1       -2 0.35764746E+00 0.35885878E+04</pdfrwt>
<totfact> 0.16753669E-01</totfact>
</mgrwt>
</event>
<event>
 6    1  0.2238133E-007  0.2240994E+04  0.7818608E-02  0.8501557E-01
         -2   -1    0    0    0  501 -0.00000000000E+00  0.00000000000E+00  0.51389872315E+03  0.51389872315E+03  0.00000000000E+00 0.  1.
          2   -1    0    0  501    0  0.00000000000E+00 -0.00000000000E+00 -0.24431142685E+04  0.24431142685E+04  0.00000000000E+00 0. -1.
         23    2    1    2    0    0  0.86119360503E+03 -0.17387071809E+03 -0.18799722651E+04  0.20770639292E+04  0.89517575741E+02 0.  0.
         11    1    3    3    0    0  0.39202628413E+03 -0.60269913894E+02 -0.75343928199E+03  0.85146216687E+03  0.00000000000E+00 0.  1.
        -11    1    3    3    0    0  0.46916732090E+03 -0.11360080419E+03 -0.11265329831E+04  0.12256017623E+04  0.00000000000E+00 0. -1.
         22    1    1    2    0    0 -0.86119360503E+03  0.17387071809E+03 -0.49243280272E+02  0.87994906251E+03  0.00000000000E+00 0. -1.
<mgrwt>
<rscale>  0 0.22409938E+04</rscale>
<asrwt>0</asrwt>
<pdfrwt beam="1">  1        2 0.37586373E+00 0.22409938E+04</pdfrwt>
<pdfrwt beam="2">  1       -2 0.79061342E-01 0.22409938E+04</pdfrwt>
<totfact> 0.48555062E+00</totfact>
</mgrwt>
</event>
<event>
 6    1  0.2238133E-007  0.2147011E+04  0.7818608E-02  0.8540813E-01
          2   -1    0    0  501    0  0.00000000000E+00  0.00000000000E+00  0.19373399697E+04  0.19373399697E+04  0.00000000000E+00 0. -1.
         -2   -1    0    0    0  501 -0.00000000000E+00 -0.00000000000E+00 -0.59484370179E+03  0.59484370179E+03  0.00000000000E+00 0.  1.
         23    2    1    2    0    0  0.87446823877E+03  0.54113421761E+03  0.31690412673E+03  0.10798200179E+04  0.89789217266E+02 0.  0.
         13    1    3    3    0    0  0.42457841374E+03  0.21015085211E+03  0.14703811565E+03  0.49603469386E+03  0.00000000000E+00 0.  1.
        -13    1    3    3    0    0  0.44988982503E+03  0.33098336550E+03  0.16986601107E+03  0.58378532409E+03  0.00000000000E+00 0. -1.
         22    1    1    2    0    0 -0.87446823877E+03 -0.54113421761E+03  0.10255921412E+04  0.14523636535E+04  0.00000000000E+00 0. -1.
<mgrwt>
<rscale>  0 0.21470114E+04</rscale>
<asrwt>0</asrwt>
<pdfrwt beam="1">  1        2 0.29805230E+00 0.21470114E+04</pdfrwt>
<pdfrwt beam="2">  1       -2 0.91514417E-01 0.21470114E+04</pdfrwt>
<totfact> 0.67569016E+00</totfact>
</mgrwt>
</event>
<event>
 6    1  0.2238133E-007  0.1292294E+04  0.7818608E-02  0.9035698E-01
         -2   -1    0    0    0  501 -0.00000000000E+00  0.00000000000E+00  0.18575303293E+03  0.18575303293E+03  0.00000000000E+00 0.  1.
          2   -1    0    0  501    0  0.00000000000E+00 -0.00000000000E+00 -0.22476413897E+04  0.22476413897E+04  0.00000000000E+00 0. -1.
         23    2    1    2    0    0  0.20411921890E+03 -0.43544563030E+03 -0.23176973431E+03  0.54114398341E+03  0.88555341815E+02 0.  0.
         13    1    3    3    0    0  0.71128854310E+02 -0.16284526051E+03 -0.13366994160E+03  0.22236354484E+03  0.00000000000E+00 0.  1.
        -13    1    3    3    0    0  0.13299036459E+03 -0.27260036979E+03 -0.98099792707E+02  0.31878043856E+03  0.00000000000E+00 0. -1.
         22    1    1    2    0    0 -0.20411921890E+03  0.43544563030E+03 -0.18301186224E+04  0.18922504392E+04  0.00000000000E+00 0. -1.
<mgrwt>
<rscale>  0 0.12922944E+04</rscale>
<asrwt>0</asrwt>
<pdfrwt beam="1">  1        2 0.34579100E+00 0.12922944E+04</pdfrwt>
<pdfrwt beam="2">  1       -2 0.28577388E-01 0.12922944E+04</pdfrwt>
<totfact> 0.53568589E+01</totfact>
</mgrwt>
</event>
<event>
 6    1  0.2238133E-007  0.6067996E+03  0.7818608E-02  0.9891399E-01
          2   -1    0    0  501    0  0.00000000000E+00  0.00000000000E+00  0.33919882217E+03  0.33919882217E+03  0.00000000000E+00 0. -1.
         -2   -1    0    0    0  501 -0.00000000000E+00 -0.00000000000E+00 -0.27137899275E+03  0.27137899275E+03  0.00000000000E+00 0.  1.
         23    2    1    2    0    0 -0.26531879334E+03  0.13256512599E+03  0.32725138204E+02  0.31191544354E+03  0.90844562414E+02 0.  0.
         13    1    3    3    0    0 -0.18701753634E+03  0.11557225942E+03 -0.11963230978E+02  0.22017180778E+03  0.00000000000E+00 0.  1.
        -13    1    3    3    0    0 -0.78301257001E+02  0.16992866568E+02  0.44688369182E+02  0.91743635759E+02  0.00000000000E+00 0. -1.
         22    1    1    2    0    0  0.26531879334E+03 -0.13256512599E+03  0.35094691211E+02  0.29866237138E+03  0.00000000000E+00 0. -1.
<mgrwt>
<rscale>  0 0.60679959E+03</rscale>
<asrwt>0</asrwt>
<pdfrwt beam="1">  1        2 0.52184434E-01 0.60679959E+03</pdfrwt>
<pdfrwt beam="2">  1       -2 0.41750614E-01 0.60679959E+03</pdfrwt>
<totfact> 0.52444662E+02</totfact>
</mgrwt>
</event>
<event>
 6    1  0.2238133E-007  0.2328958E+04  0.7818608E-02  0.8466590E-01
          2   -1    0    0  501    0  0.00000000000E+00  0.00000000000E+00  0.36133936986E+04  0.36133936986E+04  0.00000000000E+00 0. -1.
         -2   -1    0    0    0  501 -0.00000000000E+00 -0.00000000000E+00 -0.37527361744E+03  0.37527361744E+03  0.00000000000E+00 0.  1.
         23    2    1    2    0    0 -0.95473355243E+03 -0.63177496304E+03  0.12735314090E+04  0.17148457727E+04  0.90321727467E+02 0.  0.
         11    1    3    3    0    0 -0.69527659570E+03 -0.42087773900E+03  0.86468537423E+03  0.11866880012E+04  0.00000000000E+00 0. -1.
        -11    1    3    3    0    0 -0.25945695673E+03 -0.21089722404E+03  0.40884603479E+03  0.52815777156E+03  0.00000000000E+00 0.  1.
         22    1    1    2    0    0  0.95473355243E+03  0.63177496304E+03  0.19645886722E+04  0.22738215433E+04  0.00000000000E+00 0. -1.
<mgrwt>
<rscale>  0 0.23289580E+04</rscale>
<asrwt>0</asrwt>
<pdfrwt beam="1">  1        2 0.55590670E+00 0.23289580E+04</pdfrwt>
<pdfrwt beam="2">  1       -2 0.57734405E-01 0.23289580E+04</pdfrwt>
<totfact> 0.17207082E+00</totfact>
</mgrwt>
</event>
<event>
 6    1  0.2238133E-007  0.1659605E+04  0.7818608E-02  0.8784745E-01
         -2   -1    0    0    0  501 -0.00000000000E+00  0.00000000000E+00  0.38354622216E+03  0.38354622216E+03  0.00000000000E+00 0.  1.
          2   -1    0    0  501    0  0.00000000000E+00 -0.00000000000E+00 -0.17952775377E+04  0.17952775377E+04  0.00000000000E+00 0. -1.
         23    2    1    2    0    0  0.66628706363E+03  0.41186555257E+03 -0.35819691527E+03  0.86599992662E+03  0.89884137872E+02 0.  0.
         13    1    3    3    0    0  0.38370271861E+03  0.22460472229E+03 -0.15545594373E+03  0.47100064542E+03  0.00000000000E+00 0. -1.
        -13    1    3    3    0    0  0.28258434503E+03  0.18726083028E+03 -0.20274097155E+03  0.39499928121E+03  0.00000000000E+00 0.  1.
         22    1    1    2    0    0 -0.66628706363E+03 -0.41186555257E+03 -0.10535344003E+04  0.13128238332E+04  0.00000000000E+00 0. -1.
<mgrwt>
<rscale>  0 0.16596047E+04</rscale>
<asrwt>0</asrwt>
<pdfrwt beam="1">  1        2 0.27619654E+00 0.16596047E+04</pdfrwt>
<pdfrwt beam="2">  1       -2 0.59007112E-01 0.16596047E+04</pdfrwt>
<totfact> 0.22230131E+01</totfact>
</mgrwt>
</event>
<event>
 6    1  0.2238133E-007  0.1971848E+04  0.7818608E-02  0.8619897E-01
         -2   -1    0    0    0  501 -0.00000000000E+00  0.00000000000E+00  0.92768953585E+03  0.92768953585E+03  0.00000000000E+00 0.  1.
          2   -1    0    0  501    0  0.00000000000E+00 -0.00000000000E+00 -0.10478136904E+04  0.10478136904E+04  0.00000000000E+00 0. -1.
         23    2    1    2    0    0 -0.83652764261E+02 -0.85349378983E+03 -0.54448291218E+03  0.10186700175E+04  0.76010055657E+02 0.  0.
         13    1    3    3    0    0 -0.59491633285E+02 -0.63155948875E+03 -0.36232690503E+03  0.73053913541E+03  0.00000000000E+00 0. -1.
        -13    1    3    3    0    0 -0.24161130975E+02 -0.22193430108E+03 -0.18215600715E+03  0.28813088204E+03  0.00000000000E+00 0.  1.
         22    1    1    2    0    0  0.83652764261E+02  0.85349378983E+03  0.42435875764E+03  0.95683320879E+03  0.00000000000E+00 0.  1.
<mgrwt>
<rscale>  0 0.19718477E+04</rscale>
<asrwt>0</asrwt>
<pdfrwt beam="1">  1        2 0.16120211E+00 0.19718477E+04</pdfrwt>
<pdfrwt beam="2">  1       -2 0.14272147E+00 0.19718477E+04</pdfrwt>
<totfact> 0.74688050E+00</totfact>
</mgrwt>
</event>
<event>
 6    1  0.2238133E-007  0.6032399E+04  0.7818608E-02  0.7686398E-01
          2   -1    0    0  501    0  0.00000000000E+00  0.00000000000E+00  0.46616094480E+04  0.46616094480E+04  0.00000000000E+00 0. -1.
         -2   -1    0    0    0  501 -0.00000000000E+00 -0.00000000000E+00 -0.19515704563E+04  0.19515704563E+04  0.00000000000E+00 0.  1.
         23    2    1    2    0    0 -0.12689392889E+04 -0.71445301950E+03 -0.15395414372E+04  0.21210107337E+04  0.88592660077E+02 0.  0.
         11    1    3    3    0    0 -0.97143011860E+03 -0.58909500723E+03 -0.11972129364E+04  0.16504630313E+04  0.00000000000E+00 0.  1.
        -11    1    3    3    0    0 -0.29750917032E+03 -0.12535801228E+03 -0.34232850085E+03  0.47054770232E+03  0.00000000000E+00 0. -1.
         22    1    1    2    0    0  0.12689392889E+04  0.71445301950E+03  0.42495804289E+04  0.44921691706E+04  0.00000000000E+00 0. -1.
<mgrwt>
<rscale>  0 0.60323990E+04</rscale>
<asrwt>0</asrwt>
<pdfrwt beam="1">  1        2 0.71717068E+00 0.60323990E+04</pdfrwt>
<pdfrwt beam="2">  1       -2 0.30024161E+00 0.60323990E+04</pdfrwt>
<totfact> 0.17672661E-03</totfact>
</mgrwt>
</event>
<event>
 6    1  0.2238133E-007  0.4319275E+04  0.7818608E-02  0.7943064E-01
          2   -1    0    0  501    0  0.00000000000E+00  0.00000000000E+00  0.28492592876E+04  0.28492592876E+04  0.00000000000E+00 0. -1.
         -2   -1    0    0    0  501 -0.00000000000E+00 -0.00000000000E+00 -0.16369283236E+04  0.16369283236E+04  0.00000000000E+00 0.  1.
         23    2    1    2    0    0 -0.11805820931E+04  0.87024793509E+03 -0.10386556487E+04  0.17995454174E+04  0.91938053725E+02 0.  0.
         13    1    3    3    0    0 -0.96437802003E+03  0.66551044303E+03 -0.83480562975E+03  0.14386902220E+04  0.00000000000E+00 0. -1.
        -13    1    3    3    0    0 -0.21620407303E+03  0.20473749206E+03 -0.20385001892E+03  0.36085519543E+03  0.00000000000E+00 0.  1.
         22    1    1    2    0    0  0.11805820931E+04 -0.87024793509E+03  0.22509866127E+04  0.26866421938E+04  0.00000000000E+00 0. -1.
<mgrwt>
<rscale>  0 0.43192746E+04</rscale>
<asrwt>0</asrwt>
<pdfrwt beam="1">  1        2 0.43834758E+00 0.43192746E+04</pdfrwt>
<pdfrwt beam="2">  1       -2 0.25183513E+00 0.43192746E+04</pdfrwt>
<totfact> 0.10386655E-01</totfact>
</mgrwt>
</event>
<event>
 6    1  0.2238133E-007  0.2332462E+04  0.7818608E-02  0.8465231E-01
          2   -1    0    0  501    0  0.00000000000E+00  0.00000000000E+00  0.89974356962E+03  0.89974356962E+03  0.00000000000E+00 0. -1.
         -2   -1    0    0    0  501 -0.00000000000E+00 -0.00000000000E+00 -0.15116470007E+04  0.15116470007E+04  0.00000000000E+00 0.  1.
         23    2    1    2    0    0  0.35093179811E+02 -0.41348686029E+03 -0.14312577645E+04  0.14929438170E+04  0.90440793993E+02 0.  0.
         11    1    3    3    0    0 -0.24536577012E+02 -0.19845116789E+03 -0.61202814733E+03  0.64386595094E+03  0.00000000000E+00 0.  1.
        -11    1    3    3    0    0  0.59629756823E+02 -0.21503569241E+03 -0.81922961722E+03  0.84907786606E+03  0.00000000000E+00 0. -1.
         22    1    1    2    0    0 -0.35093179811E+02  0.41348686029E+03  0.81935433347E+03  0.91844675332E+03  0.00000000000E+00 0. -1.
<mgrwt>
<rscale>  0 0.23324619E+04</rscale>
<asrwt>0</asrwt>
<pdfrwt beam="1">  1        2 0.13842209E+00 0.23324619E+04</pdfrwt>
<pdfrwt beam="2">  1       -2 0.23256107E+00 0.23324619E+04</pdfrwt>
<totfact> 0.21850854E+00</totfact>
</mgrwt>
</event>
<event>
 6    1  0.2238133E-007  0.2096718E+04  0.7818608E-02  0.8562690E-01
          2   -1    0    0  501    0  0.00000000000E+00  0.00000000000E+00  0.10397184332E+04  0.10397184332E+04  0.00000000000E+00 0. -1.
         -2   -1    0    0    0  501 -0.00000000000E+00 -0.00000000000E+00 -0.10570715059E+04  0.10570715059E+04  0.00000000000E+00 0.  1.
         23    2    1    2    0    0 -0.47556762931E+03 -0.36671657514E+03 -0.86547169484E+03  0.10575831197E+04  0.93782641721E+02 0.  0.
         13    1    3    3    0    0 -0.35625829943E+03 -0.25907016728E+03 -0.69889619462E+03  0.82613147763E+03  0.00000000000E+00 0.  1.
        -13    1    3    3    0    0 -0.11930932988E+03 -0.10764640786E+03 -0.16657550022E+03  0.23145164202E+03  0.00000000000E+00 0. -1.
         22    1    1    2    0    0  0.47556762931E+03  0.36671657514E+03  0.84811862215E+03  0.10392068195E+04  0.00000000000E+00 0. -1.
<mgrwt>
<rscale>  0 0.20967181E+04</rscale>
<asrwt>0</asrwt>
<pdfrwt beam="1">  1        2 0.15995668E+00 0.20967181E+04</pdfrwt>
<pdfrwt beam="2">  1       -2 0.16262639E+00 0.20967181E+04</pdfrwt>
<totfact> 0.52763249E+00</totfact>
</mgrwt>
</event>
<event>
 6    1  0.2238133E-007  0.3570926E+04  0.7818608E-02  0.8097184E-01
         -2   -1    0    0    0  501 -0.00000000000E+00  0.00000000000E+00  0.19585688454E+04  0.19585688454E+04  0.00000000000E+00 0.  1.
          2   -1    0    0  501    0  0.00000000000E+00 -0.00000000000E+00 -0.16276571468E+04  0.16276571468E+04  0.00000000000E+00 0. -1.
         23    2    1    2    0    0 -0.10988989622E+04  0.13364062771E+04  0.60330647812E+03  0.18347238990E+04  0.93125789871E+02 0.  0.
         11    1    3    3    0    0 -0.42528469064E+03  0.47475772277E+03  0.18423985722E+03  0.66348043560E+03  0.00000000000E+00 0.  1.
        -11    1    3    3    0    0 -0.67361427152E+03  0.86164855431E+03  0.41906662089E+03  0.11712434635E+04  0.00000000000E+00 0. -1.
         22    1    1    2    0    0  0.10988989622E+04 -0.13364062771E+04 -0.27239477954E+03  0.17515020932E+04  0.00000000000E+00 0. -1.
<mgrwt>
<rscale>  0 0.35709263E+04</rscale>
<asrwt>0</asrwt>
<pdfrwt beam="1">  1        2 0.25040879E+00 0.35709263E+04</pdfrwt>
<pdfrwt beam="2">  1       -2 0.30131829E+00 0.35709263E+04</pdfrwt>
<totfact> 0.27426916E-01</totfact>
</mgrwt>
</event>
<event>
 6    1  0.2238133E-007  0.2066427E+04  0.7818608E-02  0.8576178E-01
          2   -1    0    0  501    0  0.00000000000E+00  0.00000000000E+00  0.24341337112E+04  0.24341337112E+04  0.00000000000E+00 0. -1.
         -2   -1    0    0    0  501 -0.00000000000E+00 -0.00000000000E+00 -0.43856676765E+03  0.43856676765E+03  0.00000000000E+00 0.  1.
         23    2    1    2    0    0 -0.72787631964E+03 -0.58149894943E+03  0.16144651357E+04  0.18661302862E+04  0.89440514617E+02 0.  0.
         13    1    3    3    0    0 -0.41582380230E+03 -0.38040925189E+03  0.92851832505E+03  0.10861707570E+04  0.00000000000E+00 0. -1.
        -13    1    3    3    0    0 -0.31205251734E+03 -0.20108969754E+03  0.68594681064E+03  0.77995952912E+03  0.00000000000E+00 0.  1.
         22    1    1    2    0    0  0.72787631964E+03  0.58149894943E+03  0.38110180787E+03  0.10065701927E+04  0.00000000000E+00 0.  1.
<mgrwt>
<rscale>  0 0.20664270E+04</rscale>
<asrwt>0</asrwt>
<pdfrwt beam="1">  1        2 0.37448210E+00 0.20664270E+04</pdfrwt>
<pdfrwt beam="2">  1       -2 0.67471812E-01 0.20664270E+04</pdfrwt>
<totfact> 0.70738046E+00</totfact>
</mgrwt>
</event>
<event>
 6    1  0.2238133E-007  0.2325003E+04  0.7818608E-02  0.8468128E-01
          2   -1    0    0  501    0  0.00000000000E+00  0.00000000000E+00  0.21936389156E+04  0.21936389156E+04  0.00000000000E+00 0. -1.
         -2   -1    0    0    0  501 -0.00000000000E+00 -0.00000000000E+00 -0.61605841051E+03  0.61605841051E+03  0.00000000000E+00 0.  1.
         23    2    1    2    0    0  0.98663650259E+02 -0.94494864252E+03  0.15957798765E+04  0.18594375353E+04  0.91280230045E+02 0.  0.
         11    1    3    3    0    0  0.45247128702E+02 -0.37178766148E+03  0.71654207573E+03  0.80852081864E+03  0.00000000000E+00 0. -1.
        -11    1    3    3    0    0  0.53416521556E+02 -0.57316098104E+03  0.87923780081E+03  0.10509167166E+04  0.00000000000E+00 0.  1.
         22    1    1    2    0    0 -0.98663650259E+02  0.94494864252E+03 -0.18199371473E+02  0.95025979080E+03  0.00000000000E+00 0.  1.
<mgrwt>
<rscale>  0 0.23250030E+04</rscale>
<asrwt>0</asrwt>
<pdfrwt beam="1">  1        2 0.33748291E+00 0.23250030E+04</pdfrwt>
<pdfrwt beam="2">  1       -2 0.94778218E-01 0.23250030E+04</pdfrwt>
<totfact> 0.44139169E+00</totfact>
</mgrwt>
</event>
<event>
 6    1  0.2238133E-007  0.2159171E+04  0.7818608E-02  0.8535617E-01
         -2   -1    0    0    0  501 -0.00000000000E+00  0.00000000000E+00  0.48541453622E+03  0.48541453622E+03  0.00000000000E+00 0.  1.
          2   -1    0    0  501    0  0.00000000000E+00 -0.00000000000E+00 -0.24010498197E+04  0.24010498197E+04  0.00000000000E+00 0. -1.
         23    2    1    2    0    0 -0.41893689548E+03 -0.95834398610E+03 -0.61177103356E+03  0.12149401113E+04  0.88793910040E+02 0.  0.
         13    1    3    3    0    0 -0.87658263161E+02 -0.15652145668E+03 -0.13883876451E+03  0.22684607123E+03  0.00000000000E+00 0. -1.
        -13    1    3    3    0    0 -0.33127863232E+03 -0.80182252943E+03 -0.47293226904E+03  0.98809404007E+03  0.00000000000E+00 0.  1.
         22    1    1    2    0    0  0.41893689548E+03  0.95834398610E+03 -0.13038642499E+04  0.16715242446E+04  0.00000000000E+00 0. -1.
<mgrwt>
<rscale>  0 0.21591707E+04</rscale>
<asrwt>0</asrwt>
<pdfrwt beam="1">  1        2 0.36939227E+00 0.21591707E+04</pdfrwt>
<pdfrwt beam="2">  1       -2 0.74679161E-01 0.21591707E+04</pdfrwt>
<totfact> 0.58696627E+00</totfact>
</mgrwt>
</event>
<event>
 6    1  0.2238133E-007  0.2448197E+04  0.7818608E-02  0.8421677E-01
         -2   -1    0    0    0  501 -0.00000000000E+00  0.00000000000E+00  0.54737504118E+03  0.54737504118E+03  0.00000000000E+00 0.  1.
          2   -1    0    0  501    0  0.00000000000E+00 -0.00000000000E+00 -0.27374601660E+04  0.27374601660E+04  0.00000000000E+00 0. -1.
         23    2    1    2    0    0 -0.31839434579E+02  0.89022110472E+03 -0.22196994726E+04  0.23935527747E+04  0.92313443867E+02 0.  0.
         13    1    3    3    0    0  0.13810414548E+02  0.61283099807E+03 -0.14571641838E+04  0.15808478796E+04  0.00000000000E+00 0. -1.
        -13    1    3    3    0    0 -0.45649849128E+02  0.27739010665E+03 -0.76253528872E+03  0.81270489511E+03  0.00000000000E+00 0.  1.
         22    1    1    2    0    0  0.31839434579E+02 -0.89022110472E+03  0.29614347719E+02  0.89128243250E+03  0.00000000000E+00 0.  1.
<mgrwt>
<rscale>  0 0.24481972E+04</rscale>
<asrwt>0</asrwt>
<pdfrwt beam="1">  1        2 0.42114772E+00 0.24481972E+04</pdfrwt>
<pdfrwt beam="2">  1       -2 0.84211544E-01 0.24481972E+04</pdfrwt>
<totfact> 0.27801605E+00</totfact>
</mgrwt>
</event>
<event>
 6    1  0.2238133E-007  0.3372219E+04  0.7818608E-02  0.8144759E-01
          2   -1    0    0  501    0  0.00000000000E+00  0.00000000000E+00  0.18009053208E+04  0.18009053208E+04  0.00000000000E+00 0. -1.
         -2   -1    0    0    0  501 -0.00000000000E+00 -0.00000000000E+00 -0.15786308939E+04  0.15786308939E+04  0.00000000000E+00 0.  1.
         23    2    1    2    0    0 -0.60641108059E+03  0.10401427017E+04 -0.10699310312E+04  0.16133464784E+04  0.92212847215E+02 0.  0.
         13    1    3    3    0    0 -0.10858835935E+03  0.23482058582E+03 -0.19203649239E+03  0.32219583132E+03  0.00000000000E+00 0. -1.
        -13    1    3    3    0    0 -0.49782272124E+03  0.80532211587E+03 -0.87789453882E+03  0.12911506470E+04  0.00000000000E+00 0.  1.
         22    1    1    2    0    0  0.60641108059E+03 -0.10401427017E+04  0.12922054582E+04  0.17661897363E+04  0.00000000000E+00 0. -1.
<mgrwt>
<rscale>  0 0.33722187E+04</rscale>
<asrwt>0</asrwt>
<pdfrwt beam="1">  1        2 0.27706236E+00 0.33722187E+04</pdfrwt>
<pdfrwt beam="2">  1       -2 0.24286629E+00 0.33722187E+04</pdfrwt>
<totfact> 0.50892541E-01</totfact>
</mgrwt>
</event>
<event>
 6    1  0.2238133E-007  0.2563613E+04  0.7818608E-02  0.8380667E-01
         -2   -1    0    0    0  501 -0.00000000000E+00  0.00000000000E+00  0.12763757216E+04  0.12763757216E+04  0.00000000000E+00 0.  1.
          2   -1    0    0  501    0  0.00000000000E+00 -0.00000000000E+00 -0.12872601493E+04  0.12872601493E+04  0.00000000000E+00 0. -1.
         23    2    1    2    0    0  0.67682446526E+03  0.78342451613E+03  0.74771163512E+03  0.12801588295E+04  0.88817848423E+02 0.  0.
         13    1    3    3    0    0  0.38147064197E+03  0.39949211384E+03  0.35544552115E+03  0.65685258484E+03  0.00000000000E+00 0. -1.
        -13    1    3    3    0    0  0.29535382329E+03  0.38393240229E+03  0.39226611397E+03  0.62330624466E+03  0.00000000000E+00 0.  1.
         22    1    1    2    0    0 -0.67682446526E+03 -0.78342451613E+03 -0.75859606286E+03  0.12834770414E+04  0.00000000000E+00 0. -1.
<mgrwt>
<rscale>  0 0.25636128E+04</rscale>
<asrwt>0</asrwt>
<pdfrwt beam="1">  1        2 0.19804002E+00 0.25636128E+04</pdfrwt>
<pdfrwt beam="2">  1       -2 0.19636550E+00 0.25636128E+04</pdfrwt>
<totfact> 0.20972296E+00</totfact>
</mgrwt>
</event>
<event>
 6    1  0.2238133E-007  0.4548555E+04  0.7818608E-02  0.7902191E-01
         -2   -1    0    0    0  501 -0.00000000000E+00  0.00000000000E+00  0.17480011056E+04  0.17480011056E+04  0.00000000000E+00 0.  1.
          2   -1    0    0  501    0  0.00000000000E+00 -0.00000000000E+00 -0.29590022782E+04  0.29590022782E+04  0.00000000000E+00 0. -1.
         23    2    1    2    0    0  0.20314699440E+03  0.10599553327E+04 -0.26763078132E+04  0.28871414222E+04  0.90487967728E+02 0.  0.
         11    1    3    3    0    0  0.16838624992E+03  0.98639749866E+03 -0.24400165485E+04  0.26372361880E+04  0.00000000000E+00 0. -1.
        -11    1    3    3    0    0  0.34760744478E+02  0.73557834062E+02 -0.23629126468E+03  0.24990523418E+03  0.00000000000E+00 0.  1.
         22    1    1    2    0    0 -0.20314699440E+03 -0.10599553327E+04  0.14653066406E+04  0.18198619617E+04  0.00000000000E+00 0.  1.
<mgrwt>
<rscale>  0 0.45485555E+04</rscale>
<asrwt>0</asrwt>
<pdfrwt beam="1">  1        2 0.45523111E+00 0.45485555E+04</pdfrwt>
<pdfrwt beam="2">  1       -2 0.26892325E+00 0.45485555E+04</pdfrwt>
<totfact> 0.68562079E-02</totfact>
</mgrwt>
</event>
<event>
 6    1  0.2238133E-007  0.1569341E+04  0.7818608E-02  0.8839607E-01
          1   -1    0    0  501    0  0.00000000000E+00  0.00000000000E+00  0.87037060957E+03  0.87037060957E+03  0.00000000000E+00 0. -1.
         -1   -1    0    0    0  501 -0.00000000000E+00 -0.00000000000E+00 -0.70740896112E+03  0.70740896112E+03  0.00000000000E+00 0.  1.
         23    2    1    2    0    0  0.49340797344E+03  0.17865946273E+03 -0.50122971480E+03  0.73130405486E+03  0.90574620028E+02 0.  0.
         13    1    3    3    0    0  0.30989664163E+03  0.65071909287E+02 -0.29357929263E+03  0.43180908158E+03  0.00000000000E+00 0.  1.
        -13    1    3    3    0    0  0.18351133180E+03  0.11358755344E+03 -0.20765042217E+03  0.29949497329E+03  0.00000000000E+00 0. -1.
         22    1    1    2    0    0 -0.49340797344E+03 -0.17865946273E+03  0.66419136325E+03  0.84647551582E+03  0.00000000000E+00 0. -1.
<mgrwt>
<rscale>  0 0.15693412E+04</rscale>
<asrwt>0</asrwt>
<pdfrwt beam="1">  1        1 0.13390317E+00 0.15693412E+04</pdfrwt>
<pdfrwt beam="2">  1       -1 0.10883215E+00 0.15693412E+04</pdfrwt>
<totfact> 0.14500560E+01</totfact>
</mgrwt>
</event>
<event>
 6    1  0.2238133E-007  0.3825346E+04  0.7818608E-02  0.8040738E-01
          2   -1    0    0  501    0  0.00000000000E+00  0.00000000000E+00  0.34513214845E+04  0.34513214845E+04  0.00000000000E+00 0. -1.
         -2   -1    0    0    0  501 -0.00000000000E+00 -0.00000000000E+00 -0.10599758738E+04  0.10599758738E+04  0.00000000000E+00 0.  1.
         23    2    1    2    0    0 -0.96869098677E+03 -0.12926881607E+04 -0.91153492770E+01  0.16179225590E+04  0.90473248195E+02 0.  0.
         13    1    3    3    0    0 -0.47676802842E+03 -0.60319281679E+03  0.36271025426E+02  0.76971742506E+03  0.00000000000E+00 0. -1.
        -13    1    3    3    0    0 -0.49192295835E+03 -0.68949534390E+03 -0.45386374703E+02  0.84820513393E+03  0.00000000000E+00 0.  1.
         22    1    1    2    0    0  0.96869098677E+03  0.12926881607E+04  0.24004609600E+04  0.28933747993E+04  0.00000000000E+00 0.  1.
<mgrwt>
<rscale>  0 0.38253457E+04</rscale>
<asrwt>0</asrwt>
<pdfrwt beam="1">  1        2 0.53097253E+00 0.38253457E+04</pdfrwt>
<pdfrwt beam="2">  1       -2 0.16307321E+00 0.38253457E+04</pdfrwt>
<totfact> 0.16789807E-01</totfact>
</mgrwt>
</event>
<event>
 6    1  0.2238133E-007  0.2191342E+04  0.7818608E-02  0.8522041E-01
         -2   -1    0    0    0  501 -0.00000000000E+00  0.00000000000E+00  0.93423870616E+03  0.93423870616E+03  0.00000000000E+00 0.  1.
          2   -1    0    0  501    0  0.00000000000E+00 -0.00000000000E+00 -0.12849977263E+04  0.12849977263E+04  0.00000000000E+00 0. -1.
         23    2    1    2    0    0  0.83475491942E+03 -0.16356880917E+03  0.52067401131E+03  0.10014654938E+04  0.90891024443E+02 0.  0.
         13    1    3    3    0    0  0.49310218582E+03 -0.53297304861E+02  0.28526869114E+03  0.57216133609E+03  0.00000000000E+00 0.  1.
        -13    1    3    3    0    0  0.34165273360E+03 -0.11027150431E+03  0.23540532016E+03  0.42930415768E+03  0.00000000000E+00 0. -1.
         22    1    1    2    0    0 -0.83475491942E+03  0.16356880917E+03 -0.87143303144E+03  0.12177709387E+04  0.00000000000E+00 0. -1.
<mgrwt>
<rscale>  0 0.21913417E+04</rscale>
<asrwt>0</asrwt>
<pdfrwt beam="1">  1        2 0.19769196E+00 0.21913417E+04</pdfrwt>
<pdfrwt beam="2">  1       -2 0.14372903E+00 0.21913417E+04</pdfrwt>
<totfact> 0.51748893E+00</totfact>
</mgrwt>
</event>
<event>
 6    1  0.2238133E-007  0.2678365E+04  0.7818608E-02  0.8342059E-01
          2   -1    0    0  501    0  0.00000000000E+00  0.00000000000E+00  0.35094018713E+04  0.35094018713E+04  0.00000000000E+00 0. -1.
         -2   -1    0    0    0  501 -0.00000000000E+00 -0.00000000000E+00 -0.51103010797E+03  0.51103010797E+03  0.00000000000E+00 0.  1.
         23    2    1    2    0    0  0.62077987080E+03 -0.26434859707E+03 -0.23543241080E+03  0.71698873541E+03  0.58280338870E+02 0.  0.
         11    1    3    3    0    0  0.19249367676E+03 -0.81503300022E+02 -0.10181756942E+03  0.23251542089E+03  0.00000000000E+00 0. -1.
        -11    1    3    3    0    0  0.42828619403E+03 -0.18284529704E+03 -0.13361484138E+03  0.48447331453E+03  0.00000000000E+00 0.  1.
         22    1    1    2    0    0 -0.62077987080E+03  0.26434859707E+03  0.32338041741E+04  0.33034432439E+04  0.00000000000E+00 0. -1.
<mgrwt>
<rscale>  0 0.26783652E+04</rscale>
<asrwt>0</asrwt>
<pdfrwt beam="1">  1        2 0.53990796E+00 0.26783652E+04</pdfrwt>
<pdfrwt beam="2">  1       -2 0.78620019E-01 0.26783652E+04</pdfrwt>
<totfact> 0.10118549E+00</totfact>
</mgrwt>
</event>
<event>
 6    1  0.2238133E-007  0.2745784E+04  0.7818608E-02  0.8320301E-01
          2   -1    0    0  501    0  0.00000000000E+00  0.00000000000E+00  0.17533347709E+04  0.17533347709E+04  0.00000000000E+00 0. -1.
         -2   -1    0    0    0  501 -0.00000000000E+00 -0.00000000000E+00 -0.10749989086E+04  0.10749989086E+04  0.00000000000E+00 0.  1.
         23    2    1    2    0    0 -0.18960082261E+03  0.53262379969E+03  0.16266888065E+04  0.17242458702E+04  0.85268773248E+02 0.  0.
         13    1    3    3    0    0 -0.13807220545E+02  0.10912742139E+03  0.39285471987E+03  0.40796355764E+03  0.00000000000E+00 0. -1.
        -13    1    3    3    0    0 -0.17579360207E+03  0.42349637829E+03  0.12338340866E+04  0.13162823125E+04  0.00000000000E+00 0.  1.
         22    1    1    2    0    0  0.18960082261E+03 -0.53262379969E+03 -0.94835294415E+03  0.11040878093E+04  0.00000000000E+00 0.  1.
<mgrwt>
<rscale>  0 0.27457844E+04</rscale>
<asrwt>0</asrwt>
<pdfrwt beam="1">  1        2 0.26974381E+00 0.27457844E+04</pdfrwt>
<pdfrwt beam="2">  1       -2 0.16538445E+00 0.27457844E+04</pdfrwt>
<totfact> 0.18418576E+00</totfact>
</mgrwt>
</event>
<event>
 6    1  0.2238133E-007  0.2214440E+04  0.7818608E-02  0.8512442E-01
         -2   -1    0    0    0  501 -0.00000000000E+00  0.00000000000E+00  0.18716790091E+04  0.18716790091E+04  0.00000000000E+00 0.  1.
          2   -1    0    0  501    0  0.00000000000E+00 -0.00000000000E+00 -0.65499255179E+03  0.65499255179E+03  0.00000000000E+00 0. -1.
         23    2    1    2    0    0  0.83917588970E+03  0.69194307981E+03  0.83489800696E+03  0.13739513778E+04  0.87671586691E+02 0.  0.
         11    1    3    3    0    0  0.94783385208E+02  0.57207560389E+02  0.59728203545E+02  0.12579369370E+03  0.00000000000E+00 0.  1.
        -11    1    3    3    0    0  0.74439250449E+03  0.63473551942E+03  0.77516980342E+03  0.12481576841E+04  0.00000000000E+00 0. -1.
         22    1    1    2    0    0 -0.83917588970E+03 -0.69194307981E+03  0.38178845033E+03  0.11527201830E+04  0.00000000000E+00 0. -1.
<mgrwt>
<rscale>  0 0.22144397E+04</rscale>
<asrwt>0</asrwt>
<pdfrwt beam="1">  1        2 0.10076809E+00 0.22144397E+04</pdfrwt>
<pdfrwt beam="2">  1       -2 0.28795062E+00 0.22144397E+04</pdfrwt>
<totfact> 0.15317747E+00</totfact>
</mgrwt>
</event>
<event>
 6    1  0.2238133E-007  0.3873529E+03  0.7818608E-02  0.1048249E+00
         -2   -1    0    0    0  501 -0.00000000000E+00  0.00000000000E+00  0.21479306621E+03  0.21479306621E+03  0.00000000000E+00 0.  1.
          2   -1    0    0  501    0  0.00000000000E+00 -0.00000000000E+00 -0.17463581660E+03  0.17463581660E+03  0.00000000000E+00 0. -1.
         23    2    1    2    0    0  0.13667646253E+03  0.31147227677E+02  0.13943783629E+03  0.21765216701E+03  0.90988737832E+02 0.  0.
         11    1    3    3    0    0  0.98659557072E+02  0.44737238667E+02  0.14031889030E+03  0.17726962430E+03  0.00000000000E+00 0.  1.
        -11    1    3    3    0    0  0.38016905460E+02 -0.13590010990E+02 -0.88105400817E+00  0.40382542708E+02  0.00000000000E+00 0. -1.
         22    1    1    2    0    0 -0.13667646253E+03 -0.31147227677E+02 -0.99280586671E+02  0.17177671580E+03  0.00000000000E+00 0. -1.
<mgrwt>
<rscale>  0 0.38735288E+03</rscale>
<asrwt>0</asrwt>
<pdfrwt beam="1">  1        2 0.26867049E-01 0.38735288E+03</pdfrwt>
<pdfrwt beam="2">  1       -2 0.33045087E-01 0.38735288E+03</pdfrwt>
<totfact> 0.17078723E+03</totfact>
</mgrwt>
</event>
<event>
 6    1  0.2238133E-007  0.2670741E+04  0.7818608E-02  0.8344561E-01
         -2   -1    0    0    0  501 -0.00000000000E+00  0.00000000000E+00  0.17299873545E+04  0.17299873545E+04  0.00000000000E+00 0.  1.
          2   -1    0    0  501    0  0.00000000000E+00 -0.00000000000E+00 -0.10307671303E+04  0.10307671303E+04  0.00000000000E+00 0. -1.
         23    2    1    2    0    0 -0.17007367720E+03  0.13117662083E+04  0.52434091864E+03  0.14264987326E+04  0.10153617108E+03 0.  0.
         11    1    3    3    0    0 -0.40535250080E+02  0.63755548250E+03  0.28370972157E+03  0.69900737184E+03  0.00000000000E+00 0. -1.
        -11    1    3    3    0    0 -0.12953842712E+03  0.67421072583E+03  0.24063119707E+03  0.72749136072E+03  0.00000000000E+00 0.  1.
         22    1    1    2    0    0  0.17007367720E+03 -0.13117662083E+04  0.17487930554E+03  0.13342557523E+04  0.00000000000E+00 0. -1.
<mgrwt>
<rscale>  0 0.26707408E+04</rscale>
<asrwt>0</asrwt>
<pdfrwt beam="1">  1        2 0.15857956E+00 0.26707408E+04</pdfrwt>
<pdfrwt beam="2">  1       -2 0.26615190E+00 0.26707408E+04</pdfrwt>
<totfact> 0.10830931E+00</totfact>
</mgrwt>
</event>
<event>
 6    1  0.2238133E-007  0.2216448E+04  0.7818608E-02  0.8511613E-01
          2   -1    0    0  501    0  0.00000000000E+00  0.00000000000E+00  0.11732492573E+04  0.11732492573E+04  0.00000000000E+00 0. -1.
         -2   -1    0    0    0  501 -0.00000000000E+00 -0.00000000000E+00 -0.10468027388E+04  0.10468027388E+04  0.00000000000E+00 0.  1.
         23    2    1    2    0    0 -0.92493933988E+03 -0.41087825354E+03 -0.38418452834E+03  0.10864392811E+04  0.91754226450E+02 0.  0.
         11    1    3    3    0    0 -0.40507892581E+02 -0.58794248275E+01 -0.10198764978E+01  0.40945050320E+02  0.00000000000E+00 0. -1.
        -11    1    3    3    0    0 -0.88443144730E+03 -0.40499882872E+03 -0.38316465185E+03  0.10454942308E+04  0.00000000000E+00 0.  1.
         22    1    1    2    0    0  0.92493933988E+03  0.41087825354E+03  0.51063104683E+03  0.11336127150E+04  0.00000000000E+00 0. -1.
<mgrwt>
<rscale>  0 0.22164481E+04</rscale>
<asrwt>0</asrwt>
<pdfrwt beam="1">  1        2 0.18049989E+00 0.22164481E+04</pdfrwt>
<pdfrwt beam="2">  1       -2 0.16104657E+00 0.22164481E+04</pdfrwt>
<totfact> 0.44396943E+00</totfact>
</mgrwt>
</event>
<event>
 6    1  0.2238133E-007  0.2244653E+04  0.7818608E-02  0.8500069E-01
         -2   -1    0    0    0  501 -0.00000000000E+00  0.00000000000E+00  0.76564834067E+03  0.76564834067E+03  0.00000000000E+00 0.  1.
          2   -1    0    0  501    0  0.00000000000E+00 -0.00000000000E+00 -0.16451642866E+04  0.16451642866E+04  0.00000000000E+00 0. -1.
         23    2    1    2    0    0 -0.11516208835E+03  0.10336943199E+04 -0.88997994982E+03  0.13706704499E+04  0.69906491839E+02 0.  0.
         11    1    3    3    0    0 -0.88167104370E+02  0.88228833820E+03 -0.72738285289E+03  0.11468617897E+04  0.00000000000E+00 0.  1.
        -11    1    3    3    0    0 -0.26994983977E+02  0.15140598174E+03 -0.16259709692E+03  0.22380866023E+03  0.00000000000E+00 0. -1.
         22    1    1    2    0    0  0.11516208835E+03 -0.10336943199E+04  0.10464003890E+02  0.10401421773E+04  0.00000000000E+00 0.  1.
<mgrwt>
<rscale>  0 0.22446535E+04</rscale>
<asrwt>0</asrwt>
<pdfrwt beam="1">  1        2 0.25310220E+00 0.22446535E+04</pdfrwt>
<pdfrwt beam="2">  1       -2 0.11779205E+00 0.22446535E+04</pdfrwt>
<totfact> 0.53285190E+00</totfact>
</mgrwt>
</event>
<event>
 6    1  0.2238133E-007  0.1947217E+04  0.7818608E-02  0.8631704E-01
         -2   -1    0    0    0  501 -0.00000000000E+00  0.00000000000E+00  0.11827638628E+04  0.11827638628E+04  0.00000000000E+00 0.  1.
          2   -1    0    0  501    0  0.00000000000E+00 -0.00000000000E+00 -0.80143905430E+03  0.80143905430E+03  0.00000000000E+00 0. -1.
         23    2    1    2    0    0  0.80571798297E+03 -0.29834762140E+03 -0.27073057330E+03  0.90560707426E+03  0.92932009312E+02 0.  0.
         13    1    3    3    0    0  0.34150180871E+03 -0.17171336700E+03 -0.13889231631E+03  0.40669403892E+03  0.00000000000E+00 0. -1.
        -13    1    3    3    0    0  0.46421617426E+03 -0.12663425440E+03 -0.13183825699E+03  0.49891303534E+03  0.00000000000E+00 0.  1.
         22    1    1    2    0    0 -0.80571798297E+03  0.29834762140E+03  0.65205538180E+03  0.10785958429E+04  0.00000000000E+00 0.  1.
<mgrwt>
<rscale>  0 0.19472166E+04</rscale>
<asrwt>0</asrwt>
<pdfrwt beam="1">  1        2 0.12329832E+00 0.19472166E+04</pdfrwt>
<pdfrwt beam="2">  1       -2 0.18196367E+00 0.19472166E+04</pdfrwt>
<totfact> 0.56323704E+00</totfact>
</mgrwt>
</event>
<event>
 6    1  0.2238133E-007  0.2427804E+04  0.7818608E-02  0.8429167E-01
         -2   -1    0    0    0  501 -0.00000000000E+00  0.00000000000E+00  0.10022919936E+04  0.10022919936E+04  0.00000000000E+00 0.  1.
          2   -1    0    0  501    0  0.00000000000E+00 -0.00000000000E+00 -0.14701889135E+04  0.14701889135E+04  0.00000000000E+00 0. -1.
         23    2    1    2    0    0  0.76217833512E+03 -0.80366668800E+03  0.26720685405E+03  0.11431301189E+04  0.92471649083E+02 0.  0.
         13    1    3    3    0    0  0.29919507608E+03 -0.35329534451E+03  0.15018349710E+03  0.48671385516E+03  0.00000000000E+00 0.  1.
        -13    1    3    3    0    0  0.46298325904E+03 -0.45037134349E+03  0.11702335694E+03  0.65641626371E+03  0.00000000000E+00 0. -1.
         22    1    1    2    0    0 -0.76217833512E+03  0.80366668800E+03 -0.73510377395E+03  0.13293507883E+04  0.00000000000E+00 0. -1.
<mgrwt>
<rscale>  0 0.24278044E+04</rscale>
<asrwt>0</asrwt>
<pdfrwt beam="1">  1        2 0.22618291E+00 0.24278044E+04</pdfrwt>
<pdfrwt beam="2">  1       -2 0.15419877E+00 0.24278044E+04</pdfrwt>
<totfact> 0.32963830E+00</totfact>
</mgrwt>
</event>
<event>
 6    1  0.2238133E-007  0.1764944E+04  0.7818608E-02  0.8725167E-01
          2   -1    0    0  501    0  0.00000000000E+00  0.00000000000E+00  0.94777536348E+03  0.94777536348E+03  0.00000000000E+00 0. -1.
         -2   -1    0    0    0  501 -0.00000000000E+00 -0.00000000000E+00 -0.82166826615E+03  0.82166826615E+03  0.00000000000E+00 0.  1.
         23    2    1    2    0    0 -0.16941071991E+03 -0.33171208042E+03 -0.73619458986E+03  0.83013691932E+03  0.91716598082E+02 0.  0.
         11    1    3    3    0    0 -0.76607511106E+02 -0.11933213831E+03 -0.37563355624E+03  0.40150895203E+03  0.00000000000E+00 0.  1.
        -11    1    3    3    0    0 -0.92803208809E+02 -0.21237994210E+03 -0.36056103362E+03  0.42862796728E+03  0.00000000000E+00 0. -1.
         22    1    1    2    0    0  0.16941071991E+03  0.33171208042E+03  0.86230168719E+03  0.93930671031E+03  0.00000000000E+00 0. -1.
<mgrwt>
<rscale>  0 0.17649441E+04</rscale>
<asrwt>0</asrwt>
<pdfrwt beam="1">  1        2 0.14581159E+00 0.17649441E+04</pdfrwt>
<pdfrwt beam="2">  1       -2 0.12641050E+00 0.17649441E+04</pdfrwt>
<totfact> 0.12021458E+01</totfact>
</mgrwt>
</event>
<event>
 6    1  0.2238133E-007  0.3929578E+04  0.7818608E-02  0.8018905E-01
         -2   -1    0    0    0  501 -0.00000000000E+00  0.00000000000E+00  0.15115592104E+04  0.15115592104E+04  0.00000000000E+00 0.  1.
          2   -1    0    0  501    0  0.00000000000E+00 -0.00000000000E+00 -0.25539166220E+04  0.25539166220E+04  0.00000000000E+00 0. -1.
         23    2    1    2    0    0 -0.88531481253E+03  0.12211985708E+04  0.77947904562E+03  0.17002704833E+04  0.90685541485E+02 0.  0.
         13    1    3    3    0    0 -0.72903011095E+03  0.10388002698E+04  0.68504255226E+03  0.14421768968E+04  0.00000000000E+00 0.  1.
        -13    1    3    3    0    0 -0.15628470159E+03  0.18239830093E+03  0.94436493353E+02  0.25809358653E+03  0.00000000000E+00 0. -1.
         22    1    1    2    0    0  0.88531481253E+03 -0.12211985708E+04 -0.18218364572E+04  0.23652053491E+04  0.00000000000E+00 0. -1.
<mgrwt>
<rscale>  0 0.39295782E+04</rscale>
<asrwt>0</asrwt>
<pdfrwt beam="1">  1        2 0.39291025E+00 0.39295782E+04</pdfrwt>
<pdfrwt beam="2">  1       -2 0.23254757E+00 0.39295782E+04</pdfrwt>
<totfact> 0.21174848E-01</totfact>
</mgrwt>
</event>
<event>
 6    1  0.2238133E-007  0.3478008E+04  0.7818608E-02  0.8119022E-01
         -2   -1    0    0    0  501 -0.00000000000E+00  0.00000000000E+00  0.11807808356E+04  0.11807808356E+04  0.00000000000E+00 0.  1.
          2   -1    0    0  501    0  0.00000000000E+00 -0.00000000000E+00 -0.25611309695E+04  0.25611309695E+04  0.00000000000E+00 0. -1.
         23    2    1    2    0    0  0.15188729076E+04 -0.66623279670E+03 -0.13234716294E+03  0.16662546889E+04  0.89709910455E+02 0.  0.
         13    1    3    3    0    0  0.46996106792E+03 -0.16611516811E+03 -0.58416946335E+02  0.50186670945E+03  0.00000000000E+00 0. -1.
        -13    1    3    3    0    0  0.10489118396E+04 -0.50011762859E+03 -0.73930216603E+02  0.11643879795E+04  0.00000000000E+00 0.  1.
         22    1    1    2    0    0 -0.15188729076E+04  0.66623279670E+03 -0.12480029709E+04  0.20756571162E+04  0.00000000000E+00 0. -1.
<mgrwt>
<rscale>  0 0.34780077E+04</rscale>
<asrwt>0</asrwt>
<pdfrwt beam="1">  1        2 0.39402014E+00 0.34780077E+04</pdfrwt>
<pdfrwt beam="2">  1       -2 0.18165859E+00 0.34780077E+04</pdfrwt>
<totfact> 0.46619235E-01</totfact>
</mgrwt>
</event>
<event>
 6    1  0.2238133E-007  0.3022326E+04  0.7818608E-02  0.8237384E-01
          2   -1    0    0  501    0  0.00000000000E+00  0.00000000000E+00  0.29002383482E+04  0.29002383482E+04  0.00000000000E+00 0. -1.
         -2   -1    0    0    0  501 -0.00000000000E+00 -0.00000000000E+00 -0.78738841144E+03  0.78738841144E+03  0.00000000000E+00 0.  1.
         23    2    1    2    0    0 -0.40219423561E+03  0.16811981347E+03  0.28210874470E+04  0.28559869063E+04  0.90013056869E+02 0.  0.
         11    1    3    3    0    0 -0.25728888919E+03  0.10308957425E+03  0.20550175103E+04  0.20736253279E+04  0.00000000000E+00 0.  1.
        -11    1    3    3    0    0 -0.14490534642E+03  0.65030239220E+02  0.76606993665E+03  0.78236157835E+03  0.00000000000E+00 0. -1.
         22    1    1    2    0    0  0.40219423561E+03 -0.16811981347E+03 -0.70823751022E+03  0.83163985338E+03  0.00000000000E+00 0.  1.
<mgrwt>
<rscale>  0 0.30223263E+04</rscale>
<asrwt>0</asrwt>
<pdfrwt beam="1">  1        2 0.44619051E+00 0.30223263E+04</pdfrwt>
<pdfrwt beam="2">  1       -2 0.12113668E+00 0.30223263E+04</pdfrwt>
<totfact> 0.88960945E-01</totfact>
</mgrwt>
</event>
<event>
 6    1  0.2238133E-007  0.2444523E+04  0.7818608E-02  0.8423020E-01
         -2   -1    0    0    0  501 -0.00000000000E+00  0.00000000000E+00  0.61010131623E+03  0.61010131623E+03  0.00000000000E+00 0.  1.
          2   -1    0    0  501    0  0.00000000000E+00 -0.00000000000E+00 -0.24486485141E+04  0.24486485141E+04  0.00000000000E+00 0. -1.
         23    2    1    2    0    0 -0.81914763421E+02  0.10953424065E+04 -0.25533033538E+03  0.11318194607E+04  0.96626577146E+02 0.  0.
         13    1    3    3    0    0  0.16030932236E+02  0.39801843429E+03 -0.10069993122E+03  0.41087241447E+03  0.00000000000E+00 0. -1.
        -13    1    3    3    0    0 -0.97945695657E+02  0.69732397220E+03 -0.15463040415E+03  0.72094704618E+03  0.00000000000E+00 0.  1.
         22    1    1    2    0    0  0.81914763421E+02 -0.10953424065E+04 -0.15832168625E+04  0.19269303697E+04  0.00000000000E+00 0.  1.
<mgrwt>
<rscale>  0 0.24445234E+04</rscale>
<asrwt>0</asrwt>
<pdfrwt beam="1">  1        2 0.37671516E+00 0.24445234E+04</pdfrwt>
<pdfrwt beam="2">  1       -2 0.93861740E-01 0.24445234E+04</pdfrwt>
<totfact> 0.32009894E+00</totfact>
</mgrwt>
</event>
<event>
 6    1  0.2238133E-007  0.7219415E+03  0.7818608E-02  0.9680428E-01
         -2   -1    0    0    0  501 -0.00000000000E+00  0.00000000000E+00  0.11326165135E+04  0.11326165135E+04  0.00000000000E+00 0.  1.
          2   -1    0    0  501    0  0.00000000000E+00 -0.00000000000E+00 -0.11504323756E+03  0.11504323756E+03  0.00000000000E+00 0. -1.
         23    2    1    2    0    0 -0.29653912161E+03 -0.74022232972E+02  0.82965584373E+03  0.88887332022E+03  0.91390474058E+02 0.  0.
         13    1    3    3    0    0 -0.58724041181E+02 -0.53010373346E+02  0.17526877365E+03  0.19229601065E+03  0.00000000000E+00 0.  1.
        -13    1    3    3    0    0 -0.23781508043E+03 -0.21011859626E+02  0.65438707007E+03  0.69657730957E+03  0.00000000000E+00 0. -1.
         22    1    1    2    0    0  0.29653912161E+03  0.74022232972E+02  0.18791743218E+03  0.35878643081E+03  0.00000000000E+00 0. -1.
<mgrwt>
<rscale>  0 0.72194147E+03</rscale>
<asrwt>0</asrwt>
<pdfrwt beam="1">  1        2 0.17698960E-01 0.72194147E+03</pdfrwt>
<pdfrwt beam="2">  1       -2 0.17424869E+00 0.72194147E+03</pdfrwt>
<totfact> 0.66301838E+01</totfact>
</mgrwt>
</event>
<event>
 6    1  0.2238133E-007  0.1422300E+04  0.7818608E-02  0.8937833E-01
         -2   -1    0    0    0  501 -0.00000000000E+00  0.00000000000E+00  0.28780759851E+03  0.28780759851E+03  0.00000000000E+00 0.  1.
          2   -1    0    0  501    0  0.00000000000E+00 -0.00000000000E+00 -0.17571958138E+04  0.17571958138E+04  0.00000000000E+00 0. -1.
         23    2    1    2    0    0 -0.33027015303E+02  0.21315349246E+03 -0.17076605959E+04  0.17236019151E+04  0.90408271753E+02 0.  0.
         11    1    3    3    0    0 -0.54077323097E+02  0.66795117403E+02 -0.60722841108E+03  0.61327994244E+03  0.00000000000E+00 0.  1.
        -11    1    3    3    0    0  0.21050307794E+02  0.14635837505E+03 -0.11004321849E+04  0.11103219726E+04  0.00000000000E+00 0. -1.
         22    1    1    2    0    0  0.33027015303E+02 -0.21315349246E+03  0.23827238062E+03  0.32140149728E+03  0.00000000000E+00 0.  1.
<mgrwt>
<rscale>  0 0.14223000E+04</rscale>
<asrwt>0</asrwt>
<pdfrwt beam="1">  1        2 0.27033781E+00 0.14223000E+04</pdfrwt>
<pdfrwt beam="2">  1       -2 0.44278093E-01 0.14223000E+04</pdfrwt>
<totfact> 0.42839081E+01</totfact>
</mgrwt>
</event>
<event>
 6    1  0.2238133E-007  0.2815049E+04  0.7818608E-02  0.8298612E-01
          2   -1    0    0  501    0  0.00000000000E+00  0.00000000000E+00  0.16915559566E+04  0.16915559566E+04  0.00000000000E+00 0. -1.
         -2   -1    0    0    0  501 -0.00000000000E+00 -0.00000000000E+00 -0.11711848900E+04  0.11711848900E+04  0.00000000000E+00 0.  1.
         23    2    1    2    0    0 -0.38388968691E+03 -0.13526726196E+04  0.25781742031E+03  0.14323461721E+04  0.89728629365E+02 0.  0.
         13    1    3    3    0    0 -0.75453583384E+02 -0.25702034294E+03  0.13655245012E+02  0.26821477522E+03  0.00000000000E+00 0. -1.
        -13    1    3    3    0    0 -0.30843610352E+03 -0.10956522767E+04  0.24416217530E+03  0.11641313969E+04  0.00000000000E+00 0.  1.
         22    1    1    2    0    0  0.38388968691E+03  0.13526726196E+04  0.26255364636E+03  0.14303946745E+04  0.00000000000E+00 0. -1.
<mgrwt>
<rscale>  0 0.28150487E+04</rscale>
<asrwt>0</asrwt>
<pdfrwt beam="1">  1        2 0.26023938E+00 0.28150487E+04</pdfrwt>
<pdfrwt beam="2">  1       -2 0.18018229E+00 0.28150487E+04</pdfrwt>
<totfact> 0.15579901E+00</totfact>
</mgrwt>
</event>
<event>
 6    1  0.2238133E-007  0.3512375E+04  0.7818608E-02  0.8110864E-01
         -2   -1    0    0    0  501 -0.00000000000E+00  0.00000000000E+00  0.22168638140E+04  0.22168638140E+04  0.00000000000E+00 0.  1.
          2   -1    0    0  501    0  0.00000000000E+00 -0.00000000000E+00 -0.13912418277E+04  0.13912418277E+04  0.00000000000E+00 0. -1.
         23    2    1    2    0    0 -0.11559081166E+04 -0.11102706558E+04 -0.32125361662E+03  0.16372814102E+04  0.93070010561E+02 0.  0.
         11    1    3    3    0    0 -0.56657369133E+03 -0.59895970177E+03 -0.19012419069E+03  0.84611209655E+03  0.00000000000E+00 0. -1.
        -11    1    3    3    0    0 -0.58933442524E+03 -0.51131095399E+03 -0.13112942593E+03  0.79116931360E+03  0.00000000000E+00 0.  1.
         22    1    1    2    0    0  0.11559081166E+04  0.11102706558E+04  0.11468756029E+04  0.19708242315E+04  0.00000000000E+00 0.  1.
<mgrwt>
<rscale>  0 0.35123745E+04</rscale>
<asrwt>0</asrwt>
<pdfrwt beam="1">  1        2 0.21403720E+00 0.35123745E+04</pdfrwt>
<pdfrwt beam="2">  1       -2 0.34105597E+00 0.35123745E+04</pdfrwt>
<totfact> 0.21273144E-01</totfact>
</mgrwt>
</event>
<event>
 6    1  0.2238133E-007  0.1141107E+04  0.7818608E-02  0.9166027E-01
          2   -1    0    0  501    0  0.00000000000E+00  0.00000000000E+00  0.15458036127E+04  0.15458036127E+04  0.00000000000E+00 0. -1.
         -2   -1    0    0    0  501 -0.00000000000E+00 -0.00000000000E+00 -0.21059041908E+03  0.21059041908E+03  0.00000000000E+00 0.  1.
         23    2    1    2    0    0  0.17855173835E+02  0.56559412269E+03  0.61828495180E+03  0.84304764472E+03  0.90760843951E+02 0.  0.
         13    1    3    3    0    0  0.52053474347E+02  0.38842186946E+03  0.40272859745E+03  0.56193543763E+03  0.00000000000E+00 0. -1.
        -13    1    3    3    0    0 -0.34198300512E+02  0.17717225323E+03  0.21555635435E+03  0.28111220709E+03  0.00000000000E+00 0.  1.
         22    1    1    2    0    0 -0.17855173835E+02 -0.56559412269E+03  0.71692824185E+03  0.91334638710E+03  0.00000000000E+00 0. -1.
<mgrwt>
<rscale>  0 0.11411072E+04</rscale>
<asrwt>0</asrwt>
<pdfrwt beam="1">  1        2 0.23781593E+00 0.11411072E+04</pdfrwt>
<pdfrwt beam="2">  1       -2 0.32398527E-01 0.11411072E+04</pdfrwt>
<totfact> 0.10506160E+02</totfact>
</mgrwt>
</event>
<event>
 6    1  0.2238133E-007  0.8661539E+03  0.7818608E-02  0.9468909E-01
         -2   -1    0    0    0  501 -0.00000000000E+00  0.00000000000E+00  0.16859602515E+03  0.16859602515E+03  0.00000000000E+00 0.  1.
          2   -1    0    0  501    0  0.00000000000E+00 -0.00000000000E+00 -0.11124559118E+04  0.11124559118E+04  0.00000000000E+00 0. -1.
         23    2    1    2    0    0  0.18758809328E+03 -0.22415779988E+03 -0.12850325710E+02  0.30523698802E+03  0.86996988430E+02 0.  0.
         11    1    3    3    0    0  0.11048585837E+03 -0.82471186054E+02 -0.35446145983E+02  0.14235536763E+03  0.00000000000E+00 0. -1.
        -11    1    3    3    0    0  0.77102234911E+02 -0.14168661382E+03  0.22595820273E+02  0.16288162038E+03  0.00000000000E+00 0.  1.
         22    1    1    2    0    0 -0.18758809328E+03  0.22415779988E+03 -0.93100956090E+03  0.97581494888E+03  0.00000000000E+00 0.  1.
<mgrwt>
<rscale>  0 0.86615390E+03</rscale>
<asrwt>0</asrwt>
<pdfrwt beam="1">  1        2 0.17114706E+00 0.86615390E+03</pdfrwt>
<pdfrwt beam="2">  1       -2 0.25937850E-01 0.86615390E+03</pdfrwt>
<totfact> 0.28776413E+02</totfact>
</mgrwt>
</event>
<event>
 6    1  0.2238133E-007  0.2728586E+04  0.7818608E-02  0.8325789E-01
         -2   -1    0    0    0  501 -0.00000000000E+00  0.00000000000E+00  0.10841120084E+04  0.10841120084E+04  0.00000000000E+00 0.  1.
          2   -1    0    0  501    0  0.00000000000E+00 -0.00000000000E+00 -0.17168846723E+04  0.17168846723E+04  0.00000000000E+00 0. -1.
         23    2    1    2    0    0 -0.58228098780E+03 -0.12202236012E+04 -0.49195626684E+03  0.14416490270E+04  0.91291635910E+02 0.  0.
         11    1    3    3    0    0 -0.75556986802E+02 -0.24070434949E+03 -0.90742598852E+02  0.26810755559E+03  0.00000000000E+00 0. -1.
        -11    1    3    3    0    0 -0.50672400100E+03 -0.97951925175E+03 -0.40121366799E+03  0.11735414714E+04  0.00000000000E+00 0.  1.
         22    1    1    2    0    0  0.58228098780E+03  0.12202236012E+04 -0.14081639706E+03  0.13593476536E+04  0.00000000000E+00 0.  1.
<mgrwt>
<rscale>  0 0.27285859E+04</rscale>
<asrwt>0</asrwt>
<pdfrwt beam="1">  1        2 0.26413610E+00 0.27285859E+04</pdfrwt>
<pdfrwt beam="2">  1       -2 0.16678646E+00 0.27285859E+04</pdfrwt>
<totfact> 0.18880163E+00</totfact>
</mgrwt>
</event>
<event>
 6    1  0.2238133E-007  0.1744852E+04  0.7818608E-02  0.8736189E-01
          2   -1    0    0  501    0  0.00000000000E+00  0.00000000000E+00  0.30324902122E+04  0.30324902122E+04  0.00000000000E+00 0. -1.
         -2   -1    0    0    0  501 -0.00000000000E+00 -0.00000000000E+00 -0.25099081448E+03  0.25099081448E+03  0.00000000000E+00 0.  1.
         23    2    1    2    0    0 -0.82112958212E+03  0.12048421133E+03  0.90302700326E+03  0.12298430906E+04  0.91027594978E+02 0.  0.
         11    1    3    3    0    0 -0.21516427953E+03  0.48875648404E+02  0.29552855739E+03  0.36881109586E+03  0.00000000000E+00 0.  1.
        -11    1    3    3    0    0 -0.60596530259E+03  0.71608562924E+02  0.60749844587E+03  0.86103199474E+03  0.00000000000E+00 0. -1.
         22    1    1    2    0    0  0.82112958212E+03 -0.12048421133E+03  0.18784723945E+04  0.20536379361E+04  0.00000000000E+00 0. -1.
<mgrwt>
<rscale>  0 0.17448521E+04</rscale>
<asrwt>0</asrwt>
<pdfrwt beam="1">  1        2 0.46653693E+00 0.17448521E+04</pdfrwt>
<pdfrwt beam="2">  1       -2 0.38613974E-01 0.17448521E+04</pdfrwt>
<totfact> 0.10026337E+01</totfact>
</mgrwt>
</event>
<event>
 6    1  0.2238133E-007  0.1138486E+04  0.7818608E-02  0.9168472E-01
          2   -1    0    0  501    0  0.00000000000E+00  0.00000000000E+00  0.24964994065E+04  0.24964994065E+04  0.00000000000E+00 0. -1.
         -2   -1    0    0    0  501 -0.00000000000E+00 -0.00000000000E+00 -0.12979687516E+03  0.12979687516E+03  0.00000000000E+00 0.  1.
         23    2    1    2    0    0 -0.33827909753E+03 -0.35686172897E+03  0.54594843944E+03  0.74031417555E+03  0.90677111602E+02 0.  0.
         11    1    3    3    0    0 -0.18488223346E+03 -0.20681507721E+03  0.37223021194E+03  0.46422973525E+03  0.00000000000E+00 0.  1.
        -11    1    3    3    0    0 -0.15339686407E+03 -0.15004665176E+03  0.17371822750E+03  0.27608444030E+03  0.00000000000E+00 0. -1.
         22    1    1    2    0    0  0.33827909753E+03  0.35686172897E+03  0.18207540919E+04  0.18859821061E+04  0.00000000000E+00 0.  1.
<mgrwt>
<rscale>  0 0.11384864E+04</rscale>
<asrwt>0</asrwt>
<pdfrwt beam="1">  1        2 0.38407680E+00 0.11384864E+04</pdfrwt>
<pdfrwt beam="2">  1       -2 0.19968752E-01 0.11384864E+04</pdfrwt>
<totfact> 0.74832231E+01</totfact>
</mgrwt>
</event>
<event>
 6    1  0.2238133E-007  0.8687994E+03  0.7818608E-02  0.9465447E-01
          2   -1    0    0  501    0  0.00000000000E+00  0.00000000000E+00  0.29074131797E+04  0.29074131797E+04  0.00000000000E+00 0. -1.
         -2   -1    0    0    0  501 -0.00000000000E+00 -0.00000000000E+00 -0.64904126511E+02  0.64904126511E+02  0.00000000000E+00 0.  1.
         23    2    1    2    0    0  0.40297292320E+03 -0.38786675123E+02  0.19292147923E+04  0.19733188128E+04  0.90696410253E+02 0.  0.
         11    1    3    3    0    0  0.31679103722E+03 -0.26100635541E+01  0.16016198319E+04  0.16326510526E+04  0.00000000000E+00 0.  1.
        -11    1    3    3    0    0  0.86181885980E+02 -0.36176611569E+02  0.32759496047E+03  0.34066776017E+03  0.00000000000E+00 0. -1.
         22    1    1    2    0    0 -0.40297292320E+03  0.38786675123E+02  0.91329426085E+03  0.99899849344E+03  0.00000000000E+00 0.  1.
<mgrwt>
<rscale>  0 0.86879943E+03</rscale>
<asrwt>0</asrwt>
<pdfrwt beam="1">  1        2 0.44729423E+00 0.86879943E+03</pdfrwt>
<pdfrwt beam="2">  1       -2 0.99852525E-02 0.86879943E+03</pdfrwt>
<totfact> 0.14198995E+02</totfact>
</mgrwt>
</event>
<event>
 6    1  0.2238133E-007  0.1164087E+04  0.7818608E-02  0.9144885E-01
          2   -1    0    0  501    0  0.00000000000E+00  0.00000000000E+00  0.10618894491E+04  0.10618894491E+04  0.00000000000E+00 0. -1.
         -2   -1    0    0    0  501 -0.00000000000E+00 -0.00000000000E+00 -0.31903013690E+03  0.31903013690E+03  0.00000000000E+00 0.  1.
         23    2    1    2    0    0  0.17455469542E+03 -0.24917891284E+03  0.95729340543E+03  0.10087080163E+04  0.92313193779E+02 0.  0.
         13    1    3    3    0    0  0.26206066444E+02 -0.43584149387E+02  0.29875762472E+03  0.30305520013E+03  0.00000000000E+00 0.  1.
        -13    1    3    3    0    0  0.14834862898E+03 -0.20559476346E+03  0.65853578071E+03  0.70565281616E+03  0.00000000000E+00 0. -1.
         22    1    1    2    0    0 -0.17455469542E+03  0.24917891284E+03 -0.21443409323E+03  0.37221156972E+03  0.00000000000E+00 0.  1.
<mgrwt>
<rscale>  0 0.11640872E+04</rscale>
<asrwt>0</asrwt>
<pdfrwt beam="1">  1        2 0.16336761E+00 0.11640872E+04</pdfrwt>
<pdfrwt beam="2">  1       -2 0.49081560E-01 0.11640872E+04</pdfrwt>
<totfact> 0.89409459E+01</totfact>
</mgrwt>
</event>
<event>
 6    1  0.2238133E-007  0.3110643E+04  0.7818608E-02  0.8212823E-01
         -1   -1    0    0    0  501 -0.00000000000E+00  0.00000000000E+00  0.12518014596E+04  0.12518014596E+04  0.00000000000E+00 0.  1.
          1   -1    0    0  501    0  0.00000000000E+00 -0.00000000000E+00 -0.19324344662E+04  0.19324344662E+04  0.00000000000E+00 0. -1.
         23    2    1    2    0    0  0.13047669699E+04  0.82044537987E+03 -0.54620696823E+03  0.16371037960E+04  0.78862661513E+02 0.  0.
         13    1    3    3    0    0  0.34966518635E+03  0.24065566004E+03 -0.18299878462E+03  0.46224392309E+03  0.00000000000E+00 0. -1.
        -13    1    3    3    0    0  0.95510178359E+03  0.57978971984E+03 -0.36320818361E+03  0.11748598729E+04  0.00000000000E+00 0.  1.
         22    1    1    2    0    0 -0.13047669699E+04 -0.82044537987E+03 -0.13442603838E+03  0.15471321298E+04  0.00000000000E+00 0.  1.
<mgrwt>
<rscale>  0 0.31106426E+04</rscale>
<asrwt>0</asrwt>
<pdfrwt beam="1">  1        1 0.29729761E+00 0.31106426E+04</pdfrwt>
<pdfrwt beam="2">  1       -1 0.19258484E+00 0.31106426E+04</pdfrwt>
<totfact> 0.47321688E-01</totfact>
</mgrwt>
</event>
<event>
 6    1  0.2238133E-007  0.2325459E+03  0.7818608E-02  0.1124861E+00
          1   -1    0    0  501    0  0.00000000000E+00  0.00000000000E+00  0.30857879477E+03  0.30857879477E+03  0.00000000000E+00 0. -1.
         -1   -1    0    0    0  501 -0.00000000000E+00 -0.00000000000E+00 -0.43811838034E+02  0.43811838034E+02  0.00000000000E+00 0.  1.
         23    2    1    2    0    0 -0.29337132696E+02  0.40514031506E+02  0.24776406170E+02  0.10724268061E+03  0.91570017682E+02 0.  0.
         13    1    3    3    0    0  0.16651992636E+02 -0.13570272091E+02 -0.14682970306E+02  0.26019814765E+02  0.00000000000E+00 0.  1.
        -13    1    3    3    0    0 -0.45989125332E+02  0.54084303597E+02  0.39459376476E+02  0.81222865846E+02  0.00000000000E+00 0. -1.
         22    1    1    2    0    0  0.29337132696E+02 -0.40514031506E+02  0.23999055057E+03  0.24514795220E+03  0.00000000000E+00 0. -1.
<mgrwt>
<rscale>  0 0.23254595E+03</rscale>
<asrwt>0</asrwt>
<pdfrwt beam="1">  1        1 0.47473659E-01 0.23254595E+03</pdfrwt>
<pdfrwt beam="2">  1       -1 0.67402830E-02 0.23254595E+03</pdfrwt>
<totfact> 0.92964490E+03</totfact>
</mgrwt>
</event>
<event>
 6    1  0.2238133E-007  0.7963632E+03  0.7818608E-02  0.9565296E-01
          2   -1    0    0  501    0  0.00000000000E+00  0.00000000000E+00  0.11457773508E+04  0.11457773508E+04  0.00000000000E+00 0. -1.
         -2   -1    0    0    0  501 -0.00000000000E+00 -0.00000000000E+00 -0.13837644849E+03  0.13837644849E+03  0.00000000000E+00 0.  1.
         23    2    1    2    0    0 -0.37788939001E+03  0.10377931644E+03  0.49104929405E+03  0.63593352735E+03  0.98546965529E+02 0.  0.
         13    1    3    3    0    0 -0.34940459384E+03  0.94871808718E+02  0.39718416995E+03  0.53743789887E+03  0.00000000000E+00 0.  1.
        -13    1    3    3    0    0 -0.28484796172E+02  0.89075077174E+01  0.93865124096E+02  0.98495628473E+02  0.00000000000E+00 0. -1.
         22    1    1    2    0    0  0.37788939001E+03 -0.10377931644E+03  0.51635160828E+03  0.64822027195E+03  0.00000000000E+00 0.  1.
<mgrwt>
<rscale>  0 0.79636324E+03</rscale>
<asrwt>0</asrwt>
<pdfrwt beam="1">  1        2 0.17627343E+00 0.79636324E+03</pdfrwt>
<pdfrwt beam="2">  1       -2 0.21288685E-01 0.79636324E+03</pdfrwt>
<totfact> 0.39258461E+02</totfact>
</mgrwt>
</event>
<event>
 6    1  0.2238133E-007  0.5444636E+03  0.7818608E-02  0.1002784E+00
         -4   -1    0    0    0  501 -0.00000000000E+00  0.00000000000E+00  0.42142016413E+03  0.42142016413E+03  0.00000000000E+00 0.  1.
          4   -1    0    0  501    0  0.00000000000E+00 -0.00000000000E+00 -0.17585809185E+03  0.17585809185E+03  0.00000000000E+00 0. -1.
         23    2    1    2    0    0 -0.16917629680E+03 -0.10522797646E+03 -0.64956265429E+02  0.22834034185E+03  0.90699773260E+02 0.  0.
         11    1    3    3    0    0 -0.11865207904E+03 -0.34325753726E+02 -0.68434824040E+02  0.14120870501E+03  0.00000000000E+00 0.  1.
        -11    1    3    3    0    0 -0.50524217765E+02 -0.70902222732E+02  0.34785586109E+01  0.87131636844E+02  0.00000000000E+00 0. -1.
         22    1    1    2    0    0  0.16917629680E+03  0.10522797646E+03  0.31051833771E+03  0.36893791413E+03  0.00000000000E+00 0.  1.
<mgrwt>
<rscale>  0 0.54446357E+03</rscale>
<asrwt>0</asrwt>
<pdfrwt beam="1">  1        4 0.27055091E-01 0.54446357E+03</pdfrwt>
<pdfrwt beam="2">  1       -4 0.64833871E-01 0.54446357E+03</pdfrwt>
<totfact> 0.56972999E+01</totfact>
</mgrwt>
</event>
<event>
 6    1  0.2238133E-007  0.6693145E+04  0.7818608E-02  0.7609937E-01
          2   -1    0    0  501    0  0.00000000000E+00  0.00000000000E+00  0.35104799600E+04  0.35104799600E+04  0.00000000000E+00 0. -1.
         -2   -1    0    0    0  501 -0.00000000000E+00 -0.00000000000E+00 -0.31903182811E+04  0.31903182811E+04  0.00000000000E+00 0.  1.
         23    2    1    2    0    0  0.27763788210E+04 -0.56547380472E+03  0.19418273318E+04  0.34361635799E+04  0.92123719021E+02 0.  0.
         13    1    3    3    0    0  0.11826327888E+04 -0.28083885580E+03  0.86105107763E+03  0.14895971718E+04  0.00000000000E+00 0. -1.
        -13    1    3    3    0    0  0.15937460322E+04 -0.28463494891E+03  0.10807762542E+04  0.19465664080E+04  0.00000000000E+00 0.  1.
         22    1    1    2    0    0 -0.27763788210E+04  0.56547380472E+03 -0.16216656528E+04  0.32646346612E+04  0.00000000000E+00 0.  1.
<mgrwt>
<rscale>  0 0.66931453E+04</rscale>
<asrwt>0</asrwt>
<pdfrwt beam="1">  1        2 0.54007384E+00 0.66931453E+04</pdfrwt>
<pdfrwt beam="2">  1       -2 0.49081820E+00 0.66931453E+04</pdfrwt>
<totfact> 0.97046548E-04</totfact>
</mgrwt>
</event>
<event>
 6    1  0.2238133E-007  0.2154205E+04  0.7818608E-02  0.8537734E-01
          2   -1    0    0  501    0  0.00000000000E+00  0.00000000000E+00  0.12860371106E+04  0.12860371106E+04  0.00000000000E+00 0. -1.
         -2   -1    0    0    0  501 -0.00000000000E+00 -0.00000000000E+00 -0.90211219871E+03  0.90211219871E+03  0.00000000000E+00 0.  1.
         23    2    1    2    0    0 -0.10084980273E+04 -0.35421712462E+01  0.57085607567E+03  0.11624670593E+04  0.91499653797E+02 0.  0.
         11    1    3    3    0    0 -0.71416193771E+03  0.37709626076E+02  0.39081873917E+03  0.81497765372E+03  0.00000000000E+00 0. -1.
        -11    1    3    3    0    0 -0.29433608963E+03 -0.41251797322E+02  0.18003733650E+03  0.34748940556E+03  0.00000000000E+00 0.  1.
         22    1    1    2    0    0  0.10084980273E+04  0.35421712462E+01 -0.18693116373E+03  0.10256822501E+04  0.00000000000E+00 0.  1.
<mgrwt>
<rscale>  0 0.21542050E+04</rscale>
<asrwt>0</asrwt>
<pdfrwt beam="1">  1        2 0.19785186E+00 0.21542050E+04</pdfrwt>
<pdfrwt beam="2">  1       -2 0.13878649E+00 0.21542050E+04</pdfrwt>
<totfact> 0.56786924E+00</totfact>
</mgrwt>
</event>
<event>
 6    1  0.2238133E-007  0.2744637E+04  0.7818608E-02  0.8320665E-01
          2   -1    0    0  501    0  0.00000000000E+00  0.00000000000E+00  0.19342771841E+04  0.19342771841E+04  0.00000000000E+00 0. -1.
         -2   -1    0    0    0  501 -0.00000000000E+00 -0.00000000000E+00 -0.97362400514E+03  0.97362400514E+03  0.00000000000E+00 0.  1.
         23    2    1    2    0    0  0.12844992261E+04 -0.27412184568E+03  0.65154836099E+02  0.13182476640E+04  0.91927704810E+02 0.  0.
         11    1    3    3    0    0  0.39178951979E+03 -0.64751018829E+02  0.57772002740E+02  0.40128459546E+03  0.00000000000E+00 0. -1.
        -11    1    3    3    0    0  0.89270970633E+03 -0.20937082685E+03  0.73828333588E+01  0.91696306859E+03  0.00000000000E+00 0.  1.
         22    1    1    2    0    0 -0.12844992261E+04  0.27412184568E+03  0.89549834291E+03  0.15896535252E+04  0.00000000000E+00 0.  1.
<mgrwt>
<rscale>  0 0.27446375E+04</rscale>
<asrwt>0</asrwt>
<pdfrwt beam="1">  1        2 0.29758110E+00 0.27446375E+04</pdfrwt>
<pdfrwt beam="2">  1       -2 0.14978831E+00 0.27446375E+04</pdfrwt>
<totfact> 0.19107407E+00</totfact>
</mgrwt>
</event>
<event>
 6    1  0.2238133E-007  0.3077441E+04  0.7818608E-02  0.8221957E-01
         -2   -1    0    0    0  501 -0.00000000000E+00  0.00000000000E+00  0.11209751796E+04  0.11209751796E+04  0.00000000000E+00 0.  1.
          2   -1    0    0  501    0  0.00000000000E+00 -0.00000000000E+00 -0.21121433680E+04  0.21121433680E+04  0.00000000000E+00 0. -1.
         23    2    1    2    0    0 -0.78447081867E+03  0.61977667747E+03  0.73162405756E+03  0.12412524081E+04  0.76916732334E+02 0.  0.
         13    1    3    3    0    0 -0.19195389381E+03  0.18195791849E+03  0.22372018380E+03  0.34641839167E+03  0.00000000000E+00 0.  1.
        -13    1    3    3    0    0 -0.59251692486E+03  0.43781875899E+03  0.50790387376E+03  0.89483401642E+03  0.00000000000E+00 0. -1.
         22    1    1    2    0    0  0.78447081867E+03 -0.61977667747E+03 -0.17227922459E+04  0.19918661396E+04  0.00000000000E+00 0. -1.
<mgrwt>
<rscale>  0 0.30774407E+04</rscale>
<asrwt>0</asrwt>
<pdfrwt beam="1">  1        2 0.32494513E+00 0.30774407E+04</pdfrwt>
<pdfrwt beam="2">  1       -2 0.17245772E+00 0.30774407E+04</pdfrwt>
<totfact> 0.10074952E+00</totfact>
</mgrwt>
</event>
<event>
 6    1  0.2238133E-007  0.1954221E+04  0.7818608E-02  0.8628328E-01
          3   -1    0    0  501    0  0.00000000000E+00  0.00000000000E+00  0.56542364403E+03  0.56542364403E+03  0.00000000000E+00 0. -1.
         -3   -1    0    0    0  501 -0.00000000000E+00 -0.00000000000E+00 -0.16885474596E+04  0.16885474596E+04  0.00000000000E+00 0.  1.
         23    2    1    2    0    0  0.32668417940E+02  0.91751972435E+03 -0.18405069680E+03  0.94066687669E+03  0.89832309347E+02 0.  0.
         13    1    3    3    0    0 -0.27709598778E+02  0.18211984621E+03 -0.25803420373E+02  0.18601418428E+03  0.00000000000E+00 0. -1.
        -13    1    3    3    0    0  0.60378016718E+02  0.73539987814E+03 -0.15824727643E+03  0.75465269241E+03  0.00000000000E+00 0.  1.
         22    1    1    2    0    0 -0.32668417940E+02 -0.91751972435E+03 -0.93907311875E+03  0.13133042269E+04  0.00000000000E+00 0.  1.
<mgrwt>
<rscale>  0 0.19542207E+04</rscale>
<asrwt>0</asrwt>
<pdfrwt beam="1">  1        3 0.86988254E-01 0.19542207E+04</pdfrwt>
<pdfrwt beam="2">  1       -3 0.25977653E+00 0.19542207E+04</pdfrwt>
<totfact> 0.18873866E-01</totfact>
</mgrwt>
</event>
<event>
 6    1  0.2238133E-007  0.1785894E+04  0.7818608E-02  0.8713837E-01
          2   -1    0    0  501    0  0.00000000000E+00  0.00000000000E+00  0.20285849722E+04  0.20285849722E+04  0.00000000000E+00 0. -1.
         -2   -1    0    0    0  501 -0.00000000000E+00 -0.00000000000E+00 -0.39305958046E+03  0.39305958046E+03  0.00000000000E+00 0.  1.
         23    2    1    2    0    0  0.54094722398E+02 -0.88741173602E+03  0.89297153835E+03  0.12632784390E+04  0.89712974606E+02 0.  0.
         13    1    3    3    0    0  0.74811953478E+02 -0.50094590511E+03  0.51292075352E+03  0.72085458146E+03  0.00000000000E+00 0.  1.
        -13    1    3    3    0    0 -0.20717231081E+02 -0.38646583092E+03  0.38005078483E+03  0.54242385749E+03  0.00000000000E+00 0. -1.
         22    1    1    2    0    0 -0.54094722398E+02  0.88741173602E+03  0.74255385343E+03  0.11583661137E+04  0.00000000000E+00 0.  1.
<mgrwt>
<rscale>  0 0.17858945E+04</rscale>
<asrwt>0</asrwt>
<pdfrwt beam="1">  1        2 0.31208999E+00 0.17858945E+04</pdfrwt>
<pdfrwt beam="2">  1       -2 0.60470706E-01 0.17858945E+04</pdfrwt>
<totfact> 0.15507597E+01</totfact>
</mgrwt>
</event>
<event>
 6    1  0.2238133E-007  0.5628137E+03  0.7818608E-02  0.9985708E-01
          2   -1    0    0  501    0  0.00000000000E+00  0.00000000000E+00  0.21579120849E+03  0.21579120849E+03  0.00000000000E+00 0. -1.
         -2   -1    0    0    0  501 -0.00000000000E+00 -0.00000000000E+00 -0.36697422085E+03  0.36697422085E+03  0.00000000000E+00 0.  1.
         23    2    1    2    0    0  0.19996562342E+03 -0.18465101494E+03 -0.45224144438E+02  0.29068747817E+03  0.91497206821E+02 0.  0.
         13    1    3    3    0    0  0.58602535635E+02 -0.11305063537E+03 -0.61821780944E+01  0.12748695097E+03  0.00000000000E+00 0.  1.
        -13    1    3    3    0    0  0.14136308779E+03 -0.71600379563E+02 -0.39041966344E+02  0.16320052720E+03  0.00000000000E+00 0. -1.
         22    1    1    2    0    0 -0.19996562342E+03  0.18465101494E+03 -0.10595886793E+03  0.29207795117E+03  0.00000000000E+00 0.  1.
<mgrwt>
<rscale>  0 0.56281368E+03</rscale>
<asrwt>0</asrwt>
<pdfrwt beam="1">  1        2 0.33198648E-01 0.56281368E+03</pdfrwt>
<pdfrwt beam="2">  1       -2 0.56457572E-01 0.56281368E+03</pdfrwt>
<totfact> 0.47138468E+02</totfact>
</mgrwt>
</event>
<event>
 6    1  0.4325319E-007  0.2903859E+04  0.7818608E-02  0.8271730E-01
         -2   -1    0    0    0  501 -0.00000000000E+00  0.00000000000E+00  0.14643501231E+04  0.14643501231E+04  0.00000000000E+00 0.  1.
          2   -1    0    0  501    0  0.00000000000E+00 -0.00000000000E+00 -0.14396146373E+04  0.14396146373E+04  0.00000000000E+00 0. -1.
         23    2    1    2    0    0  0.11361075600E+04  0.26363540440E+03 -0.85009276754E+03  0.14460318103E+04  0.90034819330E+02 0.  0.
         11    1    3    3    0    0  0.51381949975E+03  0.15646778084E+03 -0.42345723158E+03  0.68396540245E+03  0.00000000000E+00 0.  1.
        -11    1    3    3    0    0  0.62228806021E+03  0.10716762355E+03 -0.42663553596E+03  0.76206640784E+03  0.00000000000E+00 0. -1.
         22    1    1    2    0    0 -0.11361075600E+04 -0.26363540440E+03  0.87482825330E+03  0.14579329501E+04  0.00000000000E+00 0.  1.
<mgrwt>
<rscale>  0 0.29038594E+04</rscale>
<asrwt>0</asrwt>
<pdfrwt beam="1">  1        2 0.22147917E+00 0.29038594E+04</pdfrwt>
<pdfrwt beam="2">  1       -2 0.22528464E+00 0.29038594E+04</pdfrwt>
<totfact> 0.10847428E+00</totfact>
</mgrwt>
</event>
<event>
 6    1  0.2238133E-007  0.1961349E+04  0.7818608E-02  0.8624908E-01
          2   -1    0    0  501    0  0.00000000000E+00  0.00000000000E+00  0.33906777462E+04  0.33906777462E+04  0.00000000000E+00 0. -1.
         -2   -1    0    0    0  501 -0.00000000000E+00 -0.00000000000E+00 -0.28363712420E+03  0.28363712420E+03  0.00000000000E+00 0.  1.
         23    2    1    2    0    0  0.54907154576E+03 -0.63989299276E+03  0.62701484311E+03  0.10548740010E+04  0.93107141942E+02 0.  0.
         13    1    3    3    0    0  0.25530828525E+03 -0.36890383604E+03  0.33217337104E+03  0.55822173837E+03  0.00000000000E+00 0. -1.
        -13    1    3    3    0    0  0.29376326050E+03 -0.27098915672E+03  0.29484147207E+03  0.49665226259E+03  0.00000000000E+00 0.  1.
         22    1    1    2    0    0 -0.54907154576E+03  0.63989299276E+03  0.24800257789E+04  0.26194408695E+04  0.00000000000E+00 0. -1.
<mgrwt>
<rscale>  0 0.19613486E+04</rscale>
<asrwt>0</asrwt>
<pdfrwt beam="1">  1        2 0.52164270E+00 0.19613486E+04</pdfrwt>
<pdfrwt beam="2">  1       -2 0.43636483E-01 0.19613486E+04</pdfrwt>
<totfact> 0.45136636E+00</totfact>
</mgrwt>
</event>
<event>
 6    1  0.2238133E-007  0.2059670E+04  0.7818608E-02  0.8579220E-01
          2   -1    0    0  501    0  0.00000000000E+00  0.00000000000E+00  0.13594088942E+04  0.13594088942E+04  0.00000000000E+00 0. -1.
         -2   -1    0    0    0  501 -0.00000000000E+00 -0.00000000000E+00 -0.78016296743E+03  0.78016296743E+03  0.00000000000E+00 0.  1.
         23    2    1    2    0    0 -0.84397557546E+03  0.50804316095E+03 -0.15134494697E+02  0.98905427776E+03  0.87158970058E+02 0.  0.
         11    1    3    3    0    0 -0.78400372486E+03  0.47074939901E+03  0.87036380412E+01  0.91451768194E+03  0.00000000000E+00 0. -1.
        -11    1    3    3    0    0 -0.59971850601E+02  0.37293761939E+02 -0.23838132738E+02  0.74536595820E+02  0.00000000000E+00 0.  1.
         22    1    1    2    0    0  0.84397557546E+03 -0.50804316095E+03  0.59438042147E+03  0.11505175839E+04  0.00000000000E+00 0. -1.
<mgrwt>
<rscale>  0 0.20596703E+04</rscale>
<asrwt>0</asrwt>
<pdfrwt beam="1">  1        2 0.20913983E+00 0.20596703E+04</pdfrwt>
<pdfrwt beam="2">  1       -2 0.12002507E+00 0.20596703E+04</pdfrwt>
<totfact> 0.74941259E+00</totfact>
</mgrwt>
</event>
<event>
 6    1  0.2238133E-007  0.2441174E+04  0.7818608E-02  0.8424248E-01
         -2   -1    0    0    0  501 -0.00000000000E+00  0.00000000000E+00  0.84011731124E+03  0.84011731124E+03  0.00000000000E+00 0.  1.
          2   -1    0    0  501    0  0.00000000000E+00 -0.00000000000E+00 -0.17733622964E+04  0.17733622964E+04  0.00000000000E+00 0. -1.
         23    2    1    2    0    0  0.58776917172E+03  0.52668452626E+03  0.52715635413E+03  0.95346717960E+03  0.91305265213E+02 0.  0.
         11    1    3    3    0    0  0.41119603891E+03  0.41429740224E+03  0.41306649516E+03  0.71508632300E+03  0.00000000000E+00 0. -1.
        -11    1    3    3    0    0  0.17657313280E+03  0.11238712402E+03  0.11408985897E+03  0.23838085660E+03  0.00000000000E+00 0.  1.
         22    1    1    2    0    0 -0.58776917172E+03 -0.52668452626E+03 -0.14604013393E+04  0.16600124280E+04  0.00000000000E+00 0. -1.
<mgrwt>
<rscale>  0 0.24411738E+04</rscale>
<asrwt>0</asrwt>
<pdfrwt beam="1">  1        2 0.27282497E+00 0.24411738E+04</pdfrwt>
<pdfrwt beam="2">  1       -2 0.12924882E+00 0.24411738E+04</pdfrwt>
<totfact> 0.35266525E+00</totfact>
</mgrwt>
</event>
<event>
 6    1  0.2238133E-007  0.2560334E+04  0.7818608E-02  0.8381801E-01
         -1   -1    0    0    0  501 -0.00000000000E+00  0.00000000000E+00  0.91459084616E+03  0.91459084616E+03  0.00000000000E+00 0.  1.
          1   -1    0    0  501    0  0.00000000000E+00 -0.00000000000E+00 -0.17918699138E+04  0.17918699138E+04  0.00000000000E+00 0. -1.
         23    2    1    2    0    0 -0.45501306232E+03 -0.49707037416E+03 -0.15877143112E+04  0.17272600252E+04  0.92057681418E+02 0.  0.
         11    1    3    3    0    0 -0.18609834631E+03 -0.24934904349E+03 -0.64490194781E+03  0.71603495884E+03  0.00000000000E+00 0.  1.
        -11    1    3    3    0    0 -0.26891471601E+03 -0.24772133067E+03 -0.94281236343E+03  0.10112250663E+04  0.00000000000E+00 0. -1.
         22    1    1    2    0    0  0.45501306232E+03  0.49707037416E+03  0.71043524357E+03  0.97920073482E+03  0.00000000000E+00 0.  1.
<mgrwt>
<rscale>  0 0.25603342E+04</rscale>
<asrwt>0</asrwt>
<pdfrwt beam="1">  1        1 0.27567229E+00 0.25603342E+04</pdfrwt>
<pdfrwt beam="2">  1       -1 0.14070629E+00 0.25603342E+04</pdfrwt>
<totfact> 0.15084160E+00</totfact>
</mgrwt>
</event>
<event>
 6    1  0.2238133E-007  0.1213155E+04  0.7818608E-02  0.9101419E-01
          2   -1    0    0  501    0  0.00000000000E+00  0.00000000000E+00  0.28940258659E+03  0.28940258659E+03  0.00000000000E+00 0. -1.
         -2   -1    0    0    0  501 -0.00000000000E+00 -0.00000000000E+00 -0.12713651588E+04  0.12713651588E+04  0.00000000000E+00 0.  1.
         23    2    1    2    0    0 -0.32099819090E+03  0.50834449173E+03 -0.43878163703E+03  0.75052118467E+03  0.96430092871E+02 0.  0.
         11    1    3    3    0    0 -0.58974741435E+02  0.13446677909E+03 -0.65436387828E+02  0.16075215600E+03  0.00000000000E+00 0.  1.
        -11    1    3    3    0    0 -0.26202344947E+03  0.37387771263E+03 -0.37334524920E+03  0.58976902867E+03  0.00000000000E+00 0. -1.
         22    1    1    2    0    0  0.32099819090E+03 -0.50834449173E+03 -0.54318093523E+03  0.81024656076E+03  0.00000000000E+00 0. -1.
<mgrwt>
<rscale>  0 0.12131552E+04</rscale>
<asrwt>0</asrwt>
<pdfrwt beam="1">  1        2 0.44523475E-01 0.12131552E+04</pdfrwt>
<pdfrwt beam="2">  1       -2 0.19559464E+00 0.12131552E+04</pdfrwt>
<totfact> 0.16012358E+01</totfact>
</mgrwt>
</event>
<event>
 6    1  0.2238133E-007  0.1986969E+04  0.7818608E-02  0.8612738E-01
          1   -1    0    0  501    0  0.00000000000E+00  0.00000000000E+00  0.18537695689E+04  0.18537695689E+04  0.00000000000E+00 0. -1.
         -1   -1    0    0    0  501 -0.00000000000E+00 -0.00000000000E+00 -0.53243464343E+03  0.53243464343E+03  0.00000000000E+00 0.  1.
         23    2    1    2    0    0  0.30928181488E+03  0.85261447938E+03  0.18070480490E+03  0.92893149818E+03  0.87480342526E+02 0.  0.
         11    1    3    3    0    0  0.23102340304E+03  0.52338900688E+03  0.13083272404E+03  0.58687738664E+03  0.00000000000E+00 0.  1.
        -11    1    3    3    0    0  0.78258411835E+02  0.32922547250E+03  0.49872080855E+02  0.34205411153E+03  0.00000000000E+00 0. -1.
         22    1    1    2    0    0 -0.30928181488E+03 -0.85261447938E+03  0.11406301206E+04  0.14572727142E+04  0.00000000000E+00 0. -1.
<mgrwt>
<rscale>  0 0.19869687E+04</rscale>
<asrwt>0</asrwt>
<pdfrwt beam="1">  1        1 0.28519532E+00 0.19869687E+04</pdfrwt>
<pdfrwt beam="2">  1       -1 0.81913023E-01 0.19869687E+04</pdfrwt>
<totfact> 0.51574616E+00</totfact>
</mgrwt>
</event>
<event>
 6    1  0.2238133E-007  0.1846559E+04  0.7818608E-02  0.8681925E-01
          2   -1    0    0  501    0  0.00000000000E+00  0.00000000000E+00  0.90906457786E+03  0.90906457786E+03  0.00000000000E+00 0. -1.
         -2   -1    0    0    0  501 -0.00000000000E+00 -0.00000000000E+00 -0.93771623813E+03  0.93771623813E+03  0.00000000000E+00 0.  1.
         23    2    1    2    0    0  0.34427963114E+03  0.38921006606E+03  0.74608004722E+03  0.91392382881E+03  0.92781399398E+02 0.  0.
         11    1    3    3    0    0  0.23902255817E+03  0.22789091579E+03  0.40897449463E+03  0.52566737589E+03  0.00000000000E+00 0.  1.
        -11    1    3    3    0    0  0.10525707298E+03  0.16131915027E+03  0.33710555259E+03  0.38825645293E+03  0.00000000000E+00 0. -1.
         22    1    1    2    0    0 -0.34427963114E+03 -0.38921006606E+03 -0.77473170749E+03  0.93285698718E+03  0.00000000000E+00 0.  1.
<mgrwt>
<rscale>  0 0.18465585E+04</rscale>
<asrwt>0</asrwt>
<pdfrwt beam="1">  1        2 0.13985609E+00 0.18465585E+04</pdfrwt>
<pdfrwt beam="2">  1       -2 0.14426404E+00 0.18465585E+04</pdfrwt>
<totfact> 0.90285215E+00</totfact>
</mgrwt>
</event>
<event>
 6    1  0.2238133E-007  0.3445585E+04  0.7818608E-02  0.8126808E-01
         -2   -1    0    0    0  501 -0.00000000000E+00  0.00000000000E+00  0.13031224317E+04  0.13031224317E+04  0.00000000000E+00 0.  1.
          2   -1    0    0  501    0  0.00000000000E+00 -0.00000000000E+00 -0.22776171596E+04  0.22776171596E+04  0.00000000000E+00 0. -1.
         23    2    1    2    0    0 -0.51228799229E+03  0.10434855552E+04 -0.18074331114E+04  0.21506740537E+04  0.85342499740E+02 0.  0.
         13    1    3    3    0    0 -0.32615285215E+03  0.56975822663E+03 -0.10045304130E+04  0.12000339455E+04  0.00000000000E+00 0.  1.
        -13    1    3    3    0    0 -0.18613514014E+03  0.47372732862E+03 -0.80290269839E+03  0.95064010822E+03  0.00000000000E+00 0. -1.
         22    1    1    2    0    0  0.51228799229E+03 -0.10434855552E+04  0.83293838353E+03  0.14300655376E+04  0.00000000000E+00 0.  1.
<mgrwt>
<rscale>  0 0.34455850E+04</rscale>
<asrwt>0</asrwt>
<pdfrwt beam="1">  1        2 0.35040264E+00 0.34455850E+04</pdfrwt>
<pdfrwt beam="2">  1       -2 0.20048038E+00 0.34455850E+04</pdfrwt>
<totfact> 0.50872097E-01</totfact>
</mgrwt>
</event>
<event>
 6    1  0.2238133E-007  0.7306081E+03  0.7818608E-02  0.9666274E-01
          2   -1    0    0  501    0  0.00000000000E+00  0.00000000000E+00  0.22237005667E+04  0.22237005667E+04  0.00000000000E+00 0. -1.
         -2   -1    0    0    0  501 -0.00000000000E+00 -0.00000000000E+00 -0.60011242416E+02  0.60011242416E+02  0.00000000000E+00 0.  1.
         23    2    1    2    0    0  0.31572993518E+03  0.15832316007E+03  0.13081591242E+04  0.13581398031E+04  0.92259501828E+02 0.  0.
         13    1    3    3    0    0  0.22324871247E+03  0.98112005023E+02  0.73328849970E+03  0.77277291421E+03  0.00000000000E+00 0.  1.
        -13    1    3    3    0    0  0.92481222714E+02  0.60211155043E+02  0.57487062450E+03  0.58536688893E+03  0.00000000000E+00 0. -1.
         22    1    1    2    0    0 -0.31572993518E+03 -0.15832316007E+03  0.85553020012E+03  0.92557200600E+03  0.00000000000E+00 0.  1.
<mgrwt>
<rscale>  0 0.73060806E+03</rscale>
<asrwt>0</asrwt>
<pdfrwt beam="1">  1        2 0.34210772E+00 0.73060806E+03</pdfrwt>
<pdfrwt beam="2">  1       -2 0.92325006E-02 0.73060806E+03</pdfrwt>
<totfact> 0.40348166E+02</totfact>
</mgrwt>
</event>
<event>
 6    1  0.2238133E-007  0.1311519E+04  0.7818608E-02  0.9020480E-01
         -1   -1    0    0    0  501 -0.00000000000E+00  0.00000000000E+00  0.21984096872E+03  0.21984096872E+03  0.00000000000E+00 0.  1.
          1   -1    0    0  501    0  0.00000000000E+00 -0.00000000000E+00 -0.19560526781E+04  0.19560526781E+04  0.00000000000E+00 0. -1.
         23    2    1    2    0    0 -0.45365206193E+03  0.36167126825E+03 -0.37607163574E+03  0.69718227555E+03  0.89593250672E+02 0.  0.
         13    1    3    3    0    0 -0.39735739402E+03  0.28580119191E+03 -0.28734400068E+03  0.56757536469E+03  0.00000000000E+00 0. -1.
        -13    1    3    3    0    0 -0.56294667904E+02  0.75870076337E+02 -0.88727635061E+02  0.12960691085E+03  0.00000000000E+00 0.  1.
         22    1    1    2    0    0  0.45365206193E+03 -0.36167126825E+03 -0.13601400736E+04  0.14787113712E+04  0.00000000000E+00 0. -1.
<mgrwt>
<rscale>  0 0.13115190E+04</rscale>
<asrwt>0</asrwt>
<pdfrwt beam="1">  1        1 0.30093119E+00 0.13115190E+04</pdfrwt>
<pdfrwt beam="2">  1       -1 0.33821686E-01 0.13115190E+04</pdfrwt>
<totfact> 0.25879551E+01</totfact>
</mgrwt>
</event>
<event>
 6    1  0.2238133E-007  0.1069983E+04  0.7818608E-02  0.9234952E-01
         -2   -1    0    0    0  501 -0.00000000000E+00  0.00000000000E+00  0.84369951461E+03  0.84369951461E+03  0.00000000000E+00 0.  1.
          2   -1    0    0  501    0  0.00000000000E+00 -0.00000000000E+00 -0.33923940311E+03  0.33923940311E+03  0.00000000000E+00 0. -1.
         23    2    1    2    0    0 -0.40778909733E+03 -0.34007254746E+03  0.24641501703E+03  0.59257584620E+03  0.92111277484E+02 0.  0.
         13    1    3    3    0    0 -0.33622090446E+03 -0.22929136668E+03  0.18990207747E+03  0.44908999817E+03  0.00000000000E+00 0.  1.
        -13    1    3    3    0    0 -0.71568192872E+02 -0.11078118078E+03  0.56512939563E+02  0.14348584803E+03  0.00000000000E+00 0. -1.
         22    1    1    2    0    0  0.40778909733E+03  0.34007254746E+03  0.25804509447E+03  0.59036307152E+03  0.00000000000E+00 0.  1.
<mgrwt>
<rscale>  0 0.10699834E+04</rscale>
<asrwt>0</asrwt>
<pdfrwt beam="1">  1        2 0.52190678E-01 0.10699834E+04</pdfrwt>
<pdfrwt beam="2">  1       -2 0.12979992E+00 0.10699834E+04</pdfrwt>
<totfact> 0.41470947E+01</totfact>
</mgrwt>
</event>
<event>
 6    1  0.2238133E-007  0.9993658E+03  0.7818608E-02  0.9309241E-01
          4   -1    0    0  501    0  0.00000000000E+00  0.00000000000E+00  0.10173236967E+04  0.10173236967E+04  0.00000000000E+00 0. -1.
         -4   -1    0    0    0  501 -0.00000000000E+00 -0.00000000000E+00 -0.24543121267E+03  0.24543121267E+03  0.00000000000E+00 0.  1.
         23    2    1    2    0    0 -0.31099883327E+03 -0.53481586735E+02 -0.94118838989E+02  0.34104119785E+03  0.88714082112E+02 0.  0.
         11    1    3    3    0    0 -0.13682494893E+03 -0.18590367279E+02 -0.87121439986E+02  0.16326914501E+03  0.00000000000E+00 0.  1.
        -11    1    3    3    0    0 -0.17417388434E+03 -0.34891219456E+02 -0.69973990030E+01  0.17777205284E+03  0.00000000000E+00 0. -1.
         22    1    1    2    0    0  0.31099883327E+03  0.53481586735E+02  0.86601132301E+03  0.92171371151E+03  0.00000000000E+00 0. -1.
<mgrwt>
<rscale>  0 0.99936578E+03</rscale>
<asrwt>0</asrwt>
<pdfrwt beam="1">  1        4 0.15651134E+00 0.99936578E+03</pdfrwt>
<pdfrwt beam="2">  1       -4 0.37758648E-01 0.99936578E+03</pdfrwt>
<totfact> 0.36137898E+00</totfact>
</mgrwt>
</event>
<event>
 6    1  0.2238133E-007  0.3418083E+04  0.7818608E-02  0.8133482E-01
          2   -1    0    0  501    0  0.00000000000E+00  0.00000000000E+00  0.43613042308E+04  0.43613042308E+04  0.00000000000E+00 0. -1.
         -2   -1    0    0    0  501 -0.00000000000E+00 -0.00000000000E+00 -0.66971310643E+03  0.66971310643E+03  0.00000000000E+00 0.  1.
         23    2    1    2    0    0 -0.87538676901E+03 -0.79222564512E+03  0.36635046950E+04  0.38500379489E+04  0.87189964718E+02 0.  0.
         11    1    3    3    0    0 -0.72840862623E+03 -0.61550565910E+03  0.29893107683E+04  0.31377388695E+04  0.00000000000E+00 0. -1.
        -11    1    3    3    0    0 -0.14697814278E+03 -0.17671998602E+03  0.67419392664E+03  0.71229907948E+03  0.00000000000E+00 0.  1.
         22    1    1    2    0    0  0.87538676901E+03  0.79222564512E+03  0.28086429427E+02  0.11809793883E+04  0.00000000000E+00 0.  1.
<mgrwt>
<rscale>  0 0.34180829E+04</rscale>
<asrwt>0</asrwt>
<pdfrwt beam="1">  1        2 0.67096986E+00 0.34180829E+04</pdfrwt>
<pdfrwt beam="2">  1       -2 0.10303279E+00 0.34180829E+04</pdfrwt>
<totfact> 0.10571339E-01</totfact>
</mgrwt>
</event>
<event>
 6    1  0.2238133E-007  0.3933518E+04  0.7818608E-02  0.8018094E-01
         -2   -1    0    0    0  501 -0.00000000000E+00  0.00000000000E+00  0.28444929497E+04  0.28444929497E+04  0.00000000000E+00 0.  1.
          2   -1    0    0  501    0  0.00000000000E+00 -0.00000000000E+00 -0.13598699732E+04  0.13598699732E+04  0.00000000000E+00 0. -1.
         23    2    1    2    0    0  0.38459292043E+03  0.19154908866E+04  0.97456271575E+03  0.21851604763E+04  0.90204042400E+02 0.  0.
         13    1    3    3    0    0  0.18721019286E+03  0.89633629804E+03  0.50647640837E+03  0.10464151985E+04  0.00000000000E+00 0. -1.
        -13    1    3    3    0    0  0.19738272757E+03  0.10191545885E+04  0.46808630738E+03  0.11387452778E+04  0.00000000000E+00 0.  1.
         22    1    1    2    0    0 -0.38459292043E+03 -0.19154908866E+04  0.51006026069E+03  0.20192024466E+04  0.00000000000E+00 0.  1.
<mgrwt>
<rscale>  0 0.39335178E+04</rscale>
<asrwt>0</asrwt>
<pdfrwt beam="1">  1        2 0.20921077E+00 0.39335178E+04</pdfrwt>
<pdfrwt beam="2">  1       -2 0.43761430E+00 0.39335178E+04</pdfrwt>
<totfact> 0.50719898E-02</totfact>
</mgrwt>
</event>
<event>
 6    1  0.2238133E-007  0.8069073E+03  0.7818608E-02  0.9550073E-01
          2   -1    0    0  501    0  0.00000000000E+00  0.00000000000E+00  0.41707473450E+03  0.41707473450E+03  0.00000000000E+00 0. -1.
         -2   -1    0    0    0  501 -0.00000000000E+00 -0.00000000000E+00 -0.39027736477E+03  0.39027736477E+03  0.00000000000E+00 0.  1.
         23    2    1    2    0    0  0.55410602514E+02 -0.43458482333E+02  0.40575887421E+03  0.42190327461E+03  0.91668612808E+02 0.  0.
         13    1    3    3    0    0  0.39461374055E+02  0.17110791496E+02  0.25578085665E+03  0.25937198356E+03  0.00000000000E+00 0. -1.
        -13    1    3    3    0    0  0.15949228460E+02 -0.60569273829E+02  0.14997801755E+03  0.16253129105E+03  0.00000000000E+00 0.  1.
         22    1    1    2    0    0 -0.55410602514E+02  0.43458482333E+02 -0.37896150447E+03  0.38544882465E+03  0.00000000000E+00 0.  1.
<mgrwt>
<rscale>  0 0.80690725E+03</rscale>
<asrwt>0</asrwt>
<pdfrwt beam="1">  1        2 0.64165343E-01 0.80690725E+03</pdfrwt>
<pdfrwt beam="2">  1       -2 0.60042672E-01 0.80690725E+03</pdfrwt>
<totfact> 0.19758660E+02</totfact>
</mgrwt>
</event>
<event>
 6    1  0.2238133E-007  0.2422565E+04  0.7818608E-02  0.8431104E-01
         -2   -1    0    0    0  501 -0.00000000000E+00  0.00000000000E+00  0.85794199464E+03  0.85794199464E+03  0.00000000000E+00 0.  1.
          2   -1    0    0  501    0  0.00000000000E+00 -0.00000000000E+00 -0.17101453176E+04  0.17101453176E+04  0.00000000000E+00 0. -1.
         23    2    1    2    0    0 -0.39324129951E+03  0.63908522500E+03  0.57892485431E+03  0.95216760378E+03  0.91654319522E+02 0.  0.
         11    1    3    3    0    0 -0.36687940991E+02  0.43350956053E+02  0.75965110142E+02  0.94847289702E+02  0.00000000000E+00 0. -1.
        -11    1    3    3    0    0 -0.35655335852E+03  0.59573426895E+03  0.50295974417E+03  0.85732031407E+03  0.00000000000E+00 0.  1.
         22    1    1    2    0    0  0.39324129951E+03 -0.63908522500E+03 -0.14311281773E+04  0.16159197085E+04  0.00000000000E+00 0. -1.
<mgrwt>
<rscale>  0 0.24225652E+04</rscale>
<asrwt>0</asrwt>
<pdfrwt beam="1">  1        2 0.26309928E+00 0.24225652E+04</pdfrwt>
<pdfrwt beam="2">  1       -2 0.13199108E+00 0.24225652E+04</pdfrwt>
<totfact> 0.36311394E+00</totfact>
</mgrwt>
</event>
<event>
 6    1  0.2238133E-007  0.2652640E+04  0.7818608E-02  0.8350537E-01
         -4   -1    0    0    0  501 -0.00000000000E+00  0.00000000000E+00  0.17621066772E+04  0.17621066772E+04  0.00000000000E+00 0.  1.
          4   -1    0    0  501    0  0.00000000000E+00 -0.00000000000E+00 -0.99830774745E+03  0.99830774745E+03  0.00000000000E+00 0. -1.
         23    2    1    2    0    0 -0.41866189550E+02 -0.13225371322E+04  0.31540718025E+03  0.13633058372E+04  0.90905844250E+02 0.  0.
         11    1    3    3    0    0 -0.30797062795E+01 -0.50452436716E+03  0.16381404070E+03  0.53046146097E+03  0.00000000000E+00 0.  1.
        -11    1    3    3    0    0 -0.38786483270E+02 -0.81801276509E+03  0.15159313955E+03  0.83284437627E+03  0.00000000000E+00 0. -1.
         22    1    1    2    0    0  0.41866189550E+02  0.13225371322E+04  0.44839174951E+03  0.13971085874E+04  0.00000000000E+00 0. -1.
<mgrwt>
<rscale>  0 0.26526400E+04</rscale>
<asrwt>0</asrwt>
<pdfrwt beam="1">  1        4 0.15358581E+00 0.26526400E+04</pdfrwt>
<pdfrwt beam="2">  1       -4 0.27109334E+00 0.26526400E+04</pdfrwt>
<totfact> 0.22919247E-02</totfact>
</mgrwt>
</event>
<event>
 6    1  0.2238133E-007  0.4359908E+04  0.7818608E-02  0.7935632E-01
         -2   -1    0    0    0  501 -0.00000000000E+00  0.00000000000E+00  0.17476934683E+04  0.17476934683E+04  0.00000000000E+00 0.  1.
          2   -1    0    0  501    0  0.00000000000E+00 -0.00000000000E+00 -0.27191263497E+04  0.27191263497E+04  0.00000000000E+00 0. -1.
         23    2    1    2    0    0  0.19636617082E+04  0.27180985910E+01 -0.14535742586E+04  0.24448319348E+04  0.91380367131E+02 0.  0.
         11    1    3    3    0    0  0.34734649854E+03  0.26188172814E+02 -0.28750958423E+03  0.45166046038E+03  0.00000000000E+00 0. -1.
        -11    1    3    3    0    0  0.16163152097E+04 -0.23470074223E+02 -0.11660646744E+04  0.19931714744E+04  0.00000000000E+00 0.  1.
         22    1    1    2    0    0 -0.19636617082E+04 -0.27180985910E+01  0.48214137718E+03  0.20219878832E+04  0.00000000000E+00 0.  1.
<mgrwt>
<rscale>  0 0.43599080E+04</rscale>
<asrwt>0</asrwt>
<pdfrwt beam="1">  1        2 0.41832713E+00 0.43599080E+04</pdfrwt>
<pdfrwt beam="2">  1       -2 0.26887592E+00 0.43599080E+04</pdfrwt>
<totfact> 0.97586865E-02</totfact>
</mgrwt>
</event>
<event>
 6    1  0.2238133E-007  0.7035896E+04  0.7818608E-02  0.7573745E-01
         -2   -1    0    0    0  501 -0.00000000000E+00  0.00000000000E+00  0.33544813755E+04  0.33544813755E+04  0.00000000000E+00 0.  1.
          2   -1    0    0  501    0  0.00000000000E+00 -0.00000000000E+00 -0.36893804583E+04  0.36893804583E+04  0.00000000000E+00 0. -1.
         23    2    1    2    0    0  0.25522682192E+04 -0.49543826386E+03 -0.25392788927E+04  0.36352224451E+04  0.85864976637E+02 0.  0.
         13    1    3    3    0    0  0.52743356619E+03 -0.10614984797E+03 -0.47791322599E+03  0.71962143419E+03  0.00000000000E+00 0.  1.
        -13    1    3    3    0    0  0.20248346530E+04 -0.38928841589E+03 -0.20613656667E+04  0.29156010109E+04  0.00000000000E+00 0. -1.
         22    1    1    2    0    0 -0.25522682192E+04  0.49543826386E+03  0.22043798100E+04  0.34086393888E+04  0.00000000000E+00 0.  1.
<mgrwt>
<rscale>  0 0.70358960E+04</rscale>
<asrwt>0</asrwt>
<pdfrwt beam="1">  1        2 0.56759699E+00 0.70358960E+04</pdfrwt>
<pdfrwt beam="2">  1       -2 0.51607406E+00 0.70358960E+04</pdfrwt>
<totfact> 0.49436987E-04</totfact>
</mgrwt>
</event>
<event>
 6    1  0.2238133E-007  0.2986461E+04  0.7818608E-02  0.8247608E-01
         -2   -1    0    0    0  501 -0.00000000000E+00  0.00000000000E+00  0.20938952994E+04  0.20938952994E+04  0.00000000000E+00 0.  1.
          2   -1    0    0  501    0  0.00000000000E+00 -0.00000000000E+00 -0.10648751147E+04  0.10648751147E+04  0.00000000000E+00 0. -1.
         23    2    1    2    0    0  0.45421306053E+01 -0.96247103874E+03 -0.69057911394E+03  0.11881378052E+04  0.91655878544E+02 0.  0.
         13    1    3    3    0    0 -0.40835836247E+02 -0.58682666943E+03 -0.40799640983E+03  0.71588698543E+03  0.00000000000E+00 0. -1.
        -13    1    3    3    0    0  0.45377966852E+02 -0.37564436931E+03 -0.28258270411E+03  0.47225081973E+03  0.00000000000E+00 0.  1.
         22    1    1    2    0    0 -0.45421306053E+01  0.96247103874E+03  0.17195992987E+04  0.19706326089E+04  0.00000000000E+00 0.  1.
<mgrwt>
<rscale>  0 0.29864608E+04</rscale>
<asrwt>0</asrwt>
<pdfrwt beam="1">  1        2 0.16382694E+00 0.29864608E+04</pdfrwt>
<pdfrwt beam="2">  1       -2 0.32213774E+00 0.29864608E+04</pdfrwt>
<totfact> 0.45594941E-01</totfact>
</mgrwt>
</event>
<event>
 6    1  0.2238133E-007  0.1918021E+04  0.7818608E-02  0.8645938E-01
          2   -1    0    0  501    0  0.00000000000E+00  0.00000000000E+00  0.57451183400E+03  0.57451183400E+03  0.00000000000E+00 0. -1.
         -2   -1    0    0    0  501 -0.00000000000E+00 -0.00000000000E+00 -0.16008396783E+04  0.16008396783E+04  0.00000000000E+00 0.  1.
         23    2    1    2    0    0 -0.66764080648E+03  0.12141959017E+03  0.25117275284E+03  0.72880571660E+03  0.87080752287E+02 0.  0.
         11    1    3    3    0    0 -0.46845497977E+03  0.12316568503E+03  0.19161137070E+03  0.52089804321E+03  0.00000000000E+00 0.  1.
        -11    1    3    3    0    0 -0.19918582672E+03 -0.17460948602E+01  0.59561382144E+02  0.20790767339E+03  0.00000000000E+00 0. -1.
         22    1    1    2    0    0  0.66764080648E+03 -0.12141959017E+03 -0.12775005972E+04  0.14465457957E+04  0.00000000000E+00 0.  1.
<mgrwt>
<rscale>  0 0.19180212E+04</rscale>
<asrwt>0</asrwt>
<pdfrwt beam="1">  1        2 0.88386437E-01 0.19180212E+04</pdfrwt>
<pdfrwt beam="2">  1       -2 0.24628302E+00 0.19180212E+04</pdfrwt>
<totfact> 0.33101065E+00</totfact>
</mgrwt>
</event>
<event>
 6    1  0.2238133E-007  0.1690406E+04  0.7818608E-02  0.8766855E-01
         -2   -1    0    0    0  501 -0.00000000000E+00  0.00000000000E+00  0.48524653797E+03  0.48524653797E+03  0.00000000000E+00 0.  1.
          2   -1    0    0  501    0  0.00000000000E+00 -0.00000000000E+00 -0.14721758403E+04  0.14721758403E+04  0.00000000000E+00 0. -1.
         23    2    1    2    0    0 -0.21765743649E+03 -0.80709568942E+03 -0.61959245593E+03  0.10443426609E+04  0.89322843867E+02 0.  0.
         11    1    3    3    0    0 -0.28625895789E+02 -0.52052419090E+02 -0.23184420835E+02  0.63768437430E+02  0.00000000000E+00 0. -1.
        -11    1    3    3    0    0 -0.18903154070E+03 -0.75504327033E+03 -0.59640803509E+03  0.98057422349E+03  0.00000000000E+00 0.  1.
         22    1    1    2    0    0  0.21765743649E+03  0.80709568942E+03 -0.36733684641E+03  0.91307971737E+03  0.00000000000E+00 0. -1.
<mgrwt>
<rscale>  0 0.16904061E+04</rscale>
<asrwt>0</asrwt>
<pdfrwt beam="1">  1        2 0.22648859E+00 0.16904061E+04</pdfrwt>
<pdfrwt beam="2">  1       -2 0.74653312E-01 0.16904061E+04</pdfrwt>
<totfact> 0.20221202E+01</totfact>
</mgrwt>
</event>
<event>
 6    1  0.2238133E-007  0.4422472E+04  0.7818608E-02  0.7924352E-01
          1   -1    0    0  501    0  0.00000000000E+00  0.00000000000E+00  0.26429007844E+04  0.26429007844E+04  0.00000000000E+00 0. -1.
         -1   -1    0    0    0  501 -0.00000000000E+00 -0.00000000000E+00 -0.18500747062E+04  0.18500747062E+04  0.00000000000E+00 0.  1.
         23    2    1    2    0    0  0.84423021588E+03  0.20342130539E+04  0.58597479502E+03  0.22808419369E+04  0.90144742264E+02 0.  0.
         13    1    3    3    0    0  0.78048451146E+03  0.18520528455E+04  0.55815388566E+03  0.20858551185E+04  0.00000000000E+00 0.  1.
        -13    1    3    3    0    0  0.63745704421E+02  0.18216020840E+03  0.27820909356E+02  0.19498681841E+03  0.00000000000E+00 0. -1.
         22    1    1    2    0    0 -0.84423021588E+03 -0.20342130539E+04  0.20685128326E+03  0.22121335537E+04  0.00000000000E+00 0.  1.
<mgrwt>
<rscale>  0 0.44224717E+04</rscale>
<asrwt>0</asrwt>
<pdfrwt beam="1">  1        1 0.40660012E+00 0.44224717E+04</pdfrwt>
<pdfrwt beam="2">  1       -1 0.28462688E+00 0.44224717E+04</pdfrwt>
<totfact> 0.33819861E-02</totfact>
</mgrwt>
</event>
<event>
 6    1  0.2238133E-007  0.4369811E+04  0.7818608E-02  0.7933834E-01
         -2   -1    0    0    0  501 -0.00000000000E+00  0.00000000000E+00  0.14604345547E+04  0.14604345547E+04  0.00000000000E+00 0.  1.
          2   -1    0    0  501    0  0.00000000000E+00 -0.00000000000E+00 -0.32687618878E+04  0.32687618878E+04  0.00000000000E+00 0. -1.
         23    2    1    2    0    0  0.34394605130E+03 -0.11947337961E+04 -0.28477868742E+04  0.31086521303E+04  0.90223370828E+02 0.  0.
         13    1    3    3    0    0  0.43732268227E+02 -0.28669527547E+03 -0.68212691663E+03  0.74121779704E+03  0.00000000000E+00 0.  1.
        -13    1    3    3    0    0  0.30021378308E+03 -0.90803852062E+03 -0.21656599576E+04  0.23674343333E+04  0.00000000000E+00 0. -1.
         22    1    1    2    0    0 -0.34394605130E+03  0.11947337961E+04  0.10394595412E+04  0.16205443121E+04  0.00000000000E+00 0.  1.
<mgrwt>
<rscale>  0 0.43698114E+04</rscale>
<asrwt>0</asrwt>
<pdfrwt beam="1">  1        2 0.50288644E+00 0.43698114E+04</pdfrwt>
<pdfrwt beam="2">  1       -2 0.22468224E+00 0.43698114E+04</pdfrwt>
<totfact> 0.82509541E-02</totfact>
</mgrwt>
</event>
<event>
 6    1  0.2238133E-007  0.1187141E+04  0.7818608E-02  0.9124187E-01
         -4   -1    0    0    0  501 -0.00000000000E+00  0.00000000000E+00  0.31592937829E+03  0.31592937829E+03  0.00000000000E+00 0.  1.
          4   -1    0    0  501    0  0.00000000000E+00 -0.00000000000E+00 -0.11152053675E+04  0.11152053675E+04  0.00000000000E+00 0. -1.
         23    2    1    2    0    0 -0.53755880217E+03 -0.91459886395E+02 -0.13059928084E+03  0.56831210068E+03  0.92671975368E+02 0.  0.
         11    1    3    3    0    0 -0.24929552431E+03  0.43361150947E+01 -0.60113423206E+02  0.25647745317E+03  0.00000000000E+00 0. -1.
        -11    1    3    3    0    0 -0.28826327786E+03 -0.95796001490E+02 -0.70485857632E+02  0.31183464752E+03  0.00000000000E+00 0.  1.
         22    1    1    2    0    0  0.53755880217E+03  0.91459886395E+02 -0.66867670838E+03  0.86282264512E+03  0.00000000000E+00 0.  1.
<mgrwt>
<rscale>  0 0.11871413E+04</rscale>
<asrwt>0</asrwt>
<pdfrwt beam="1">  1        4 0.17157005E+00 0.11871413E+04</pdfrwt>
<pdfrwt beam="2">  1       -4 0.48604520E-01 0.11871413E+04</pdfrwt>
<totfact> 0.16623197E+00</totfact>
</mgrwt>
</event>
<event>
 6    1  0.2238133E-007  0.1564433E+04  0.7818608E-02  0.8842701E-01
          2   -1    0    0  501    0  0.00000000000E+00  0.00000000000E+00  0.36707141105E+04  0.36707141105E+04  0.00000000000E+00 0. -1.
         -2   -1    0    0    0  501 -0.00000000000E+00 -0.00000000000E+00 -0.16668770167E+03  0.16668770167E+03  0.00000000000E+00 0.  1.
         23    2    1    2    0    0 -0.24316236368E+03  0.64569525860E+03  0.86719516401E+03  0.11117955831E+04  0.89507899777E+02 0.  0.
         13    1    3    3    0    0 -0.16415872306E+03  0.31878305611E+03  0.47498062550E+03  0.59512798440E+03  0.00000000000E+00 0. -1.
        -13    1    3    3    0    0 -0.79003640623E+02  0.32691220249E+03  0.39221453851E+03  0.51666759874E+03  0.00000000000E+00 0.  1.
         22    1    1    2    0    0  0.24316236368E+03 -0.64569525860E+03  0.26368312448E+04  0.27256062290E+04  0.00000000000E+00 0. -1.
<mgrwt>
<rscale>  0 0.15644333E+04</rscale>
<asrwt>0</asrwt>
<pdfrwt beam="1">  1        2 0.56472519E+00 0.15644333E+04</pdfrwt>
<pdfrwt beam="2">  1       -2 0.25644265E-01 0.15644333E+04</pdfrwt>
<totfact> 0.82035352E+00</totfact>
</mgrwt>
</event>
<event>
 6    1  0.2238133E-007  0.3611581E+04  0.7818608E-02  0.8087844E-01
         -2   -1    0    0    0  501 -0.00000000000E+00  0.00000000000E+00  0.74120161035E+03  0.74120161035E+03  0.00000000000E+00 0.  1.
          2   -1    0    0  501    0  0.00000000000E+00 -0.00000000000E+00 -0.43994491084E+04  0.43994491084E+04  0.00000000000E+00 0. -1.
         23    2    1    2    0    0 -0.16250990046E+04 -0.53868813821E+03 -0.26424500467E+04  0.31499281999E+04  0.91508087000E+02 0.  0.
         13    1    3    3    0    0 -0.55042232648E+03 -0.22337310686E+03 -0.87986915675E+03  0.10616166989E+04  0.00000000000E+00 0.  1.
        -13    1    3    3    0    0 -0.10746766781E+04 -0.31531503135E+03 -0.17625808900E+04  0.20883115010E+04  0.00000000000E+00 0. -1.
         22    1    1    2    0    0  0.16250990046E+04  0.53868813821E+03 -0.10157974514E+04  0.19907225189E+04  0.00000000000E+00 0.  1.
<mgrwt>
<rscale>  0 0.36115807E+04</rscale>
<asrwt>0</asrwt>
<pdfrwt beam="1">  1        2 0.67683833E+00 0.36115807E+04</pdfrwt>
<pdfrwt beam="2">  1       -2 0.11403102E+00 0.36115807E+04</pdfrwt>
<totfact> 0.74953713E-02</totfact>
</mgrwt>
</event>
<event>
 6    1  0.2238133E-007  0.1579877E+04  0.7818608E-02  0.8833007E-01
          2   -1    0    0  501    0  0.00000000000E+00  0.00000000000E+00  0.28384256596E+04  0.28384256596E+04  0.00000000000E+00 0. -1.
         -2   -1    0    0    0  501 -0.00000000000E+00 -0.00000000000E+00 -0.21984107303E+03  0.21984107303E+03  0.00000000000E+00 0.  1.
         23    2    1    2    0    0  0.53690857299E+03 -0.41741603716E+02  0.20181250013E+03  0.58222139884E+03  0.90776069706E+02 0.  0.
         11    1    3    3    0    0  0.17618740342E+03 -0.30789785569E+02  0.25832438628E+02  0.18071338331E+03  0.00000000000E+00 0.  1.
        -11    1    3    3    0    0  0.36072116956E+03 -0.10951818148E+02  0.17598006150E+03  0.40150801554E+03  0.00000000000E+00 0. -1.
         22    1    1    2    0    0 -0.53690857299E+03  0.41741603716E+02  0.24167720864E+04  0.24760453338E+04  0.00000000000E+00 0. -1.
<mgrwt>
<rscale>  0 0.15798766E+04</rscale>
<asrwt>0</asrwt>
<pdfrwt beam="1">  1        2 0.43668084E+00 0.15798766E+04</pdfrwt>
<pdfrwt beam="2">  1       -2 0.33821706E-01 0.15798766E+04</pdfrwt>
<totfact> 0.17294592E+01</totfact>
</mgrwt>
</event>
<event>
 6    1  0.3233671E-007  0.2816173E+04  0.7818608E-02  0.8298265E-01
         -2   -1    0    0    0  501 -0.00000000000E+00  0.00000000000E+00  0.65596156710E+03  0.65596156710E+03  0.00000000000E+00 0.  1.
          2   -1    0    0  501    0  0.00000000000E+00 -0.00000000000E+00 -0.30225981374E+04  0.30225981374E+04  0.00000000000E+00 0. -1.
         23    2    1    2    0    0  0.10837491170E+03  0.51954704186E+03  0.51694921127E+03  0.74653971653E+03  0.91710474532E+02 0.  0.
         13    1    3    3    0    0  0.50395083580E+02  0.28096116526E+03  0.21496180903E+03  0.35733376579E+03  0.00000000000E+00 0. -1.
        -13    1    3    3    0    0  0.57979828119E+02  0.23858587659E+03  0.30198740224E+03  0.38920595074E+03  0.00000000000E+00 0.  1.
         22    1    1    2    0    0 -0.10837491170E+03 -0.51954704186E+03 -0.28835857815E+04  0.29320199879E+04  0.00000000000E+00 0. -1.
<mgrwt>
<rscale>  0 0.28161734E+04</rscale>
<asrwt>0</asrwt>
<pdfrwt beam="1">  1        2 0.46501510E+00 0.28161734E+04</pdfrwt>
<pdfrwt beam="2">  1       -2 0.10091716E+00 0.28161734E+04</pdfrwt>
<totfact> 0.11830889E+00</totfact>
</mgrwt>
</event>
<event>
 6    1  0.2238133E-007  0.2936392E+04  0.7818608E-02  0.8262132E-01
          2   -1    0    0  501    0  0.00000000000E+00  0.00000000000E+00  0.18653928210E+04  0.18653928210E+04  0.00000000000E+00 0. -1.
         -2   -1    0    0    0  501 -0.00000000000E+00 -0.00000000000E+00 -0.11555736910E+04  0.11555736910E+04  0.00000000000E+00 0.  1.
         23    2    1    2    0    0  0.43393313224E+03  0.75229128584E+03  0.15714348515E+04  0.17976015650E+04  0.87884880174E+02 0.  0.
         11    1    3    3    0    0  0.80326229196E+02  0.14800584148E+03  0.38067321438E+03  0.41625728625E+03  0.00000000000E+00 0. -1.
        -11    1    3    3    0    0  0.35360690304E+03  0.60428544435E+03  0.11907616371E+04  0.13813442788E+04  0.00000000000E+00 0.  1.
         22    1    1    2    0    0 -0.43393313224E+03 -0.75229128584E+03 -0.86161572145E+03  0.12233649470E+04  0.00000000000E+00 0.  1.
<mgrwt>
<rscale>  0 0.29363916E+04</rscale>
<asrwt>0</asrwt>
<pdfrwt beam="1">  1        2 0.28698351E+00 0.29363916E+04</pdfrwt>
<pdfrwt beam="2">  1       -2 0.17778057E+00 0.29363916E+04</pdfrwt>
<totfact> 0.12832684E+00</totfact>
</mgrwt>
</event>
<event>
 6    1  0.2238133E-007  0.3426195E+04  0.7818608E-02  0.8131507E-01
         -2   -1    0    0    0  501 -0.00000000000E+00  0.00000000000E+00  0.38498700956E+04  0.38498700956E+04  0.00000000000E+00 0.  1.
          2   -1    0    0  501    0  0.00000000000E+00 -0.00000000000E+00 -0.76228645894E+03  0.76228645894E+03  0.00000000000E+00 0. -1.
         23    2    1    2    0    0  0.97444550548E+03 -0.10899347104E+04  0.27437064046E+04  0.31102400233E+04  0.90368424671E+02 0.  0.
         13    1    3    3    0    0  0.33352555788E+03 -0.37379782050E+03  0.10328560171E+04  0.11479353903E+04  0.00000000000E+00 0. -1.
        -13    1    3    3    0    0  0.64091994759E+03 -0.71613688986E+03  0.17108503875E+04  0.19623046330E+04  0.00000000000E+00 0.  1.
         22    1    1    2    0    0 -0.97444550548E+03  0.10899347104E+04  0.34387723207E+03  0.15019165312E+04  0.00000000000E+00 0. -1.
<mgrwt>
<rscale>  0 0.34261955E+04</rscale>
<asrwt>0</asrwt>
<pdfrwt beam="1">  1        2 0.11727484E+00 0.34261955E+04</pdfrwt>
<pdfrwt beam="2">  1       -2 0.59228770E+00 0.34261955E+04</pdfrwt>
<totfact> 0.16421825E-02</totfact>
</mgrwt>
</event>
<event>
 6    1  0.2238133E-007  0.1811650E+04  0.7818608E-02  0.8700129E-01
          2   -1    0    0  501    0  0.00000000000E+00  0.00000000000E+00  0.19468705371E+03  0.19468705371E+03  0.00000000000E+00 0. -1.
         -2   -1    0    0    0  501 -0.00000000000E+00 -0.00000000000E+00 -0.42145508085E+04  0.42145508085E+04  0.00000000000E+00 0.  1.
         23    2    1    2    0    0 -0.55839912336E+03  0.43690836771E+03 -0.33780536437E+04  0.34528808570E+04  0.91876493457E+02 0.  0.
         11    1    3    3    0    0 -0.39533231106E+03  0.25495548778E+03 -0.21847691775E+04  0.22348392103E+04  0.00000000000E+00 0. -1.
        -11    1    3    3    0    0 -0.16306681230E+03  0.18195287993E+03 -0.11932844662E+04  0.12180416467E+04  0.00000000000E+00 0.  1.
         22    1    1    2    0    0  0.55839912336E+03 -0.43690836771E+03 -0.64181011108E+03  0.95635700522E+03  0.00000000000E+00 0. -1.
<mgrwt>
<rscale>  0 0.18116495E+04</rscale>
<asrwt>0</asrwt>
<pdfrwt beam="1">  1        2 0.29951854E-01 0.18116495E+04</pdfrwt>
<pdfrwt beam="2">  1       -2 0.64839243E+00 0.18116495E+04</pdfrwt>
<totfact> 0.56180812E-02</totfact>
</mgrwt>
</event>
<event>
 6    1  0.3171131E-007  0.3657015E+04  0.7818608E-02  0.8077555E-01
         -2   -1    0    0    0  501 -0.00000000000E+00  0.00000000000E+00  0.13838885118E+04  0.13838885118E+04  0.00000000000E+00 0.  1.
          2   -1    0    0  501    0  0.00000000000E+00 -0.00000000000E+00 -0.24159752343E+04  0.24159752343E+04  0.00000000000E+00 0. -1.
         23    2    1    2    0    0 -0.93398696703E+03  0.71477693267E+03 -0.19695665679E+04  0.22958337669E+04  0.91774188538E+02 0.  0.
         13    1    3    3    0    0 -0.43583705511E+03  0.35410407164E+03 -0.85691663953E+03  0.10245241624E+04  0.00000000000E+00 0.  1.
        -13    1    3    3    0    0 -0.49814991192E+03  0.36067286103E+03 -0.11126499284E+04  0.12713096045E+04  0.00000000000E+00 0. -1.
         22    1    1    2    0    0  0.93398696703E+03 -0.71477693267E+03  0.93747984539E+03  0.15040299793E+04  0.00000000000E+00 0.  1.
<mgrwt>
<rscale>  0 0.36570154E+04</rscale>
<asrwt>0</asrwt>
<pdfrwt beam="1">  1        2 0.37168850E+00 0.36570154E+04</pdfrwt>
<pdfrwt beam="2">  1       -2 0.21290593E+00 0.36570154E+04</pdfrwt>
<totfact> 0.34635050E-01</totfact>
</mgrwt>
</event>
<event>
 6    1  0.2238133E-007  0.2369223E+04  0.7818608E-02  0.8451117E-01
         -2   -1    0    0    0  501 -0.00000000000E+00  0.00000000000E+00  0.72690947310E+03  0.72690947310E+03  0.00000000000E+00 0.  1.
          2   -1    0    0  501    0  0.00000000000E+00 -0.00000000000E+00 -0.19305070188E+04  0.19305070188E+04  0.00000000000E+00 0. -1.
         23    2    1    2    0    0 -0.35884897097E+03  0.83085404978E+03  0.25144170686E+03  0.94387330233E+03  0.92643633918E+02 0.  0.
         13    1    3    3    0    0 -0.34090875522E+03  0.75745406900E+03  0.20635802758E+03  0.85588496982E+03  0.00000000000E+00 0. -1.
        -13    1    3    3    0    0 -0.17940215751E+02  0.73399980786E+02  0.45083679279E+02  0.87988332510E+02  0.00000000000E+00 0.  1.
         22    1    1    2    0    0  0.35884897097E+03 -0.83085404978E+03 -0.14550392525E+04  0.17135431895E+04  0.00000000000E+00 0. -1.
<mgrwt>
<rscale>  0 0.23692225E+04</rscale>
<asrwt>0</asrwt>
<pdfrwt beam="1">  1        2 0.29700107E+00 0.23692225E+04</pdfrwt>
<pdfrwt beam="2">  1       -2 0.11183223E+00 0.23692225E+04</pdfrwt>
<totfact> 0.41555022E+00</totfact>
</mgrwt>
</event>
<event>
 6    1  0.2238133E-007  0.5267383E+04  0.7818608E-02  0.7788534E-01
         -1   -1    0    0    0  501 -0.00000000000E+00  0.00000000000E+00  0.32649597088E+04  0.32649597088E+04  0.00000000000E+00 0.  1.
          1   -1    0    0  501    0  0.00000000000E+00 -0.00000000000E+00 -0.21244770274E+04  0.21244770274E+04  0.00000000000E+00 0. -1.
         23    2    1    2    0    0 -0.12196280290E+04  0.14293119292E+04  0.24574706301E+04  0.30949035861E+04  0.94027600618E+02 0.  0.
         13    1    3    3    0    0 -0.88572269490E+03  0.10058742659E+04  0.18123927199E+04  0.22541195847E+04  0.00000000000E+00 0.  1.
        -13    1    3    3    0    0 -0.33390533407E+03  0.42343766326E+03  0.64507791023E+03  0.84078400142E+03  0.00000000000E+00 0. -1.
         22    1    1    2    0    0  0.12196280290E+04 -0.14293119292E+04 -0.13169879486E+04  0.22945331501E+04  0.00000000000E+00 0. -1.
<mgrwt>
<rscale>  0 0.52673834E+04</rscale>
<asrwt>0</asrwt>
<pdfrwt beam="1">  1        1 0.32684262E+00 0.52673834E+04</pdfrwt>
<pdfrwt beam="2">  1       -1 0.50230149E+00 0.52673834E+04</pdfrwt>
<totfact> 0.25154284E-03</totfact>
</mgrwt>
</event>
<event>
 6    1  0.2238133E-007  0.4625096E+04  0.7818608E-02  0.7889095E-01
          2   -1    0    0  501    0  0.00000000000E+00  0.00000000000E+00  0.31543265299E+04  0.31543265299E+04  0.00000000000E+00 0. -1.
         -2   -1    0    0    0  501 -0.00000000000E+00 -0.00000000000E+00 -0.16954105169E+04  0.16954105169E+04  0.00000000000E+00 0.  1.
         23    2    1    2    0    0 -0.20216938171E+03  0.25589438658E+03  0.31294636102E+04  0.31476548893E+04  0.88512248323E+02 0.  0.
         11    1    3    3    0    0 -0.10199147066E+03  0.12717796802E+03  0.19764513371E+04  0.19831632267E+04  0.00000000000E+00 0. -1.
        -11    1    3    3    0    0 -0.10017791106E+03  0.12871641856E+03  0.11530122731E+04  0.11644916626E+04  0.00000000000E+00 0.  1.
         22    1    1    2    0    0  0.20216938171E+03 -0.25589438658E+03 -0.16705475973E+04  0.17020821575E+04  0.00000000000E+00 0.  1.
<mgrwt>
<rscale>  0 0.46250961E+04</rscale>
<asrwt>0</asrwt>
<pdfrwt beam="1">  1        2 0.48528100E+00 0.46250961E+04</pdfrwt>
<pdfrwt beam="2">  1       -2 0.26083239E+00 0.46250961E+04</pdfrwt>
<totfact> 0.57382005E-02</totfact>
</mgrwt>
</event>
<event>
 6    1  0.2238133E-007  0.2161041E+04  0.7818608E-02  0.8534821E-01
          2   -1    0    0  501    0  0.00000000000E+00  0.00000000000E+00  0.12301783170E+04  0.12301783170E+04  0.00000000000E+00 0. -1.
         -2   -1    0    0    0  501 -0.00000000000E+00 -0.00000000000E+00 -0.94906958468E+03  0.94906958468E+03  0.00000000000E+00 0.  1.
         23    2    1    2    0    0  0.66823864358E+02  0.35120318224E+03  0.11669505688E+04  0.12239862290E+04  0.92517862447E+02 0.  0.
         11    1    3    3    0    0  0.95363795582E+01  0.24458645686E+03  0.85607566798E+03  0.89038139397E+03  0.00000000000E+00 0.  1.
        -11    1    3    3    0    0  0.57287484800E+02  0.10661672538E+03  0.31087490079E+03  0.33360483508E+03  0.00000000000E+00 0. -1.
         22    1    1    2    0    0 -0.66823864358E+02 -0.35120318224E+03 -0.88584183644E+03  0.95526167266E+03  0.00000000000E+00 0.  1.
<mgrwt>
<rscale>  0 0.21610413E+04</rscale>
<asrwt>0</asrwt>
<pdfrwt beam="1">  1        2 0.18925820E+00 0.21610413E+04</pdfrwt>
<pdfrwt beam="2">  1       -2 0.14601070E+00 0.21610413E+04</pdfrwt>
<totfact> 0.53619495E+00</totfact>
</mgrwt>
</event>
<event>
 6    1  0.2238133E-007  0.2851986E+04  0.7818608E-02  0.8287308E-01
         -2   -1    0    0    0  501 -0.00000000000E+00  0.00000000000E+00  0.19946631466E+04  0.19946631466E+04  0.00000000000E+00 0.  1.
          2   -1    0    0  501    0  0.00000000000E+00 -0.00000000000E+00 -0.10194485435E+04  0.10194485435E+04  0.00000000000E+00 0. -1.
         23    2    1    2    0    0 -0.10245750913E+04  0.89300937627E+03  0.93761750940E+03  0.16544671023E+04  0.10447456657E+03 0.  0.
         11    1    3    3    0    0 -0.10155336015E+04  0.86598512892E+03  0.91876919689E+03  0.16203010758E+04  0.00000000000E+00 0. -1.
        -11    1    3    3    0    0 -0.90414898002E+01  0.27024247351E+02  0.18848312511E+02  0.34166026506E+02  0.00000000000E+00 0.  1.
         22    1    1    2    0    0  0.10245750913E+04 -0.89300937627E+03  0.37597093706E+02  0.13596445878E+04  0.00000000000E+00 0. -1.
<mgrwt>
<rscale>  0 0.28519863E+04</rscale>
<asrwt>0</asrwt>
<pdfrwt beam="1">  1        2 0.15683824E+00 0.28519863E+04</pdfrwt>
<pdfrwt beam="2">  1       -2 0.30687125E+00 0.28519863E+04</pdfrwt>
<totfact> 0.61169741E-01</totfact>
</mgrwt>
</event>
<event>
 6    1  0.2795494E-007  0.2256920E+04  0.7818608E-02  0.8495103E-01
         -2   -1    0    0    0  501 -0.00000000000E+00  0.00000000000E+00  0.79993904571E+03  0.79993904571E+03  0.00000000000E+00 0.  1.
          2   -1    0    0  501    0  0.00000000000E+00 -0.00000000000E+00 -0.15918991709E+04  0.15918991709E+04  0.00000000000E+00 0. -1.
         23    2    1    2    0    0 -0.15306040615E+03 -0.32720280423E+03  0.73418461621E+03  0.82352481211E+03  0.93149892366E+02 0.  0.
         11    1    3    3    0    0 -0.16509258003E+03 -0.29248289315E+03  0.64907499887E+03  0.73082156299E+03  0.00000000000E+00 0. -1.
        -11    1    3    3    0    0  0.12032173881E+02 -0.34719911084E+02  0.85109617336E+02  0.92703249118E+02  0.00000000000E+00 0.  1.
         22    1    1    2    0    0  0.15306040615E+03  0.32720280423E+03 -0.15261447414E+04  0.15683134045E+04  0.00000000000E+00 0. -1.
<mgrwt>
<rscale>  0 0.22569203E+04</rscale>
<asrwt>0</asrwt>
<pdfrwt beam="1">  1        2 0.24490756E+00 0.22569203E+04</pdfrwt>
<pdfrwt beam="2">  1       -2 0.12306755E+00 0.22569203E+04</pdfrwt>
<totfact> 0.51125616E+00</totfact>
</mgrwt>
</event>
<event>
 6    1  0.2238133E-007  0.2398314E+04  0.7818608E-02  0.8440135E-01
         -2   -1    0    0    0  501 -0.00000000000E+00  0.00000000000E+00  0.70383306067E+03  0.70383306067E+03  0.00000000000E+00 0.  1.
          2   -1    0    0  501    0  0.00000000000E+00 -0.00000000000E+00 -0.20430656784E+04  0.20430656784E+04  0.00000000000E+00 0. -1.
         23    2    1    2    0    0  0.41937660546E+03 -0.74022683560E+03 -0.16356796655E+04  0.18459584760E+04  0.91116527568E+02 0.  0.
         13    1    3    3    0    0  0.41212209378E+03 -0.68150674837E+03 -0.15272171175E+04  0.17224076730E+04  0.00000000000E+00 0.  1.
        -13    1    3    3    0    0  0.72545116775E+01 -0.58720087233E+02 -0.10846254808E+03  0.12355080299E+03  0.00000000000E+00 0. -1.
         22    1    1    2    0    0 -0.41937660546E+03  0.74022683560E+03  0.29644704783E+03  0.90094026302E+03  0.00000000000E+00 0. -1.
<mgrwt>
<rscale>  0 0.23983137E+04</rscale>
<asrwt>0</asrwt>
<pdfrwt beam="1">  1        2 0.31431780E+00 0.23983137E+04</pdfrwt>
<pdfrwt beam="2">  1       -2 0.10828201E+00 0.23983137E+04</pdfrwt>
<totfact> 0.38805556E+00</totfact>
</mgrwt>
</event>
<event>
 6    1  0.2238133E-007  0.2506068E+04  0.7818608E-02  0.8400827E-01
         -2   -1    0    0    0  501 -0.00000000000E+00  0.00000000000E+00  0.69686998204E+03  0.69686998204E+03  0.00000000000E+00 0.  1.
          2   -1    0    0  501    0  0.00000000000E+00 -0.00000000000E+00 -0.22530667282E+04  0.22530667282E+04  0.00000000000E+00 0. -1.
         23    2    1    2    0    0  0.77748511135E+03 -0.82672482848E+03 -0.13993212113E+04  0.18042635571E+04  0.96488811396E+02 0.  0.
         13    1    3    3    0    0  0.39457235149E+03 -0.43793065041E+03 -0.65273864982E+03  0.87951028425E+03  0.00000000000E+00 0. -1.
        -13    1    3    3    0    0  0.38291275986E+03 -0.38879417807E+03 -0.74658256144E+03  0.92475327283E+03  0.00000000000E+00 0.  1.
         22    1    1    2    0    0 -0.77748511135E+03  0.82672482848E+03 -0.15687553489E+03  0.11456731531E+04  0.00000000000E+00 0.  1.
<mgrwt>
<rscale>  0 0.25060683E+04</rscale>
<asrwt>0</asrwt>
<pdfrwt beam="1">  1        2 0.34662565E+00 0.25060683E+04</pdfrwt>
<pdfrwt beam="2">  1       -2 0.10721077E+00 0.25060683E+04</pdfrwt>
<totfact> 0.30033892E+00</totfact>
</mgrwt>
</event>
<event>
 6    1  0.2238133E-007  0.2566762E+04  0.7818608E-02  0.8379580E-01
          2   -1    0    0  501    0  0.00000000000E+00  0.00000000000E+00  0.30644828782E+04  0.30644828782E+04  0.00000000000E+00 0. -1.
         -2   -1    0    0    0  501 -0.00000000000E+00 -0.00000000000E+00 -0.53746979275E+03  0.53746979275E+03  0.00000000000E+00 0.  1.
         23    2    1    2    0    0 -0.24775558977E+03  0.43583171428E+03  0.29205022142E+04  0.29646412793E+04  0.91829278995E+02 0.  0.
         13    1    3    3    0    0 -0.19102309713E+03  0.36434604061E+03  0.21739596635E+04  0.22125411814E+04  0.00000000000E+00 0.  1.
        -13    1    3    3    0    0 -0.56732492641E+02  0.71485673663E+02  0.74654255072E+03  0.75210009792E+03  0.00000000000E+00 0. -1.
         22    1    1    2    0    0  0.24775558977E+03 -0.43583171428E+03 -0.39348912876E+03  0.63731139161E+03  0.00000000000E+00 0.  1.
<mgrwt>
<rscale>  0 0.25667621E+04</rscale>
<asrwt>0</asrwt>
<pdfrwt beam="1">  1        2 0.47145889E+00 0.25667621E+04</pdfrwt>
<pdfrwt beam="2">  1       -2 0.82687662E-01 0.25667621E+04</pdfrwt>
<totfact> 0.18040972E+00</totfact>
</mgrwt>
</event>
<event>
 6    1  0.2238133E-007  0.4134368E+04  0.7818608E-02  0.7977975E-01
          1   -1    0    0  501    0  0.00000000000E+00  0.00000000000E+00  0.32399596449E+04  0.32399596449E+04  0.00000000000E+00 0. -1.
         -1   -1    0    0    0  501 -0.00000000000E+00 -0.00000000000E+00 -0.13189208184E+04  0.13189208184E+04  0.00000000000E+00 0.  1.
         23    2    1    2    0    0  0.72805923303E+03 -0.19327167976E+04  0.89016082621E+03  0.22505967030E+04  0.85643191552E+02 0.  0.
         13    1    3    3    0    0  0.24198173495E+03 -0.75147747863E+03  0.32276405343E+03  0.85290690882E+03  0.00000000000E+00 0. -1.
        -13    1    3    3    0    0  0.48607749809E+03 -0.11812393190E+04  0.56739677278E+03  0.13976897941E+04  0.00000000000E+00 0.  1.
         22    1    1    2    0    0 -0.72805923303E+03  0.19327167976E+04  0.10308780002E+04  0.23082837603E+04  0.00000000000E+00 0.  1.
<mgrwt>
<rscale>  0 0.41343683E+04</rscale>
<asrwt>0</asrwt>
<pdfrwt beam="1">  1        1 0.49845533E+00 0.41343683E+04</pdfrwt>
<pdfrwt beam="2">  1       -1 0.20291090E+00 0.41343683E+04</pdfrwt>
<totfact> 0.44086173E-02</totfact>
</mgrwt>
</event>
<event>
 6    1  0.2238133E-007  0.3417202E+04  0.7818608E-02  0.8133697E-01
         -2   -1    0    0    0  501 -0.00000000000E+00  0.00000000000E+00  0.25507495807E+04  0.25507495807E+04  0.00000000000E+00 0.  1.
          2   -1    0    0  501    0  0.00000000000E+00 -0.00000000000E+00 -0.11444939828E+04  0.11444939828E+04  0.00000000000E+00 0. -1.
         23    2    1    2    0    0  0.67793301927E+03  0.11754757605E+04 -0.41697069120E+03  0.14224720080E+04  0.90695170929E+02 0.  0.
         11    1    3    3    0    0  0.15417528670E+03  0.31413152033E+03 -0.14125947480E+03  0.37736304843E+03  0.00000000000E+00 0. -1.
        -11    1    3    3    0    0  0.52375773257E+03  0.86134424017E+03 -0.27571121640E+03  0.10451089596E+04  0.00000000000E+00 0.  1.
         22    1    1    2    0    0 -0.67793301927E+03 -0.11754757605E+04  0.18232262891E+04  0.22727715555E+04  0.00000000000E+00 0.  1.
<mgrwt>
<rscale>  0 0.34172021E+04</rscale>
<asrwt>0</asrwt>
<pdfrwt beam="1">  1        2 0.17607600E+00 0.34172021E+04</pdfrwt>
<pdfrwt beam="2">  1       -2 0.39242301E+00 0.34172021E+04</pdfrwt>
<totfact> 0.14066600E-01</totfact>
</mgrwt>
</event>
<event>
 6    1  0.2238133E-007  0.2165101E+04  0.7818608E-02  0.8533096E-01
          2   -1    0    0  501    0  0.00000000000E+00  0.00000000000E+00  0.82259528610E+03  0.82259528610E+03  0.00000000000E+00 0. -1.
         -2   -1    0    0    0  501 -0.00000000000E+00 -0.00000000000E+00 -0.14246557481E+04  0.14246557481E+04  0.00000000000E+00 0.  1.
         23    2    1    2    0    0  0.41164269826E+02 -0.47050143732E+03  0.70722451440E+03  0.85538421261E+03  0.91921367363E+02 0.  0.
         11    1    3    3    0    0 -0.74039158707E+01 -0.35017168910E+03  0.48901001813E+03  0.60150297393E+03  0.00000000000E+00 0. -1.
        -11    1    3    3    0    0  0.48568185697E+02 -0.12032974822E+03  0.21821449628E+03  0.25388123868E+03  0.00000000000E+00 0.  1.
         22    1    1    2    0    0 -0.41164269826E+02  0.47050143732E+03 -0.13092849764E+04  0.13918668216E+04  0.00000000000E+00 0.  1.
<mgrwt>
<rscale>  0 0.21651006E+04</rscale>
<asrwt>0</asrwt>
<pdfrwt beam="1">  1        2 0.12655312E+00 0.21651006E+04</pdfrwt>
<pdfrwt beam="2">  1       -2 0.21917781E+00 0.21651006E+04</pdfrwt>
<totfact> 0.30414952E+00</totfact>
</mgrwt>
</event>
<event>
 6    1  0.2238133E-007  0.4055378E+04  0.7818608E-02  0.7993467E-01
          2   -1    0    0  501    0  0.00000000000E+00  0.00000000000E+00  0.47228156106E+04  0.47228156106E+04  0.00000000000E+00 0. -1.
         -2   -1    0    0    0  501 -0.00000000000E+00 -0.00000000000E+00 -0.87056619781E+03  0.87056619781E+03  0.00000000000E+00 0.  1.
         23    2    1    2    0    0  0.19938364344E+04 -0.96569332805E+02  0.24101814304E+04  0.31308080675E+04  0.90968483561E+02 0.  0.
         13    1    3    3    0    0  0.27299131427E+03 -0.41976256710E+02  0.31370082460E+03  0.41796467691E+03  0.00000000000E+00 0. -1.
        -13    1    3    3    0    0  0.17208451202E+04 -0.54593076095E+02  0.20964806058E+04  0.27128433906E+04  0.00000000000E+00 0.  1.
         22    1    1    2    0    0 -0.19938364344E+04  0.96569332805E+02  0.14420679824E+04  0.24625737409E+04  0.00000000000E+00 0.  1.
<mgrwt>
<rscale>  0 0.40553785E+04</rscale>
<asrwt>0</asrwt>
<pdfrwt beam="1">  1        2 0.72658700E+00 0.40553785E+04</pdfrwt>
<pdfrwt beam="2">  1       -2 0.13393326E+00 0.40553785E+04</pdfrwt>
<totfact> 0.22710126E-02</totfact>
</mgrwt>
</event>
<event>
 6    1  0.2238133E-007  0.1526047E+04  0.7818608E-02  0.8867314E-01
          2   -1    0    0  501    0  0.00000000000E+00  0.00000000000E+00  0.16258517792E+04  0.16258517792E+04  0.00000000000E+00 0. -1.
         -2   -1    0    0    0  501 -0.00000000000E+00 -0.00000000000E+00 -0.35809243742E+03  0.35809243742E+03  0.00000000000E+00 0.  1.
         23    2    1    2    0    0 -0.40366245494E+03 -0.60472878270E+03  0.92517087617E+03  0.11801985262E+04  0.91033690964E+02 0.  0.
         11    1    3    3    0    0 -0.24620098955E+03 -0.43079650817E+03  0.66743220736E+03  0.83166478231E+03  0.00000000000E+00 0. -1.
        -11    1    3    3    0    0 -0.15746146540E+03 -0.17393227453E+03  0.25773866880E+03  0.34853374385E+03  0.00000000000E+00 0.  1.
         22    1    1    2    0    0  0.40366245494E+03  0.60472878270E+03  0.34258846562E+03  0.80374569046E+03  0.00000000000E+00 0.  1.
<mgrwt>
<rscale>  0 0.15260475E+04</rscale>
<asrwt>0</asrwt>
<pdfrwt beam="1">  1        2 0.25013104E+00 0.15260475E+04</pdfrwt>
<pdfrwt beam="2">  1       -2 0.55091145E-01 0.15260475E+04</pdfrwt>
<totfact> 0.32222169E+01</totfact>
</mgrwt>
</event>
<event>
 6    1  0.2238133E-007  0.5175832E+04  0.7818608E-02  0.7801942E-01
         -2   -1    0    0    0  501 -0.00000000000E+00  0.00000000000E+00  0.35049107105E+04  0.35049107105E+04  0.00000000000E+00 0.  1.
          2   -1    0    0  501    0  0.00000000000E+00 -0.00000000000E+00 -0.19108355527E+04  0.19108355527E+04  0.00000000000E+00 0. -1.
         23    2    1    2    0    0 -0.18632864728E+04 -0.75383417553E+03 -0.90699352790E+03  0.22070943633E+04  0.92335395234E+02 0.  0.
         11    1    3    3    0    0 -0.74973984260E+03 -0.32387043335E+03 -0.41375207831E+03  0.91552862952E+03  0.00000000000E+00 0. -1.
        -11    1    3    3    0    0 -0.11135466302E+04 -0.42996374218E+03 -0.49324144959E+03  0.12915657338E+04  0.00000000000E+00 0.  1.
         22    1    1    2    0    0  0.18632864728E+04  0.75383417553E+03  0.25010686857E+04  0.32086518999E+04  0.00000000000E+00 0.  1.
<mgrwt>
<rscale>  0 0.51758315E+04</rscale>
<asrwt>0</asrwt>
<pdfrwt beam="1">  1        2 0.29397470E+00 0.51758315E+04</pdfrwt>
<pdfrwt beam="2">  1       -2 0.53921703E+00 0.51758315E+04</pdfrwt>
<totfact> 0.52917751E-03</totfact>
</mgrwt>
</event>
<event>
 6    1  0.2238133E-007  0.2640149E+04  0.7818608E-02  0.8354690E-01
          2   -1    0    0  501    0  0.00000000000E+00  0.00000000000E+00  0.20456054446E+04  0.20456054446E+04  0.00000000000E+00 0. -1.
         -2   -1    0    0    0  501 -0.00000000000E+00 -0.00000000000E+00 -0.85187305779E+03  0.85187305779E+03  0.00000000000E+00 0.  1.
         23    2    1    2    0    0 -0.72901495483E+03  0.10984691229E+04  0.58500036140E+03  0.14453587081E+04  0.93483441420E+02 0.  0.
         11    1    3    3    0    0 -0.11475232071E+03  0.24055414547E+03  0.12009765139E+03  0.29233172575E+03  0.00000000000E+00 0.  1.
        -11    1    3    3    0    0 -0.61426263413E+03  0.85791497743E+03  0.46490271001E+03  0.11530269823E+04  0.00000000000E+00 0. -1.
         22    1    1    2    0    0  0.72901495483E+03 -0.10984691229E+04  0.60873202545E+03  0.14521197944E+04  0.00000000000E+00 0.  1.
<mgrwt>
<rscale>  0 0.26401486E+04</rscale>
<asrwt>0</asrwt>
<pdfrwt beam="1">  1        2 0.31470853E+00 0.26401486E+04</pdfrwt>
<pdfrwt beam="2">  1       -2 0.13105739E+00 0.26401486E+04</pdfrwt>
<totfact> 0.23637767E+00</totfact>
</mgrwt>
</event>
<event>
 6    1  0.2648140E-007  0.2799262E+04  0.7818608E-02  0.8303498E-01
         -2   -1    0    0    0  501 -0.00000000000E+00  0.00000000000E+00  0.15169310763E+04  0.15169310763E+04  0.00000000000E+00 0.  1.
          2   -1    0    0  501    0  0.00000000000E+00 -0.00000000000E+00 -0.12914012737E+04  0.12914012737E+04  0.00000000000E+00 0. -1.
         23    2    1    2    0    0  0.23884309116E+03  0.50060012062E+03 -0.11746881970E+04  0.13022589954E+04  0.91321562981E+02 0.  0.
         11    1    3    3    0    0  0.14608789340E+03  0.23298184031E+03 -0.50228468228E+03  0.57263610833E+03  0.00000000000E+00 0. -1.
        -11    1    3    3    0    0  0.92755197765E+02  0.26761828031E+03 -0.67240351473E+03  0.72962288704E+03  0.00000000000E+00 0.  1.
         22    1    1    2    0    0 -0.23884309116E+03 -0.50060012062E+03  0.14002179996E+04  0.15060733546E+04  0.00000000000E+00 0.  1.
<mgrwt>
<rscale>  0 0.27992618E+04</rscale>
<asrwt>0</asrwt>
<pdfrwt beam="1">  1        2 0.19867712E+00 0.27992618E+04</pdfrwt>
<pdfrwt beam="2">  1       -2 0.23337401E+00 0.27992618E+04</pdfrwt>
<totfact> 0.11853106E+00</totfact>
</mgrwt>
</event>
<event>
 6    1  0.2238133E-007  0.1789191E+04  0.7818608E-02  0.8712069E-01
          2   -1    0    0  501    0  0.00000000000E+00  0.00000000000E+00  0.18156971921E+04  0.18156971921E+04  0.00000000000E+00 0. -1.
         -2   -1    0    0    0  501 -0.00000000000E+00 -0.00000000000E+00 -0.44076782838E+03  0.44076782838E+03  0.00000000000E+00 0.  1.
         23    2    1    2    0    0 -0.10448032596E+03  0.88160523647E+03  0.58312249796E+03  0.10668844036E+04  0.10033220544E+03 0.  0.
         11    1    3    3    0    0 -0.12182061411E+03  0.79368747438E+03  0.53800922500E+03  0.96655780748E+03  0.00000000000E+00 0.  1.
        -11    1    3    3    0    0  0.17340288153E+02  0.87917762091E+02  0.45113272953E+02  0.10032659608E+03  0.00000000000E+00 0. -1.
         22    1    1    2    0    0  0.10448032596E+03 -0.88160523647E+03  0.79180686577E+03  0.11895806169E+04  0.00000000000E+00 0. -1.
<mgrwt>
<rscale>  0 0.17891908E+04</rscale>
<asrwt>0</asrwt>
<pdfrwt beam="1">  1        2 0.27933803E+00 0.17891908E+04</pdfrwt>
<pdfrwt beam="2">  1       -2 0.67810436E-01 0.17891908E+04</pdfrwt>
<totfact> 0.15918613E+01</totfact>
</mgrwt>
</event>
<event>
 6    1  0.2238133E-007  0.7410602E+03  0.7818608E-02  0.9649481E-01
         -2   -1    0    0    0  501 -0.00000000000E+00  0.00000000000E+00  0.78699140667E+02  0.78699140667E+02  0.00000000000E+00 0.  1.
          2   -1    0    0  501    0  0.00000000000E+00 -0.00000000000E+00 -0.17445243888E+04  0.17445243888E+04  0.00000000000E+00 0. -1.
         23    2    1    2    0    0 -0.63379853431E+02  0.18406941214E+03 -0.16046180046E+04  0.16191527550E+04  0.94647499372E+02 0.  0.
         11    1    3    3    0    0 -0.96229489314E+01  0.29176723872E+02 -0.63715640727E+03  0.63789667634E+03  0.00000000000E+00 0.  1.
        -11    1    3    3    0    0 -0.53756904499E+02  0.15489268827E+03 -0.96746159732E+03  0.98125607868E+03  0.00000000000E+00 0. -1.
         22    1    1    2    0    0  0.63379853431E+02 -0.18406941214E+03 -0.61207243502E+02  0.20407077440E+03  0.00000000000E+00 0.  1.
<mgrwt>
<rscale>  0 0.74106024E+03</rscale>
<asrwt>0</asrwt>
<pdfrwt beam="1">  1        2 0.26838836E+00 0.74106024E+03</pdfrwt>
<pdfrwt beam="2">  1       -2 0.12107560E-01 0.74106024E+03</pdfrwt>
<totfact> 0.47289183E+02</totfact>
</mgrwt>
</event>
<event>
 6    1  0.2238133E-007  0.8266010E+03  0.7818608E-02  0.9522292E-01
          2   -1    0    0  501    0  0.00000000000E+00  0.00000000000E+00  0.25695807640E+03  0.25695807640E+03  0.00000000000E+00 0. -1.
         -2   -1    0    0    0  501 -0.00000000000E+00 -0.00000000000E+00 -0.66476723696E+03  0.66476723696E+03  0.00000000000E+00 0.  1.
         23    2    1    2    0    0 -0.10575521154E+03  0.50069657615E+02 -0.64282493315E+03  0.65919236544E+03  0.87290002863E+02 0.  0.
         13    1    3    3    0    0 -0.52719115324E+02 -0.20274573036E+02 -0.29694999142E+03  0.30227414848E+03  0.00000000000E+00 0. -1.
        -13    1    3    3    0    0 -0.53036096219E+02  0.70344230651E+02 -0.34587494172E+03  0.35691821696E+03  0.00000000000E+00 0.  1.
         22    1    1    2    0    0  0.10575521154E+03 -0.50069657615E+02  0.23501577258E+03  0.26253294792E+03  0.00000000000E+00 0. -1.
<mgrwt>
<rscale>  0 0.82660102E+03</rscale>
<asrwt>0</asrwt>
<pdfrwt beam="1">  1        2 0.39532012E-01 0.82660102E+03</pdfrwt>
<pdfrwt beam="2">  1       -2 0.10227188E+00 0.82660102E+03</pdfrwt>
<totfact> 0.10281643E+02</totfact>
</mgrwt>
</event>
<event>
 6    1  0.2238133E-007  0.2887492E+04  0.7818608E-02  0.8276609E-01
          2   -1    0    0  501    0  0.00000000000E+00  0.00000000000E+00  0.26570297832E+04  0.26570297832E+04  0.00000000000E+00 0. -1.
         -2   -1    0    0    0  501 -0.00000000000E+00 -0.00000000000E+00 -0.78448572950E+03  0.78448572950E+03  0.00000000000E+00 0.  1.
         23    2    1    2    0    0  0.32242322183E+03  0.36581155918E+03 -0.68060976401E+03  0.84221382808E+03  0.91212118450E+02 0.  0.
         11    1    3    3    0    0  0.16114820521E+03  0.24953246965E+03 -0.41973039464E+03  0.51420696382E+03  0.00000000000E+00 0. -1.
        -11    1    3    3    0    0  0.16127501661E+03  0.11627908953E+03 -0.26087936937E+03  0.32800686427E+03  0.00000000000E+00 0.  1.
         22    1    1    2    0    0 -0.32242322183E+03 -0.36581155918E+03  0.25531538177E+04  0.25993016846E+04  0.00000000000E+00 0. -1.
<mgrwt>
<rscale>  0 0.28874916E+04</rscale>
<asrwt>0</asrwt>
<pdfrwt beam="1">  1        2 0.40877381E+00 0.28874916E+04</pdfrwt>
<pdfrwt beam="2">  1       -2 0.12069011E+00 0.28874916E+04</pdfrwt>
<totfact> 0.12732920E+00</totfact>
</mgrwt>
</event>
<event>
 6    1  0.2238133E-007  0.1545837E+04  0.7818608E-02  0.8854531E-01
          2   -1    0    0  501    0  0.00000000000E+00  0.00000000000E+00  0.18734516673E+04  0.18734516673E+04  0.00000000000E+00 0. -1.
         -2   -1    0    0    0  501 -0.00000000000E+00 -0.00000000000E+00 -0.31887826254E+03  0.31887826254E+03  0.00000000000E+00 0.  1.
         23    2    1    2    0    0  0.37657879252E+03 -0.43698633817E+03  0.15041150223E+04  0.16132662934E+04  0.86588026433E+02 0.  0.
         13    1    3    3    0    0  0.29492792966E+03 -0.39043314810E+03  0.12559423857E+04  0.13478916140E+04  0.00000000000E+00 0. -1.
        -13    1    3    3    0    0  0.81650862863E+02 -0.46553190075E+02  0.24817263661E+03  0.26537467941E+03  0.00000000000E+00 0.  1.
         22    1    1    2    0    0 -0.37657879252E+03  0.43698633817E+03  0.50458382469E+02  0.57906363647E+03  0.00000000000E+00 0.  1.
<mgrwt>
<rscale>  0 0.15458370E+04</rscale>
<asrwt>0</asrwt>
<pdfrwt beam="1">  1        2 0.28822333E+00 0.15458370E+04</pdfrwt>
<pdfrwt beam="2">  1       -2 0.49058195E-01 0.15458370E+04</pdfrwt>
<totfact> 0.29757188E+01</totfact>
</mgrwt>
</event>
<event>
 6    1  0.2238133E-007  0.1606431E+04  0.7818608E-02  0.8816607E-01
         -2   -1    0    0    0  501 -0.00000000000E+00  0.00000000000E+00  0.11723322843E+04  0.11723322843E+04  0.00000000000E+00 0.  1.
          2   -1    0    0  501    0  0.00000000000E+00 -0.00000000000E+00 -0.55031737158E+03  0.55031737158E+03  0.00000000000E+00 0. -1.
         23    2    1    2    0    0  0.51293562933E+03 -0.16076655394E+03 -0.32450919943E+03  0.63413840670E+03  0.88749386688E+02 0.  0.
         11    1    3    3    0    0  0.25784561207E+03 -0.35669406545E+02 -0.16734406593E+03  0.30945226228E+03  0.00000000000E+00 0. -1.
        -11    1    3    3    0    0  0.25509001725E+03 -0.12509714740E+03 -0.15716513350E+03  0.32468614442E+03  0.00000000000E+00 0.  1.
         22    1    1    2    0    0 -0.51293562933E+03  0.16076655394E+03  0.94652411217E+03  0.10885112492E+04  0.00000000000E+00 0.  1.
<mgrwt>
<rscale>  0 0.16064306E+04</rscale>
<asrwt>0</asrwt>
<pdfrwt beam="1">  1        2 0.84664211E-01 0.16064306E+04</pdfrwt>
<pdfrwt beam="2">  1       -2 0.18035881E+00 0.16064306E+04</pdfrwt>
<totfact> 0.94971924E+00</totfact>
</mgrwt>
</event>
<event>
 6    1  0.2238133E-007  0.4388237E+04  0.7818608E-02  0.7930501E-01
          2   -1    0    0  501    0  0.00000000000E+00  0.00000000000E+00  0.44991113555E+04  0.44991113555E+04  0.00000000000E+00 0. -1.
         -2   -1    0    0    0  501 -0.00000000000E+00 -0.00000000000E+00 -0.10700237010E+04  0.10700237010E+04  0.00000000000E+00 0.  1.
         23    2    1    2    0    0 -0.16525906765E+04  0.31902670937E+03 -0.69219142277E+02  0.16869984761E+04  0.91315844679E+02 0.  0.
         11    1    3    3    0    0 -0.79196791136E+03  0.14603217900E+03  0.12031752917E+02  0.80540879869E+03  0.00000000000E+00 0. -1.
        -11    1    3    3    0    0 -0.86062276510E+03  0.17299453037E+03 -0.81250895194E+02  0.88158967741E+03  0.00000000000E+00 0.  1.
         22    1    1    2    0    0  0.16525906765E+04 -0.31902670937E+03  0.34983067967E+04  0.38821365804E+04  0.00000000000E+00 0. -1.
<mgrwt>
<rscale>  0 0.43882369E+04</rscale>
<asrwt>0</asrwt>
<pdfrwt beam="1">  1        2 0.69217097E+00 0.43882369E+04</pdfrwt>
<pdfrwt beam="2">  1       -2 0.16461903E+00 0.43882369E+04</pdfrwt>
<totfact> 0.21787199E-02</totfact>
</mgrwt>
</event>
<event>
 6    1  0.2238133E-007  0.1478949E+04  0.7818608E-02  0.8898573E-01
         -2   -1    0    0    0  501 -0.00000000000E+00  0.00000000000E+00  0.41319864049E+03  0.41319864049E+03  0.00000000000E+00 0.  1.
          2   -1    0    0  501    0  0.00000000000E+00 -0.00000000000E+00 -0.13233894665E+04  0.13233894665E+04  0.00000000000E+00 0. -1.
         23    2    1    2    0    0  0.33549217630E+03 -0.59706695809E+03 -0.77550149940E+03  0.10386015974E+04  0.90811617265E+02 0.  0.
         11    1    3    3    0    0  0.19003284646E+03 -0.28028541750E+03 -0.43548539196E+03  0.55165199593E+03  0.00000000000E+00 0.  1.
        -11    1    3    3    0    0  0.14545932983E+03 -0.31678154059E+03 -0.34001610743E+03  0.48694960150E+03  0.00000000000E+00 0. -1.
         22    1    1    2    0    0 -0.33549217630E+03  0.59706695809E+03 -0.13468932658E+03  0.69798650953E+03  0.00000000000E+00 0.  1.
<mgrwt>
<rscale>  0 0.14789493E+04</rscale>
<asrwt>0</asrwt>
<pdfrwt beam="1">  1        2 0.20359838E+00 0.14789493E+04</pdfrwt>
<pdfrwt beam="2">  1       -2 0.63569022E-01 0.14789493E+04</pdfrwt>
<totfact> 0.35502468E+01</totfact>
</mgrwt>
</event>
<event>
 6    1  0.2238133E-007  0.2769132E+04  0.7818608E-02  0.8312916E-01
          4   -1    0    0  501    0  0.00000000000E+00  0.00000000000E+00  0.82487614075E+03  0.82487614075E+03  0.00000000000E+00 0. -1.
         -4   -1    0    0    0  501 -0.00000000000E+00 -0.00000000000E+00 -0.23240135160E+04  0.23240135160E+04  0.00000000000E+00 0.  1.
         23    2    1    2    0    0 -0.12465166180E+04 -0.37659410086E+03 -0.21976988053E+03  0.13234012338E+04  0.86401558306E+02 0.  0.
         13    1    3    3    0    0 -0.83433964537E+03 -0.26848481322E+03 -0.10983276481E+03  0.88332891665E+03  0.00000000000E+00 0. -1.
        -13    1    3    3    0    0 -0.41217697268E+03 -0.10810928764E+03 -0.10993711572E+03  0.44007231712E+03  0.00000000000E+00 0.  1.
         22    1    1    2    0    0  0.12465166180E+04  0.37659410086E+03 -0.12793674947E+04  0.18254884229E+04  0.00000000000E+00 0. -1.
<mgrwt>
<rscale>  0 0.27691322E+04</rscale>
<asrwt>0</asrwt>
<pdfrwt beam="1">  1        4 0.12690402E+00 0.27691322E+04</pdfrwt>
<pdfrwt beam="2">  1       -4 0.35754053E+00 0.27691322E+04</pdfrwt>
<totfact> 0.10560911E-02</totfact>
</mgrwt>
</event>
<event>
 6    1  0.2238133E-007  0.2086005E+04  0.7818608E-02  0.8567433E-01
          2   -1    0    0  501    0  0.00000000000E+00  0.00000000000E+00  0.10327292507E+04  0.10327292507E+04  0.00000000000E+00 0. -1.
         -2   -1    0    0    0  501 -0.00000000000E+00 -0.00000000000E+00 -0.10533782735E+04  0.10533782735E+04  0.00000000000E+00 0.  1.
         23    2    1    2    0    0 -0.85544352149E+03 -0.55197114502E+02 -0.60105642544E+03  0.10508765872E+04  0.90787856897E+02 0.  0.
         13    1    3    3    0    0 -0.14330843922E+03 -0.42969955358E+02 -0.96632319283E+02  0.17810539281E+03  0.00000000000E+00 0.  1.
        -13    1    3    3    0    0 -0.71213508227E+03 -0.12227159144E+02 -0.50442410616E+03  0.87277119436E+03  0.00000000000E+00 0. -1.
         22    1    1    2    0    0  0.85544352149E+03  0.55197114502E+02  0.58040740261E+03  0.10352309370E+04  0.00000000000E+00 0. -1.
<mgrwt>
<rscale>  0 0.20860053E+04</rscale>
<asrwt>0</asrwt>
<pdfrwt beam="1">  1        2 0.15888142E+00 0.20860053E+04</pdfrwt>
<pdfrwt beam="2">  1       -2 0.16205820E+00 0.20860053E+04</pdfrwt>
<totfact> 0.53864187E+00</totfact>
</mgrwt>
</event>
<event>
 6    1  0.2238133E-007  0.2704512E+04  0.7818608E-02  0.8333542E-01
          2   -1    0    0  501    0  0.00000000000E+00  0.00000000000E+00  0.18089434893E+04  0.18089434893E+04  0.00000000000E+00 0. -1.
         -2   -1    0    0    0  501 -0.00000000000E+00 -0.00000000000E+00 -0.10108644628E+04  0.10108644628E+04  0.00000000000E+00 0.  1.
         23    2    1    2    0    0 -0.34452229614E+03  0.16187037879E+03  0.17507087736E+04  0.17939419437E+04  0.91372069927E+02 0.  0.
         11    1    3    3    0    0 -0.93422369747E+02  0.53570749282E+02  0.32913872898E+03  0.34630891884E+03  0.00000000000E+00 0.  1.
        -11    1    3    3    0    0 -0.25109992639E+03  0.10829962951E+03  0.14215700446E+04  0.14476330248E+04  0.00000000000E+00 0. -1.
         22    1    1    2    0    0  0.34452229614E+03 -0.16187037879E+03 -0.95262974713E+03  0.10258660084E+04  0.00000000000E+00 0.  1.
<mgrwt>
<rscale>  0 0.27045123E+04</rscale>
<asrwt>0</asrwt>
<pdfrwt beam="1">  1        2 0.27829900E+00 0.27045123E+04</pdfrwt>
<pdfrwt beam="2">  1       -2 0.15551761E+00 0.27045123E+04</pdfrwt>
<totfact> 0.20357014E+00</totfact>
</mgrwt>
</event>
<event>
 6    1  0.2238133E-007  0.1597199E+04  0.7818608E-02  0.8822271E-01
          2   -1    0    0  501    0  0.00000000000E+00  0.00000000000E+00  0.69393148379E+03  0.69393148379E+03  0.00000000000E+00 0. -1.
         -2   -1    0    0    0  501 -0.00000000000E+00 -0.00000000000E+00 -0.91905438480E+03  0.91905438480E+03  0.00000000000E+00 0.  1.
         23    2    1    2    0    0  0.47889990996E+03  0.50114107654E+03 -0.50824727259E+03  0.86422227964E+03  0.89874112930E+02 0.  0.
         11    1    3    3    0    0  0.30946400766E+03  0.26582582202E+03 -0.32024428470E+03  0.51864028148E+03  0.00000000000E+00 0.  1.
        -11    1    3    3    0    0  0.16943590231E+03  0.23531525451E+03 -0.18800298789E+03  0.34558199816E+03  0.00000000000E+00 0. -1.
         22    1    1    2    0    0 -0.47889990996E+03 -0.50114107654E+03  0.28312437158E+03  0.74876358895E+03  0.00000000000E+00 0. -1.
<mgrwt>
<rscale>  0 0.15971985E+04</rscale>
<asrwt>0</asrwt>
<pdfrwt beam="1">  1        2 0.10675869E+00 0.15971985E+04</pdfrwt>
<pdfrwt beam="2">  1       -2 0.14139298E+00 0.15971985E+04</pdfrwt>
<totfact> 0.13901241E+01</totfact>
</mgrwt>
</event>
<event>
 6    1  0.2238133E-007  0.2161800E+04  0.7818608E-02  0.8534498E-01
         -2   -1    0    0    0  501 -0.00000000000E+00  0.00000000000E+00  0.43485405594E+03  0.43485405594E+03  0.00000000000E+00 0.  1.
          2   -1    0    0  501    0  0.00000000000E+00 -0.00000000000E+00 -0.26867505356E+04  0.26867505356E+04  0.00000000000E+00 0. -1.
         23    2    1    2    0    0 -0.35549988335E+03 -0.68529210413E+03 -0.22149027810E+04  0.23487048770E+04  0.12089182999E+03 0.  0.
         13    1    3    3    0    0 -0.35301161026E+03 -0.61672390495E+03 -0.19645486909E+04  0.20891187450E+04  0.00000000000E+00 0.  1.
        -13    1    3    3    0    0 -0.24882730921E+01 -0.68568199181E+02 -0.25035409014E+03  0.25958613193E+03  0.00000000000E+00 0. -1.
         22    1    1    2    0    0  0.35549988335E+03  0.68529210413E+03 -0.36993698613E+02  0.77289971457E+03  0.00000000000E+00 0.  1.
<mgrwt>
<rscale>  0 0.21617996E+04</rscale>
<asrwt>0</asrwt>
<pdfrwt beam="1">  1        2 0.41334624E+00 0.21617996E+04</pdfrwt>
<pdfrwt beam="2">  1       -2 0.66900623E-01 0.21617996E+04</pdfrwt>
<totfact> 0.50892079E+00</totfact>
</mgrwt>
</event>
<event>
 6    1  0.2238133E-007  0.2991037E+04  0.7818608E-02  0.8246295E-01
          2   -1    0    0  501    0  0.00000000000E+00  0.00000000000E+00  0.29348693495E+04  0.29348693495E+04  0.00000000000E+00 0. -1.
         -2   -1    0    0    0  501 -0.00000000000E+00 -0.00000000000E+00 -0.76206998942E+03  0.76206998942E+03  0.00000000000E+00 0.  1.
         23    2    1    2    0    0  0.31960589653E+03 -0.13669891482E+04  0.45501336447E+03  0.14784723035E+04  0.89643349768E+02 0.  0.
         11    1    3    3    0    0  0.82186022868E+02 -0.33569416086E+03  0.15291869440E+03  0.37792755799E+03  0.00000000000E+00 0.  1.
        -11    1    3    3    0    0  0.23741987366E+03 -0.10312949873E+04  0.30209467007E+03  0.11005447455E+04  0.00000000000E+00 0. -1.
         22    1    1    2    0    0 -0.31960589653E+03  0.13669891482E+04  0.17177859956E+04  0.22184670354E+04  0.00000000000E+00 0. -1.
<mgrwt>
<rscale>  0 0.29910372E+04</rscale>
<asrwt>0</asrwt>
<pdfrwt beam="1">  1        2 0.45151836E+00 0.29910372E+04</pdfrwt>
<pdfrwt beam="2">  1       -2 0.11724154E+00 0.29910372E+04</pdfrwt>
<totfact> 0.92061797E-01</totfact>
</mgrwt>
</event>
<event>
 6    1  0.2238133E-007  0.2746615E+04  0.7818608E-02  0.8320037E-01
          2   -1    0    0  501    0  0.00000000000E+00  0.00000000000E+00  0.15520595337E+04  0.15520595337E+04  0.00000000000E+00 0. -1.
         -2   -1    0    0    0  501 -0.00000000000E+00 -0.00000000000E+00 -0.12151420664E+04  0.12151420664E+04  0.00000000000E+00 0.  1.
         23    2    1    2    0    0 -0.11060142050E+04  0.29527983183E+03 -0.59286828423E+03  0.12924273311E+04  0.91749675361E+02 0.  0.
         13    1    3    3    0    0 -0.36744962644E+03  0.12238695922E+03 -0.15972895734E+03  0.41894049168E+03  0.00000000000E+00 0.  1.
        -13    1    3    3    0    0 -0.73856457855E+03  0.17289287261E+03 -0.43313932689E+03  0.87348683939E+03  0.00000000000E+00 0. -1.
         22    1    1    2    0    0  0.11060142050E+04 -0.29527983183E+03  0.92978575151E+03  0.14747742690E+04  0.00000000000E+00 0. -1.
<mgrwt>
<rscale>  0 0.27466145E+04</rscale>
<asrwt>0</asrwt>
<pdfrwt beam="1">  1        2 0.23877839E+00 0.27466145E+04</pdfrwt>
<pdfrwt beam="2">  1       -2 0.18694493E+00 0.27466145E+04</pdfrwt>
<totfact> 0.16855369E+00</totfact>
</mgrwt>
</event>
<event>
 6    1  0.2238133E-007  0.1586037E+04  0.7818608E-02  0.8829172E-01
         -1   -1    0    0    0  501 -0.00000000000E+00  0.00000000000E+00  0.24764318067E+03  0.24764318067E+03  0.00000000000E+00 0.  1.
          1   -1    0    0  501    0  0.00000000000E+00 -0.00000000000E+00 -0.25394538424E+04  0.25394538424E+04  0.00000000000E+00 0. -1.
         23    2    1    2    0    0 -0.30380661727E+03 -0.26170050538E+03 -0.23466432653E+04  0.23823844959E+04  0.90750516996E+02 0.  0.
         13    1    3    3    0    0 -0.14688052973E+03 -0.11688958438E+03 -0.84242015257E+03  0.86308098021E+03  0.00000000000E+00 0. -1.
        -13    1    3    3    0    0 -0.15692608754E+03 -0.14481092099E+03 -0.15042231127E+04  0.15193035157E+04  0.00000000000E+00 0.  1.
         22    1    1    2    0    0  0.30380661727E+03  0.26170050538E+03  0.54832603637E+02  0.40471252715E+03  0.00000000000E+00 0.  1.
<mgrwt>
<rscale>  0 0.15860371E+04</rscale>
<asrwt>0</asrwt>
<pdfrwt beam="1">  1        1 0.39068521E+00 0.15860371E+04</pdfrwt>
<pdfrwt beam="2">  1       -1 0.38098950E-01 0.15860371E+04</pdfrwt>
<totfact> 0.81518468E+00</totfact>
</mgrwt>
</event>
<event>
 6    1  0.2833532E-007  0.4164514E+04  0.7818608E-02  0.7972157E-01
         -2   -1    0    0    0  501 -0.00000000000E+00  0.00000000000E+00  0.21343667671E+04  0.21343667671E+04  0.00000000000E+00 0.  1.
          2   -1    0    0  501    0  0.00000000000E+00 -0.00000000000E+00 -0.20314191845E+04  0.20314191845E+04  0.00000000000E+00 0. -1.
         23    2    1    2    0    0  0.89834391887E+03 -0.26943606859E+03  0.19104068172E+04  0.21294837942E+04  0.73684673532E+02 0.  0.
         13    1    3    3    0    0  0.27709655946E+03 -0.10375383962E+03  0.54025714995E+03  0.61597495937E+03  0.00000000000E+00 0. -1.
        -13    1    3    3    0    0  0.62124735940E+03 -0.16568222897E+03  0.13701496672E+04  0.15135088348E+04  0.00000000000E+00 0.  1.
         22    1    1    2    0    0 -0.89834391887E+03  0.26943606859E+03 -0.18074592345E+04  0.20363021574E+04  0.00000000000E+00 0. -1.
<mgrwt>
<rscale>  0 0.41645137E+04</rscale>
<asrwt>0</asrwt>
<pdfrwt beam="1">  1        2 0.31252603E+00 0.41645137E+04</pdfrwt>
<pdfrwt beam="2">  1       -2 0.32836412E+00 0.41645137E+04</pdfrwt>
<totfact> 0.10615702E-01</totfact>
</mgrwt>
</event>
<event>
 6    1  0.2238133E-007  0.5314386E+04  0.7818608E-02  0.7781759E-01
         -2   -1    0    0    0  501 -0.00000000000E+00  0.00000000000E+00  0.22911788351E+04  0.22911788351E+04  0.00000000000E+00 0.  1.
          2   -1    0    0  501    0  0.00000000000E+00 -0.00000000000E+00 -0.30816774775E+04  0.30816774775E+04  0.00000000000E+00 0. -1.
         23    2    1    2    0    0  0.16825684878E+04 -0.19165305936E+04 -0.11467598969E+04  0.27977741171E+04  0.91408515779E+02 0.  0.
         13    1    3    3    0    0  0.71459450545E+03 -0.87779235749E+03 -0.52731436024E+03  0.12486893787E+04  0.00000000000E+00 0. -1.
        -13    1    3    3    0    0  0.96797398231E+03 -0.10387382362E+04 -0.61944553664E+03  0.15490847383E+04  0.00000000000E+00 0.  1.
         22    1    1    2    0    0 -0.16825684878E+04  0.19165305936E+04  0.35626125445E+03  0.25750821955E+04  0.00000000000E+00 0.  1.
<mgrwt>
<rscale>  0 0.53143858E+04</rscale>
<asrwt>0</asrwt>
<pdfrwt beam="1">  1        2 0.47410423E+00 0.53143858E+04</pdfrwt>
<pdfrwt beam="2">  1       -2 0.35248905E+00 0.53143858E+04</pdfrwt>
<totfact> 0.16464789E-02</totfact>
</mgrwt>
</event>
<event>
 6    1  0.2238133E-007  0.1674327E+04  0.7818608E-02  0.8776143E-01
          2   -1    0    0  501    0  0.00000000000E+00  0.00000000000E+00  0.62165783115E+03  0.62165783115E+03  0.00000000000E+00 0. -1.
         -2   -1    0    0    0  501 -0.00000000000E+00 -0.00000000000E+00 -0.11273772277E+04  0.11273772277E+04  0.00000000000E+00 0.  1.
         23    2    1    2    0    0 -0.18061410010E+03 -0.63033285052E+03  0.28575249461E+03  0.72123706796E+03  0.92668572987E+02 0.  0.
         11    1    3    3    0    0 -0.13736240055E+03 -0.53608582310E+03  0.27198392200E+03  0.61662929920E+03  0.00000000000E+00 0.  1.
        -11    1    3    3    0    0 -0.43251699546E+02 -0.94247027423E+02  0.13768572613E+02  0.10460776875E+03  0.00000000000E+00 0. -1.
         22    1    1    2    0    0  0.18061410010E+03  0.63033285052E+03 -0.79147189118E+03  0.10277979909E+04  0.00000000000E+00 0.  1.
<mgrwt>
<rscale>  0 0.16743272E+04</rscale>
<asrwt>0</asrwt>
<pdfrwt beam="1">  1        2 0.95639669E-01 0.16743272E+04</pdfrwt>
<pdfrwt beam="2">  1       -2 0.17344265E+00 0.16743272E+04</pdfrwt>
<totfact> 0.91180618E+00</totfact>
</mgrwt>
</event>
<event>
 6    1  0.2238133E-007  0.1676939E+04  0.7818608E-02  0.8774627E-01
         -2   -1    0    0    0  501 -0.00000000000E+00  0.00000000000E+00  0.49424065497E+03  0.49424065497E+03  0.00000000000E+00 0.  1.
          2   -1    0    0  501    0  0.00000000000E+00 -0.00000000000E+00 -0.14224465150E+04  0.14224465150E+04  0.00000000000E+00 0. -1.
         23    2    1    2    0    0  0.32425486107E+03 -0.58009783738E+03 -0.10453202523E+04  0.12418757172E+04  0.88916540322E+02 0.  0.
         13    1    3    3    0    0  0.25471620324E+02 -0.11410312794E+03 -0.17807778630E+03  0.21302587923E+03  0.00000000000E+00 0. -1.
        -13    1    3    3    0    0  0.29878324075E+03 -0.46599470944E+03 -0.86724246602E+03  0.10288498379E+04  0.00000000000E+00 0.  1.
         22    1    1    2    0    0 -0.32425486107E+03  0.58009783738E+03  0.11711439232E+03  0.67481145275E+03  0.00000000000E+00 0.  1.
<mgrwt>
<rscale>  0 0.16769388E+04</rscale>
<asrwt>0</asrwt>
<pdfrwt beam="1">  1        2 0.21883792E+00 0.16769388E+04</pdfrwt>
<pdfrwt beam="2">  1       -2 0.76037025E-01 0.16769388E+04</pdfrwt>
<totfact> 0.20742195E+01</totfact>
</mgrwt>
</event>
<event>
 6    1  0.2398652E-007  0.4447934E+04  0.7818608E-02  0.7919816E-01
         -2   -1    0    0    0  501 -0.00000000000E+00  0.00000000000E+00  0.20898463203E+04  0.20898463203E+04  0.00000000000E+00 0.  1.
          2   -1    0    0  501    0  0.00000000000E+00 -0.00000000000E+00 -0.23666955896E+04  0.23666955896E+04  0.00000000000E+00 0. -1.
         23    2    1    2    0    0  0.17820241414E+04  0.12700321508E+04  0.25345738320E+03  0.22049165302E+04  0.93939104867E+02 0.  0.
         13    1    3    3    0    0  0.10326984704E+04  0.68419476670E+03  0.12352295408E+03  0.12449283232E+04  0.00000000000E+00 0.  1.
        -13    1    3    3    0    0  0.74932567100E+03  0.58583738409E+03  0.12993442911E+03  0.95998820706E+03  0.00000000000E+00 0. -1.
         22    1    1    2    0    0 -0.17820241414E+04 -0.12700321508E+04 -0.53030665256E+03  0.22516253797E+04  0.00000000000E+00 0. -1.
<mgrwt>
<rscale>  0 0.44479344E+04</rscale>
<asrwt>0</asrwt>
<pdfrwt beam="1">  1        2 0.36410701E+00 0.44479344E+04</pdfrwt>
<pdfrwt beam="2">  1       -2 0.32151482E+00 0.44479344E+04</pdfrwt>
<totfact> 0.74066290E-02</totfact>
</mgrwt>
</event>
<event>
 6    1  0.2238133E-007  0.4272807E+04  0.7818608E-02  0.7951666E-01
         -2   -1    0    0    0  501 -0.00000000000E+00  0.00000000000E+00  0.14728000281E+04  0.14728000281E+04  0.00000000000E+00 0.  1.
          2   -1    0    0  501    0  0.00000000000E+00 -0.00000000000E+00 -0.30990079128E+04  0.30990079128E+04  0.00000000000E+00 0. -1.
         23    2    1    2    0    0 -0.65730544022E+03  0.17235534703E+04  0.33779533099E+03  0.18773700334E+04  0.87895108469E+02 0.  0.
         11    1    3    3    0    0 -0.21034539976E+03  0.58811815515E+03  0.74316584062E+02  0.62900803356E+03  0.00000000000E+00 0. -1.
        -11    1    3    3    0    0 -0.44696004047E+03  0.11354353151E+04  0.26347874693E+03  0.12483619998E+04  0.00000000000E+00 0.  1.
         22    1    1    2    0    0  0.65730544022E+03 -0.17235534703E+04 -0.19640032157E+04  0.26944379076E+04  0.00000000000E+00 0. -1.
<mgrwt>
<rscale>  0 0.42728065E+04</rscale>
<asrwt>0</asrwt>
<pdfrwt beam="1">  1        2 0.47677044E+00 0.42728065E+04</pdfrwt>
<pdfrwt beam="2">  1       -2 0.22658462E+00 0.42728065E+04</pdfrwt>
<totfact> 0.10438414E-01</totfact>
</mgrwt>
</event>
<event>
 6    1  0.2238133E-007  0.3934458E+04  0.7818608E-02  0.8017900E-01
         -2   -1    0    0    0  501 -0.00000000000E+00  0.00000000000E+00  0.12274369906E+04  0.12274369906E+04  0.00000000000E+00 0.  1.
          2   -1    0    0  501    0  0.00000000000E+00 -0.00000000000E+00 -0.31529035879E+04  0.31529035879E+04  0.00000000000E+00 0. -1.
         23    2    1    2    0    0 -0.10661929865E+04  0.13470637568E+03 -0.27963398796E+04  0.29971075663E+04  0.90684894127E+02 0.  0.
         11    1    3    3    0    0 -0.67113665881E+03  0.10051904850E+03 -0.16491206981E+04  0.17832912188E+04  0.00000000000E+00 0. -1.
        -11    1    3    3    0    0 -0.39505632773E+03  0.34187327180E+02 -0.11472191814E+04  0.12138163476E+04  0.00000000000E+00 0.  1.
         22    1    1    2    0    0  0.10661929865E+04 -0.13470637568E+03  0.87087328224E+03  0.13832330122E+04  0.00000000000E+00 0.  1.
<mgrwt>
<rscale>  0 0.39344583E+04</rscale>
<asrwt>0</asrwt>
<pdfrwt beam="1">  1        2 0.48506210E+00 0.39344583E+04</pdfrwt>
<pdfrwt beam="2">  1       -2 0.18883646E+00 0.39344583E+04</pdfrwt>
<totfact> 0.17399484E-01</totfact>
</mgrwt>
</event>
<event>
 6    1  0.2238133E-007  0.2073162E+04  0.7818608E-02  0.8573159E-01
         -2   -1    0    0    0  501 -0.00000000000E+00  0.00000000000E+00  0.27688036727E+03  0.27688036727E+03  0.00000000000E+00 0.  1.
          2   -1    0    0  501    0  0.00000000000E+00 -0.00000000000E+00 -0.38807391677E+04  0.38807391677E+04  0.00000000000E+00 0. -1.
         23    2    1    2    0    0 -0.54456777985E+03 -0.69467402403E+03 -0.72269047758E+03  0.11442730612E+04  0.89180971280E+02 0.  0.
         13    1    3    3    0    0 -0.31089592434E+03 -0.35639874663E+03 -0.43406233337E+03  0.64193960122E+03  0.00000000000E+00 0.  1.
        -13    1    3    3    0    0 -0.23367185551E+03 -0.33827527740E+03 -0.28862814421E+03  0.50233345995E+03  0.00000000000E+00 0. -1.
         22    1    1    2    0    0  0.54456777985E+03  0.69467402403E+03 -0.28811683229E+04  0.30133464738E+04  0.00000000000E+00 0. -1.
<mgrwt>
<rscale>  0 0.20731623E+04</rscale>
<asrwt>0</asrwt>
<pdfrwt beam="1">  1        2 0.59703674E+00 0.20731623E+04</pdfrwt>
<pdfrwt beam="2">  1       -2 0.42596984E-01 0.20731623E+04</pdfrwt>
<totfact> 0.20701017E+00</totfact>
</mgrwt>
</event>
<event>
 6    1  0.2238133E-007  0.1869507E+04  0.7818608E-02  0.8670185E-01
         -2   -1    0    0    0  501 -0.00000000000E+00  0.00000000000E+00  0.91774764925E+03  0.91774764925E+03  0.00000000000E+00 0.  1.
          2   -1    0    0  501    0  0.00000000000E+00 -0.00000000000E+00 -0.95207446407E+03  0.95207446407E+03  0.00000000000E+00 0. -1.
         23    2    1    2    0    0 -0.35467934453E+03  0.65503963306E+02 -0.87726495720E+03  0.95296175398E+03  0.91946140666E+02 0.  0.
         11    1    3    3    0    0 -0.19051124476E+03  0.51387531451E+02 -0.58586691947E+03  0.61820325144E+03  0.00000000000E+00 0. -1.
        -11    1    3    3    0    0 -0.16416809976E+03  0.14116431855E+02 -0.29139803773E+03  0.33475850254E+03  0.00000000000E+00 0.  1.
         22    1    1    2    0    0  0.35467934453E+03 -0.65503963306E+02  0.84293814238E+03  0.91686035933E+03  0.00000000000E+00 0.  1.
<mgrwt>
<rscale>  0 0.18695070E+04</rscale>
<asrwt>0</asrwt>
<pdfrwt beam="1">  1        2 0.14647299E+00 0.18695070E+04</pdfrwt>
<pdfrwt beam="2">  1       -2 0.14119195E+00 0.18695070E+04</pdfrwt>
<totfact> 0.89258029E+00</totfact>
</mgrwt>
</event>
<event>
 6    1  0.2238133E-007  0.2698501E+04  0.7818608E-02  0.8335492E-01
          2   -1    0    0  501    0  0.00000000000E+00  0.00000000000E+00  0.24882515422E+04  0.24882515422E+04  0.00000000000E+00 0. -1.
         -2   -1    0    0    0  501 -0.00000000000E+00 -0.00000000000E+00 -0.73162889030E+03  0.73162889030E+03  0.00000000000E+00 0.  1.
         23    2    1    2    0    0 -0.22150586441E+03  0.79273209492E+03  0.21528054163E+04  0.23063981912E+04  0.86095491491E+02 0.  0.
         11    1    3    3    0    0 -0.50459027120E+02  0.80498446036E+02  0.23609181873E+03  0.25449058942E+03  0.00000000000E+00 0. -1.
        -11    1    3    3    0    0 -0.17104683729E+03  0.71223364889E+03  0.19167135976E+04  0.20519076018E+04  0.00000000000E+00 0.  1.
         22    1    1    2    0    0  0.22150586441E+03 -0.79273209492E+03 -0.39618276443E+03  0.91348224127E+03  0.00000000000E+00 0.  1.
<mgrwt>
<rscale>  0 0.26985009E+04</rscale>
<asrwt>0</asrwt>
<pdfrwt beam="1">  1        2 0.38280793E+00 0.26985009E+04</pdfrwt>
<pdfrwt beam="2">  1       -2 0.11255829E+00 0.26985009E+04</pdfrwt>
<totfact> 0.19273124E+00</totfact>
</mgrwt>
</event>
<event>
 6    1  0.2238133E-007  0.2146588E+04  0.7818608E-02  0.8540994E-01
          2   -1    0    0  501    0  0.00000000000E+00  0.00000000000E+00  0.29941651543E+04  0.29941651543E+04  0.00000000000E+00 0. -1.
         -2   -1    0    0    0  501 -0.00000000000E+00 -0.00000000000E+00 -0.38473497015E+03  0.38473497015E+03  0.00000000000E+00 0.  1.
         23    2    1    2    0    0 -0.98236251621E+03 -0.39137814688E+02  0.63691855376E+03  0.11749559297E+04  0.91040159918E+02 0.  0.
         13    1    3    3    0    0 -0.25480914373E+03 -0.11439084138E+02  0.11901860027E+03  0.28146754624E+03  0.00000000000E+00 0. -1.
        -13    1    3    3    0    0 -0.72755337248E+03 -0.27698730550E+02  0.51789995349E+03  0.89348838342E+03  0.00000000000E+00 0.  1.
         22    1    1    2    0    0  0.98236251621E+03  0.39137814688E+02  0.19725116304E+04  0.22039441948E+04  0.00000000000E+00 0. -1.
<mgrwt>
<rscale>  0 0.21465880E+04</rscale>
<asrwt>0</asrwt>
<pdfrwt beam="1">  1        2 0.46064078E+00 0.21465880E+04</pdfrwt>
<pdfrwt beam="2">  1       -2 0.59189997E-01 0.21465880E+04</pdfrwt>
<totfact> 0.43031214E+00</totfact>
</mgrwt>
</event>
<event>
 6    1  0.2762675E-007  0.3025433E+04  0.7818608E-02  0.8236505E-01
         -2   -1    0    0    0  501 -0.00000000000E+00  0.00000000000E+00  0.19117163119E+04  0.19117163119E+04  0.00000000000E+00 0.  1.
          2   -1    0    0  501    0  0.00000000000E+00 -0.00000000000E+00 -0.11969933011E+04  0.11969933011E+04  0.00000000000E+00 0. -1.
         23    2    1    2    0    0 -0.39991728012E+03 -0.10075925188E+03  0.18516838825E+04  0.18992608620E+04  0.91500620089E+02 0.  0.
         11    1    3    3    0    0 -0.23947685903E+03 -0.14378977561E+02  0.10887642124E+04  0.11148826984E+04  0.00000000000E+00 0.  1.
        -11    1    3    3    0    0 -0.16044042109E+03 -0.86380274317E+02  0.76291967008E+03  0.78437816358E+03  0.00000000000E+00 0. -1.
         22    1    1    2    0    0  0.39991728012E+03  0.10075925188E+03 -0.11369608717E+04  0.12094487511E+04  0.00000000000E+00 0. -1.
<mgrwt>
<rscale>  0 0.30254333E+04</rscale>
<asrwt>0</asrwt>
<pdfrwt beam="1">  1        2 0.18415282E+00 0.30254333E+04</pdfrwt>
<pdfrwt beam="2">  1       -2 0.29411020E+00 0.30254333E+04</pdfrwt>
<totfact> 0.56102968E-01</totfact>
</mgrwt>
</event>
<event>
 6    1  0.2238133E-007  0.1500207E+04  0.7818608E-02  0.8884316E-01
         -2   -1    0    0    0  501 -0.00000000000E+00  0.00000000000E+00  0.28850859252E+03  0.28850859252E+03  0.00000000000E+00 0.  1.
          2   -1    0    0  501    0  0.00000000000E+00 -0.00000000000E+00 -0.19502192027E+04  0.19502192027E+04  0.00000000000E+00 0. -1.
         23    2    1    2    0    0  0.57400489089E+03 -0.62271025994E+02 -0.15419103588E+04  0.16490572129E+04  0.92427492783E+02 0.  0.
         11    1    3    3    0    0  0.18772460052E+03 -0.61590249245E+02 -0.56514505879E+03  0.59868424225E+03  0.00000000000E+00 0. -1.
        -11    1    3    3    0    0  0.38628029037E+03 -0.68077674934E+00 -0.97676529998E+03  0.10503729706E+04  0.00000000000E+00 0.  1.
         22    1    1    2    0    0 -0.57400489089E+03  0.62271025994E+02 -0.11980025140E+03  0.58967058234E+03  0.00000000000E+00 0.  1.
<mgrwt>
<rscale>  0 0.15002066E+04</rscale>
<asrwt>0</asrwt>
<pdfrwt beam="1">  1        2 0.30003372E+00 0.15002066E+04</pdfrwt>
<pdfrwt beam="2">  1       -2 0.44385939E-01 0.15002066E+04</pdfrwt>
<totfact> 0.33127282E+01</totfact>
</mgrwt>
</event>
<event>
 6    1  0.2238133E-007  0.4325603E+04  0.7818608E-02  0.7941901E-01
         -2   -1    0    0    0  501 -0.00000000000E+00  0.00000000000E+00  0.11138416646E+04  0.11138416646E+04  0.00000000000E+00 0.  1.
          2   -1    0    0  501    0  0.00000000000E+00 -0.00000000000E+00 -0.41996196907E+04  0.41996196907E+04  0.00000000000E+00 0. -1.
         23    2    1    2    0    0  0.14771626260E+04  0.10946808813E+04 -0.29404371975E+04  0.34691567134E+04  0.92421503230E+02 0.  0.
         13    1    3    3    0    0  0.12706201559E+04  0.97592946730E+03 -0.25324985500E+04  0.29967420329E+04  0.00000000000E+00 0. -1.
        -13    1    3    3    0    0  0.20654247014E+03  0.11875141395E+03 -0.40793864752E+03  0.47241468058E+03  0.00000000000E+00 0.  1.
         22    1    1    2    0    0 -0.14771626260E+04 -0.10946808813E+04 -0.14534082850E+03  0.18443046418E+04  0.00000000000E+00 0. -1.
<mgrwt>
<rscale>  0 0.43256035E+04</rscale>
<asrwt>0</asrwt>
<pdfrwt beam="1">  1        2 0.64609533E+00 0.43256035E+04</pdfrwt>
<pdfrwt beam="2">  1       -2 0.17136026E+00 0.43256035E+04</pdfrwt>
<totfact> 0.37073994E-02</totfact>
</mgrwt>
</event>
<event>
 6    1  0.2238133E-007  0.3246409E+04  0.7818608E-02  0.8176667E-01
         -2   -1    0    0    0  501 -0.00000000000E+00  0.00000000000E+00  0.19369260182E+04  0.19369260182E+04  0.00000000000E+00 0.  1.
          2   -1    0    0  501    0  0.00000000000E+00 -0.00000000000E+00 -0.13602956795E+04  0.13602956795E+04  0.00000000000E+00 0. -1.
         23    2    1    2    0    0 -0.14882556716E+04 -0.10357129647E+03  0.93484887644E+03  0.17629621114E+04  0.91983841000E+02 0.  0.
         13    1    3    3    0    0 -0.79472978383E+03 -0.45106548594E+02  0.55142520857E+03  0.96834900252E+03  0.00000000000E+00 0. -1.
        -13    1    3    3    0    0 -0.69352588772E+03 -0.58464747876E+02  0.38342366788E+03  0.79461310886E+03  0.00000000000E+00 0.  1.
         22    1    1    2    0    0  0.14882556716E+04  0.10357129647E+03 -0.35821853773E+03  0.15342595863E+04  0.00000000000E+00 0. -1.
<mgrwt>
<rscale>  0 0.32464085E+04</rscale>
<asrwt>0</asrwt>
<pdfrwt beam="1">  1        2 0.20927626E+00 0.32464085E+04</pdfrwt>
<pdfrwt beam="2">  1       -2 0.29798862E+00 0.32464085E+04</pdfrwt>
<totfact> 0.41828628E-01</totfact>
</mgrwt>
</event>
<event>
 6    1  0.2238133E-007  0.1338056E+04  0.7818608E-02  0.8999919E-01
         -2   -1    0    0    0  501 -0.00000000000E+00  0.00000000000E+00  0.21356431825E+03  0.21356431825E+03  0.00000000000E+00 0.  1.
          2   -1    0    0  501    0  0.00000000000E+00 -0.00000000000E+00 -0.20958479554E+04  0.20958479554E+04  0.00000000000E+00 0. -1.
         23    2    1    2    0    0 -0.32391378386E+03  0.83855042305E+02 -0.19392005620E+04  0.19700137706E+04  0.92215125502E+02 0.  0.
         11    1    3    3    0    0 -0.16507582545E+03  0.69359743242E+02 -0.80640916200E+03  0.82604875079E+03  0.00000000000E+00 0. -1.
        -11    1    3    3    0    0 -0.15883795841E+03  0.14495299064E+02 -0.11327914000E+04  0.11439650199E+04  0.00000000000E+00 0.  1.
         22    1    1    2    0    0  0.32391378386E+03 -0.83855042305E+02  0.56916924874E+02  0.33939850299E+03  0.00000000000E+00 0.  1.
<mgrwt>
<rscale>  0 0.13380558E+04</rscale>
<asrwt>0</asrwt>
<pdfrwt beam="1">  1        2 0.32243814E+00 0.13380558E+04</pdfrwt>
<pdfrwt beam="2">  1       -2 0.32856050E-01 0.13380558E+04</pdfrwt>
<totfact> 0.49967425E+01</totfact>
</mgrwt>
</event>
<event>
 6    1  0.2238133E-007  0.1421652E+04  0.7818608E-02  0.8938294E-01
          2   -1    0    0  501    0  0.00000000000E+00  0.00000000000E+00  0.10823350607E+04  0.10823350607E+04  0.00000000000E+00 0. -1.
         -2   -1    0    0    0  501 -0.00000000000E+00 -0.00000000000E+00 -0.46683626098E+03  0.46683626098E+03  0.00000000000E+00 0.  1.
         23    2    1    2    0    0 -0.13132228928E+02  0.68047553177E+03  0.97191932322E+02  0.69368233075E+03  0.92355289579E+02 0.  0.
         11    1    3    3    0    0  0.28412930059E+02  0.35597835059E+03  0.20682131159E+02  0.35770886379E+03  0.00000000000E+00 0. -1.
        -11    1    3    3    0    0 -0.41545158987E+02  0.32449718118E+03  0.76509801163E+02  0.33597346696E+03  0.00000000000E+00 0.  1.
         22    1    1    2    0    0  0.13132228928E+02 -0.68047553177E+03  0.51830686737E+03  0.85548899089E+03  0.00000000000E+00 0.  1.
<mgrwt>
<rscale>  0 0.14216515E+04</rscale>
<asrwt>0</asrwt>
<pdfrwt beam="1">  1        2 0.16651309E+00 0.14216515E+04</pdfrwt>
<pdfrwt beam="2">  1       -2 0.71820963E-01 0.14216515E+04</pdfrwt>
<totfact> 0.38158145E+01</totfact>
</mgrwt>
</event>
<event>
 6    1  0.2238133E-007  0.1641976E+04  0.7818608E-02  0.8795167E-01
          2   -1    0    0  501    0  0.00000000000E+00  0.00000000000E+00  0.12590532019E+04  0.12590532019E+04  0.00000000000E+00 0. -1.
         -2   -1    0    0    0  501 -0.00000000000E+00 -0.00000000000E+00 -0.53533993032E+03  0.53533993032E+03  0.00000000000E+00 0.  1.
         23    2    1    2    0    0  0.81634294996E+02 -0.79229224612E+03  0.56848461404E+03  0.98292095307E+03  0.92561775138E+02 0.  0.
         11    1    3    3    0    0  0.16020966042E+02 -0.45849357544E+03  0.36734060747E+03  0.58771774855E+03  0.00000000000E+00 0.  1.
        -11    1    3    3    0    0  0.65613328954E+02 -0.33379867068E+03  0.20114400657E+03  0.39520320452E+03  0.00000000000E+00 0. -1.
         22    1    1    2    0    0 -0.81634294996E+02  0.79229224612E+03  0.15522865751E+03  0.81147217912E+03  0.00000000000E+00 0.  1.
<mgrwt>
<rscale>  0 0.16419762E+04</rscale>
<asrwt>0</asrwt>
<pdfrwt beam="1">  1        2 0.19370049E+00 0.16419762E+04</pdfrwt>
<pdfrwt beam="2">  1       -2 0.82359990E-01 0.16419762E+04</pdfrwt>
<totfact> 0.21619837E+01</totfact>
</mgrwt>
</event>
<event>
 6    1  0.2238133E-007  0.4252674E+04  0.7818608E-02  0.7955428E-01
          2   -1    0    0  501    0  0.00000000000E+00  0.00000000000E+00  0.24699966957E+04  0.24699966957E+04  0.00000000000E+00 0. -1.
         -2   -1    0    0    0  501 -0.00000000000E+00 -0.00000000000E+00 -0.18304917779E+04  0.18304917779E+04  0.00000000000E+00 0.  1.
         23    2    1    2    0    0 -0.15219713600E+04 -0.88619541531E+03  0.15231398305E+04  0.23300697887E+04  0.86782151442E+02 0.  0.
         11    1    3    3    0    0 -0.14002809358E+04 -0.83625228540E+03  0.14272249598E+04  0.21672737874E+04  0.00000000000E+00 0.  1.
        -11    1    3    3    0    0 -0.12169042426E+03 -0.49943129913E+02  0.95914870768E+02  0.16279600123E+03  0.00000000000E+00 0. -1.
         22    1    1    2    0    0  0.15219713600E+04  0.88619541531E+03 -0.88363491283E+03  0.19704186850E+04  0.00000000000E+00 0.  1.
<mgrwt>
<rscale>  0 0.42526738E+04</rscale>
<asrwt>0</asrwt>
<pdfrwt beam="1">  1        2 0.37999949E+00 0.42526738E+04</pdfrwt>
<pdfrwt beam="2">  1       -2 0.28161412E+00 0.42526738E+04</pdfrwt>
<totfact> 0.11530107E-01</totfact>
</mgrwt>
</event>
<event>
 6    1  0.2238133E-007  0.1945162E+04  0.7818608E-02  0.8632697E-01
          1   -1    0    0  501    0  0.00000000000E+00  0.00000000000E+00  0.14138710970E+04  0.14138710970E+04  0.00000000000E+00 0. -1.
         -1   -1    0    0    0  501 -0.00000000000E+00 -0.00000000000E+00 -0.66902415173E+03  0.66902415173E+03  0.00000000000E+00 0.  1.
         23    2    1    2    0    0  0.33675488340E+03  0.23598987208E+03 -0.56815740154E+03  0.70700445148E+03  0.89204205445E+02 0.  0.
         13    1    3    3    0    0  0.19533464583E+03  0.18666843494E+03 -0.34413806287E+03  0.43752912449E+03  0.00000000000E+00 0. -1.
        -13    1    3    3    0    0  0.14142023758E+03  0.49321437142E+02 -0.22401933867E+03  0.26947532699E+03  0.00000000000E+00 0.  1.
         22    1    1    2    0    0 -0.33675488340E+03 -0.23598987208E+03  0.13130043468E+04  0.13758907972E+04  0.00000000000E+00 0. -1.
<mgrwt>
<rscale>  0 0.19451621E+04</rscale>
<asrwt>0</asrwt>
<pdfrwt beam="1">  1        1 0.21751863E+00 0.19451621E+04</pdfrwt>
<pdfrwt beam="2">  1       -1 0.10292679E+00 0.19451621E+04</pdfrwt>
<totfact> 0.62439185E+00</totfact>
</mgrwt>
</event>
<event>
 6    1  0.2238133E-007  0.1002893E+04  0.7818608E-02  0.9305378E-01
          1   -1    0    0  501    0  0.00000000000E+00  0.00000000000E+00  0.13007399078E+04  0.13007399078E+04  0.00000000000E+00 0. -1.
         -1   -1    0    0    0  501 -0.00000000000E+00 -0.00000000000E+00 -0.19331186237E+03  0.19331186237E+03  0.00000000000E+00 0.  1.
         23    2    1    2    0    0  0.36371660918E+03  0.29708758260E+03  0.31532371864E+03  0.57319343793E+03  0.92578972903E+02 0.  0.
         11    1    3    3    0    0  0.27412630317E+03  0.26646635866E+03  0.27130970360E+03  0.46878407146E+03  0.00000000000E+00 0. -1.
        -11    1    3    3    0    0  0.89590306019E+02  0.30621223939E+02  0.44014015031E+02  0.10440936647E+03  0.00000000000E+00 0.  1.
         22    1    1    2    0    0 -0.36371660918E+03 -0.29708758260E+03  0.79210432675E+03  0.92085833221E+03  0.00000000000E+00 0. -1.
<mgrwt>
<rscale>  0 0.10028927E+04</rscale>
<asrwt>0</asrwt>
<pdfrwt beam="1">  1        1 0.20011383E+00 0.10028927E+04</pdfrwt>
<pdfrwt beam="2">  1       -1 0.29740287E-01 0.10028927E+04</pdfrwt>
<totfact> 0.93754579E+01</totfact>
</mgrwt>
</event>
<event>
 6    1  0.2238133E-007  0.3019638E+04  0.7818608E-02  0.8238145E-01
          2   -1    0    0  501    0  0.00000000000E+00  0.00000000000E+00  0.23657172135E+04  0.23657172135E+04  0.00000000000E+00 0. -1.
         -2   -1    0    0    0  501 -0.00000000000E+00 -0.00000000000E+00 -0.96357807002E+03  0.96357807002E+03  0.00000000000E+00 0.  1.
         23    2    1    2    0    0  0.11952758590E+04 -0.63815235586E+03  0.14326676675E+04  0.19739891192E+04  0.90407902649E+02 0.  0.
         13    1    3    3    0    0  0.69938358135E+03 -0.41161003220E+03  0.89852719109E+03  0.12107482503E+04  0.00000000000E+00 0. -1.
        -13    1    3    3    0    0  0.49589227762E+03 -0.22654232366E+03  0.53414047643E+03  0.76324086891E+03  0.00000000000E+00 0.  1.
         22    1    1    2    0    0 -0.11952758590E+04  0.63815235586E+03 -0.30528524004E+02  0.13553061643E+04  0.00000000000E+00 0.  1.
<mgrwt>
<rscale>  0 0.30196379E+04</rscale>
<asrwt>0</asrwt>
<pdfrwt beam="1">  1        2 0.36395649E+00 0.30196379E+04</pdfrwt>
<pdfrwt beam="2">  1       -2 0.14824278E+00 0.30196379E+04</pdfrwt>
<totfact> 0.10986827E+00</totfact>
</mgrwt>
</event>
<event>
 6    1  0.2238133E-007  0.2857675E+04  0.7818608E-02  0.8285583E-01
          2   -1    0    0  501    0  0.00000000000E+00  0.00000000000E+00  0.26809940595E+04  0.26809940595E+04  0.00000000000E+00 0. -1.
         -2   -1    0    0    0  501 -0.00000000000E+00 -0.00000000000E+00 -0.76149967350E+03  0.76149967350E+03  0.00000000000E+00 0.  1.
         23    2    1    2    0    0  0.55628563352E+03 -0.47799827365E+03 -0.51462141080E+03  0.90027899623E+03  0.87926212944E+02 0.  0.
         11    1    3    3    0    0  0.14345469237E+03 -0.12738642082E+03 -0.89295121683E+02  0.21161325036E+03  0.00000000000E+00 0. -1.
        -11    1    3    3    0    0  0.41283094115E+03 -0.35061185283E+03 -0.42532628911E+03  0.68866574586E+03  0.00000000000E+00 0.  1.
         22    1    1    2    0    0 -0.55628563352E+03  0.47799827365E+03  0.24341157968E+04  0.25422147368E+04  0.00000000000E+00 0. -1.
<mgrwt>
<rscale>  0 0.28576746E+04</rscale>
<asrwt>0</asrwt>
<pdfrwt beam="1">  1        2 0.41246062E+00 0.28576746E+04</pdfrwt>
<pdfrwt beam="2">  1       -2 0.11715380E+00 0.28576746E+04</pdfrwt>
<totfact> 0.13296243E+00</totfact>
</mgrwt>
</event>
<event>
 6    1  0.2238133E-007  0.1539845E+04  0.7818608E-02  0.8858381E-01
          2   -1    0    0  501    0  0.00000000000E+00  0.00000000000E+00  0.19281928208E+04  0.19281928208E+04  0.00000000000E+00 0. -1.
         -2   -1    0    0    0  501 -0.00000000000E+00 -0.00000000000E+00 -0.30742799644E+03  0.30742799644E+03  0.00000000000E+00 0.  1.
         23    2    1    2    0    0  0.36577270125E+03  0.56058251707E+03  0.13577532171E+04  0.15164424437E+04  0.89785628066E+02 0.  0.
         13    1    3    3    0    0  0.13671442756E+03  0.29157477623E+03  0.64948381109E+03  0.72493855305E+03  0.00000000000E+00 0. -1.
        -13    1    3    3    0    0  0.22905827369E+03  0.26900774085E+03  0.70826940601E+03  0.79150389062E+03  0.00000000000E+00 0.  1.
         22    1    1    2    0    0 -0.36577270125E+03 -0.56058251707E+03  0.26301160725E+03  0.71917837355E+03  0.00000000000E+00 0.  1.
<mgrwt>
<rscale>  0 0.15398447E+04</rscale>
<asrwt>0</asrwt>
<pdfrwt beam="1">  1        2 0.29664504E+00 0.15398447E+04</pdfrwt>
<pdfrwt beam="2">  1       -2 0.47296616E-01 0.15398447E+04</pdfrwt>
<totfact> 0.29898744E+01</totfact>
</mgrwt>
</event>
<event>
 6    1  0.2238133E-007  0.1562453E+04  0.7818608E-02  0.8843953E-01
          2   -1    0    0  501    0  0.00000000000E+00  0.00000000000E+00  0.20019519015E+04  0.20019519015E+04  0.00000000000E+00 0. -1.
         -2   -1    0    0    0  501 -0.00000000000E+00 -0.00000000000E+00 -0.30485971282E+03  0.30485971282E+03  0.00000000000E+00 0.  1.
         23    2    1    2    0    0 -0.56564221281E+03  0.52395740336E+03  0.69111454793E+03  0.10393442628E+04  0.90081656560E+02 0.  0.
         11    1    3    3    0    0 -0.35943409250E+03  0.29596937115E+03  0.46222176212E+03  0.65607902946E+03  0.00000000000E+00 0.  1.
        -11    1    3    3    0    0 -0.20620812030E+03  0.22798803221E+03  0.22889278581E+03  0.38326523336E+03  0.00000000000E+00 0. -1.
         22    1    1    2    0    0  0.56564221281E+03 -0.52395740336E+03  0.10059776408E+04  0.12674673515E+04  0.00000000000E+00 0. -1.
<mgrwt>
<rscale>  0 0.15624525E+04</rscale>
<asrwt>0</asrwt>
<pdfrwt beam="1">  1        2 0.30799259E+00 0.15624525E+04</pdfrwt>
<pdfrwt beam="2">  1       -2 0.46901495E-01 0.15624525E+04</pdfrwt>
<totfact> 0.27625990E+01</totfact>
</mgrwt>
</event>
<event>
 6    1  0.2238133E-007  0.2787993E+04  0.7818608E-02  0.8307006E-01
         -2   -1    0    0    0  501 -0.00000000000E+00  0.00000000000E+00  0.14962174375E+04  0.14962174375E+04  0.00000000000E+00 0.  1.
          2   -1    0    0  501    0  0.00000000000E+00 -0.00000000000E+00 -0.12987592557E+04  0.12987592557E+04  0.00000000000E+00 0. -1.
         23    2    1    2    0    0  0.13350953445E+04  0.13593311610E+03 -0.27271383750E+03  0.13729995067E+04  0.98981903215E+02 0.  0.
         13    1    3    3    0    0  0.49026969420E+03  0.20805863163E+01 -0.97525886106E+02  0.49987998595E+03  0.00000000000E+00 0.  1.
        -13    1    3    3    0    0  0.84482565034E+03  0.13385252978E+03 -0.17518795140E+03  0.87311952075E+03  0.00000000000E+00 0. -1.
         22    1    1    2    0    0 -0.13350953445E+04 -0.13593311610E+03  0.47017201930E+03  0.14219771865E+04  0.00000000000E+00 0.  1.
<mgrwt>
<rscale>  0 0.27879930E+04</rscale>
<asrwt>0</asrwt>
<pdfrwt beam="1">  1        2 0.19980912E+00 0.27879930E+04</pdfrwt>
<pdfrwt beam="2">  1       -2 0.23018730E+00 0.27879930E+04</pdfrwt>
<totfact> 0.12298501E+00</totfact>
</mgrwt>
</event>
<event>
 6    1  0.2238133E-007  0.2636438E+04  0.7818608E-02  0.8355928E-01
          2   -1    0    0  501    0  0.00000000000E+00  0.00000000000E+00  0.99634554919E+03  0.99634554919E+03  0.00000000000E+00 0. -1.
         -2   -1    0    0    0  501 -0.00000000000E+00 -0.00000000000E+00 -0.17440751186E+04  0.17440751186E+04  0.00000000000E+00 0.  1.
         23    2    1    2    0    0 -0.11902279147E+04  0.24050339011E+03 -0.90338838182E+03  0.15162009018E+04  0.90940840608E+02 0.  0.
         13    1    3    3    0    0 -0.28663987639E+03  0.86796695540E+02 -0.18936674184E+03  0.35433860643E+03  0.00000000000E+00 0.  1.
        -13    1    3    3    0    0 -0.90358803835E+03  0.15370669457E+03 -0.71402163998E+03  0.11618622954E+04  0.00000000000E+00 0. -1.
         22    1    1    2    0    0  0.11902279147E+04 -0.24050339011E+03  0.15565881237E+03  0.12242197660E+04  0.00000000000E+00 0. -1.
<mgrwt>
<rscale>  0 0.26364381E+04</rscale>
<asrwt>0</asrwt>
<pdfrwt beam="1">  1        2 0.15328393E+00 0.26364381E+04</pdfrwt>
<pdfrwt beam="2">  1       -2 0.26831925E+00 0.26364381E+04</pdfrwt>
<totfact> 0.11083336E+00</totfact>
</mgrwt>
</event>
<event>
 6    1  0.2238133E-007  0.8372838E+03  0.7818608E-02  0.9507565E-01
         -2   -1    0    0    0  501 -0.00000000000E+00  0.00000000000E+00  0.10018702039E+03  0.10018702039E+03  0.00000000000E+00 0.  1.
          2   -1    0    0  501    0  0.00000000000E+00 -0.00000000000E+00 -0.17493389567E+04  0.17493389567E+04  0.00000000000E+00 0. -1.
         23    2    1    2    0    0 -0.15656565120E+03  0.26695191606E+03 -0.22831326764E+03  0.39537376669E+03  0.91746054826E+02 0.  0.
         11    1    3    3    0    0 -0.10920000721E+03  0.99394049605E+02 -0.12036241405E+03  0.19050178316E+03  0.00000000000E+00 0.  1.
        -11    1    3    3    0    0 -0.47365643999E+02  0.16755786646E+03 -0.10795085359E+03  0.20487198353E+03  0.00000000000E+00 0. -1.
         22    1    1    2    0    0  0.15656565120E+03 -0.26695191606E+03 -0.14208386687E+04  0.14541522104E+04  0.00000000000E+00 0. -1.
<mgrwt>
<rscale>  0 0.83728384E+03</rscale>
<asrwt>0</asrwt>
<pdfrwt beam="1">  1        2 0.26912908E+00 0.83728384E+03</pdfrwt>
<pdfrwt beam="2">  1       -2 0.15413387E-01 0.83728384E+03</pdfrwt>
<totfact> 0.31161899E+02</totfact>
</mgrwt>
</event>
<event>
 6    1  0.2238133E-007  0.1362748E+04  0.7818608E-02  0.8981234E-01
         -2   -1    0    0    0  501 -0.00000000000E+00  0.00000000000E+00  0.64560906008E+03  0.64560906008E+03  0.00000000000E+00 0.  1.
          2   -1    0    0  501    0  0.00000000000E+00 -0.00000000000E+00 -0.71912018172E+03  0.71912018172E+03  0.00000000000E+00 0. -1.
         23    2    1    2    0    0 -0.38269603072E+03  0.84624558156E+02  0.51756814144E+03  0.65550976730E+03  0.90546707343E+02 0.  0.
         13    1    3    3    0    0 -0.22410693232E+03  0.79781513580E+02  0.25504430037E+03  0.34876439350E+03  0.00000000000E+00 0.  1.
        -13    1    3    3    0    0 -0.15858909840E+03  0.48430445756E+01  0.26252384108E+03  0.30674537380E+03  0.00000000000E+00 0. -1.
         22    1    1    2    0    0  0.38269603072E+03 -0.84624558156E+02 -0.59107926308E+03  0.70921947450E+03  0.00000000000E+00 0. -1.
<mgrwt>
<rscale>  0 0.13627480E+04</rscale>
<asrwt>0</asrwt>
<pdfrwt beam="1">  1        2 0.11063387E+00 0.13627480E+04</pdfrwt>
<pdfrwt beam="2">  1       -2 0.99324471E-01 0.13627480E+04</pdfrwt>
<totfact> 0.32437571E+01</totfact>
</mgrwt>
</event>
<event>
 6    1  0.2238133E-007  0.1823762E+04  0.7818608E-02  0.8693764E-01
          2   -1    0    0  501    0  0.00000000000E+00  0.00000000000E+00  0.12166005638E+04  0.12166005638E+04  0.00000000000E+00 0. -1.
         -2   -1    0    0    0  501 -0.00000000000E+00 -0.00000000000E+00 -0.68348360916E+03  0.68348360916E+03  0.00000000000E+00 0.  1.
         23    2    1    2    0    0 -0.20146908363E+03  0.85724320111E+01  0.11913048826E+04  0.12116986511E+04  0.91340131463E+02 0.  0.
         11    1    3    3    0    0 -0.11965182243E+03 -0.33866870935E+02  0.55554053839E+03  0.56928798806E+03  0.00000000000E+00 0. -1.
        -11    1    3    3    0    0 -0.81817261199E+02  0.42439302946E+02  0.63576434422E+03  0.64241066308E+03  0.00000000000E+00 0.  1.
         22    1    1    2    0    0  0.20146908363E+03 -0.85724320111E+01 -0.65818792792E+03  0.68838552186E+03  0.00000000000E+00 0.  1.
<mgrwt>
<rscale>  0 0.18237615E+04</rscale>
<asrwt>0</asrwt>
<pdfrwt beam="1">  1        2 0.18716932E+00 0.18237615E+04</pdfrwt>
<pdfrwt beam="2">  1       -2 0.10515132E+00 0.18237615E+04</pdfrwt>
<totfact> 0.12781329E+01</totfact>
</mgrwt>
</event>
<event>
 6    1  0.2238133E-007  0.1472011E+04  0.7818608E-02  0.8903282E-01
         -2   -1    0    0    0  501 -0.00000000000E+00  0.00000000000E+00  0.38727505979E+03  0.38727505979E+03  0.00000000000E+00 0.  1.
          2   -1    0    0  501    0  0.00000000000E+00 -0.00000000000E+00 -0.13987574116E+04  0.13987574116E+04  0.00000000000E+00 0. -1.
         23    2    1    2    0    0 -0.64485071306E+03 -0.14951159795E+02 -0.84741490496E+02  0.65691573546E+03  0.91110833479E+02 0.  0.
         13    1    3    3    0    0 -0.50631836589E+03 -0.44379663610E+02 -0.84841568810E+02  0.51529208608E+03  0.00000000000E+00 0. -1.
        -13    1    3    3    0    0 -0.13853234717E+03  0.29428503815E+02  0.10007831397E+00  0.14162364938E+03  0.00000000000E+00 0.  1.
         22    1    1    2    0    0  0.64485071306E+03  0.14951159795E+02 -0.92674086127E+03  0.11291167359E+04  0.00000000000E+00 0. -1.
<mgrwt>
<rscale>  0 0.14720107E+04</rscale>
<asrwt>0</asrwt>
<pdfrwt beam="1">  1        2 0.21519345E+00 0.14720107E+04</pdfrwt>
<pdfrwt beam="2">  1       -2 0.59580779E-01 0.14720107E+04</pdfrwt>
<totfact> 0.36885224E+01</totfact>
</mgrwt>
</event>
<event>
 6    1  0.2238133E-007  0.2250385E+04  0.7818608E-02  0.8497744E-01
          2   -1    0    0  501    0  0.00000000000E+00  0.00000000000E+00  0.35770713542E+04  0.35770713542E+04  0.00000000000E+00 0. -1.
         -2   -1    0    0    0  501 -0.00000000000E+00 -0.00000000000E+00 -0.35393717470E+03  0.35393717470E+03  0.00000000000E+00 0.  1.
         23    2    1    2    0    0 -0.72995961695E+02 -0.92426882975E+03  0.27223033588E+04  0.28772377801E+04  0.89220994824E+02 0.  0.
         13    1    3    3    0    0 -0.53553367687E+02 -0.88797258979E+03  0.25776066144E+04  0.27267964981E+04  0.00000000000E+00 0.  1.
        -13    1    3    3    0    0 -0.19442594008E+02 -0.36296239960E+02  0.14469674436E+03  0.15044128198E+03  0.00000000000E+00 0. -1.
         22    1    1    2    0    0  0.72995961695E+02  0.92426882975E+03  0.50083082075E+03  0.10537707488E+04  0.00000000000E+00 0.  1.
<mgrwt>
<rscale>  0 0.22503853E+04</rscale>
<asrwt>0</asrwt>
<pdfrwt beam="1">  1        2 0.55031864E+00 0.22503853E+04</pdfrwt>
<pdfrwt beam="2">  1       -2 0.54451876E-01 0.22503853E+04</pdfrwt>
<totfact> 0.20792311E+00</totfact>
</mgrwt>
</event>
<event>
 6    1  0.2238133E-007  0.3600156E+04  0.7818608E-02  0.8090456E-01
          2   -1    0    0  501    0  0.00000000000E+00  0.00000000000E+00  0.19472031284E+04  0.19472031284E+04  0.00000000000E+00 0. -1.
         -2   -1    0    0    0  501 -0.00000000000E+00 -0.00000000000E+00 -0.16640691450E+04  0.16640691450E+04  0.00000000000E+00 0.  1.
         23    2    1    2    0    0  0.15982599586E+04 -0.73427921235E+03  0.52018111775E+03  0.18365068802E+04  0.92564944608E+02 0.  0.
         13    1    3    3    0    0  0.10582463682E+04 -0.43919200445E+03  0.32679740054E+03  0.11914577347E+04  0.00000000000E+00 0.  1.
        -13    1    3    3    0    0  0.54001359039E+03 -0.29508720790E+03  0.19338371721E+03  0.64504914553E+03  0.00000000000E+00 0. -1.
         22    1    1    2    0    0 -0.15982599586E+04  0.73427921235E+03 -0.23704713439E+03  0.17747653932E+04  0.00000000000E+00 0.  1.
<mgrwt>
<rscale>  0 0.36001559E+04</rscale>
<asrwt>0</asrwt>
<pdfrwt beam="1">  1        2 0.29956971E+00 0.36001559E+04</pdfrwt>
<pdfrwt beam="2">  1       -2 0.25601064E+00 0.36001559E+04</pdfrwt>
<totfact> 0.34390298E-01</totfact>
</mgrwt>
</event>
<event>
 6    1  0.2238133E-007  0.1774861E+04  0.7818608E-02  0.8719784E-01
          2   -1    0    0  501    0  0.00000000000E+00  0.00000000000E+00  0.21671048227E+04  0.21671048227E+04  0.00000000000E+00 0. -1.
         -2   -1    0    0    0  501 -0.00000000000E+00 -0.00000000000E+00 -0.36340303912E+03  0.36340303912E+03  0.00000000000E+00 0.  1.
         23    2    1    2    0    0 -0.15887904242E+03  0.52861682543E+03 -0.82140395908E+02  0.56554500614E+03  0.91737729874E+02 0.  0.
         11    1    3    3    0    0 -0.48873696164E+02  0.10648927871E+03  0.16446477982E+02  0.11831775562E+03  0.00000000000E+00 0.  1.
        -11    1    3    3    0    0 -0.11000534625E+03  0.42212754672E+03 -0.98586873890E+02  0.44722725052E+03  0.00000000000E+00 0. -1.
         22    1    1    2    0    0  0.15887904242E+03 -0.52861682543E+03  0.18858421795E+04  0.19649628557E+04  0.00000000000E+00 0. -1.
<mgrwt>
<rscale>  0 0.17748605E+04</rscale>
<asrwt>0</asrwt>
<pdfrwt beam="1">  1        2 0.33340073E+00 0.17748605E+04</pdfrwt>
<pdfrwt beam="2">  1       -2 0.55908161E-01 0.17748605E+04</pdfrwt>
<totfact> 0.15319591E+01</totfact>
</mgrwt>
</event>
<event>
 6    1  0.2238133E-007  0.1428390E+04  0.7818608E-02  0.8933521E-01
         -2   -1    0    0    0  501 -0.00000000000E+00  0.00000000000E+00  0.17058526070E+03  0.17058526070E+03  0.00000000000E+00 0.  1.
          2   -1    0    0  501    0  0.00000000000E+00 -0.00000000000E+00 -0.29901449613E+04  0.29901449613E+04  0.00000000000E+00 0. -1.
         23    2    1    2    0    0  0.75979653436E+01  0.58081862207E+03 -0.50650021221E+03  0.77585030937E+03  0.89404903433E+02 0.  0.
         11    1    3    3    0    0  0.30683699166E+02  0.11787068817E+03 -0.13500745821E+03  0.18182959687E+03  0.00000000000E+00 0. -1.
        -11    1    3    3    0    0 -0.23085733823E+02  0.46294793389E+03 -0.37149275400E+03  0.59402071250E+03  0.00000000000E+00 0.  1.
         22    1    1    2    0    0 -0.75979653436E+01 -0.58081862207E+03 -0.23130594884E+04  0.23848799126E+04  0.00000000000E+00 0. -1.
<mgrwt>
<rscale>  0 0.14283902E+04</rscale>
<asrwt>0</asrwt>
<pdfrwt beam="1">  1        2 0.46002225E+00 0.14283902E+04</pdfrwt>
<pdfrwt beam="2">  1       -2 0.26243889E-01 0.14283902E+04</pdfrwt>
<totfact> 0.22717329E+01</totfact>
</mgrwt>
</event>
<event>
 6    1  0.2238133E-007  0.3559459E+04  0.7818608E-02  0.8099842E-01
         -2   -1    0    0    0  501 -0.00000000000E+00  0.00000000000E+00  0.10489763808E+04  0.10489763808E+04  0.00000000000E+00 0.  1.
          2   -1    0    0  501    0  0.00000000000E+00 -0.00000000000E+00 -0.30195500629E+04  0.30195500629E+04  0.00000000000E+00 0. -1.
         23    2    1    2    0    0 -0.13299778037E+04 -0.11743104576E+04 -0.11285163307E+04  0.21046255826E+04  0.89742549208E+02 0.  0.
         13    1    3    3    0    0 -0.80879961539E+03 -0.73700864603E+03 -0.74311641431E+03  0.13227095552E+04  0.00000000000E+00 0. -1.
        -13    1    3    3    0    0 -0.52117818831E+03 -0.43730181157E+03 -0.38539991638E+03  0.78191602741E+03  0.00000000000E+00 0.  1.
         22    1    1    2    0    0  0.13299778037E+04  0.11743104576E+04 -0.84205735143E+03  0.19639008611E+04  0.00000000000E+00 0.  1.
<mgrwt>
<rscale>  0 0.35594588E+04</rscale>
<asrwt>0</asrwt>
<pdfrwt beam="1">  1        2 0.46454616E+00 0.35594588E+04</pdfrwt>
<pdfrwt beam="2">  1       -2 0.16138098E+00 0.35594588E+04</pdfrwt>
<totfact> 0.34030478E-01</totfact>
</mgrwt>
</event>
<event>
 6    1  0.2238133E-007  0.2848436E+04  0.7818608E-02  0.8288387E-01
          2   -1    0    0  501    0  0.00000000000E+00  0.00000000000E+00  0.19028962187E+04  0.19028962187E+04  0.00000000000E+00 0. -1.
         -2   -1    0    0    0  501 -0.00000000000E+00 -0.00000000000E+00 -0.10659525226E+04  0.10659525226E+04  0.00000000000E+00 0.  1.
         23    2    1    2    0    0 -0.67150645787E+03  0.11861488354E+03  0.17203013473E+04  0.18529136386E+04  0.94137202299E+02 0.  0.
         11    1    3    3    0    0 -0.26959898250E+03  0.98367081021E+01  0.75025866845E+03  0.79728817988E+03  0.00000000000E+00 0.  1.
        -11    1    3    3    0    0 -0.40190747537E+03  0.10877817544E+03  0.97004267886E+03  0.10556254587E+04  0.00000000000E+00 0. -1.
         22    1    1    2    0    0  0.67150645787E+03 -0.11861488354E+03 -0.88335765117E+03  0.11159351027E+04  0.00000000000E+00 0.  1.
<mgrwt>
<rscale>  0 0.28484361E+04</rscale>
<asrwt>0</asrwt>
<pdfrwt beam="1">  1        2 0.29275327E+00 0.28484361E+04</pdfrwt>
<pdfrwt beam="2">  1       -2 0.16399270E+00 0.28484361E+04</pdfrwt>
<totfact> 0.15440588E+00</totfact>
</mgrwt>
</event>
<event>
 6    1  0.2238133E-007  0.8251814E+03  0.7818608E-02  0.9524267E-01
          2   -1    0    0  501    0  0.00000000000E+00  0.00000000000E+00  0.38957668437E+03  0.38957668437E+03  0.00000000000E+00 0. -1.
         -2   -1    0    0    0  501 -0.00000000000E+00 -0.00000000000E+00 -0.43696425468E+03  0.43696425468E+03  0.00000000000E+00 0.  1.
         23    2    1    2    0    0 -0.92067147500E+02  0.37773924642E+03  0.99081478858E+02  0.41106954377E+03  0.89430042062E+02 0.  0.
         11    1    3    3    0    0 -0.28729698396E+02  0.23209570093E+03  0.94342761029E+02  0.25217923491E+03  0.00000000000E+00 0. -1.
        -11    1    3    3    0    0 -0.63337449104E+02  0.14564354549E+03  0.47387178294E+01  0.15889030886E+03  0.00000000000E+00 0.  1.
         22    1    1    2    0    0  0.92067147500E+02 -0.37773924642E+03 -0.14646904917E+03  0.41547139529E+03  0.00000000000E+00 0. -1.
<mgrwt>
<rscale>  0 0.82518140E+03</rscale>
<asrwt>0</asrwt>
<pdfrwt beam="1">  1        2 0.59934875E-01 0.82518140E+03</pdfrwt>
<pdfrwt beam="2">  1       -2 0.67225270E-01 0.82518140E+03</pdfrwt>
<totfact> 0.16746568E+02</totfact>
</mgrwt>
</event>
<event>
 6    1  0.2238133E-007  0.2899728E+04  0.7818608E-02  0.8272958E-01
          2   -1    0    0  501    0  0.00000000000E+00  0.00000000000E+00  0.34885355176E+04  0.34885355176E+04  0.00000000000E+00 0. -1.
         -2   -1    0    0    0  501 -0.00000000000E+00 -0.00000000000E+00 -0.60257554399E+03  0.60257554399E+03  0.00000000000E+00 0.  1.
         23    2    1    2    0    0 -0.10166060175E+04  0.47725349323E+03  0.15389731819E+03  0.11372280164E+04  0.91348153402E+02 0.  0.
         13    1    3    3    0    0 -0.52588705606E+03  0.29115911825E+03  0.60272299479E+02  0.60412215483E+03  0.00000000000E+00 0. -1.
        -13    1    3    3    0    0 -0.49071896143E+03  0.18609437498E+03  0.93625018714E+02  0.53310586157E+03  0.00000000000E+00 0.  1.
         22    1    1    2    0    0  0.10166060175E+04 -0.47725349323E+03  0.27320626554E+04  0.29538830452E+04  0.00000000000E+00 0. -1.
<mgrwt>
<rscale>  0 0.28997284E+04</rscale>
<asrwt>0</asrwt>
<pdfrwt beam="1">  1        2 0.53669776E+00 0.28997284E+04</pdfrwt>
<pdfrwt beam="2">  1       -2 0.92703932E-01 0.28997284E+04</pdfrwt>
<totfact> 0.70491130E-01</totfact>
</mgrwt>
</event>
<event>
 6    1  0.2238133E-007  0.1227753E+04  0.7818608E-02  0.9088905E-01
          2   -1    0    0  501    0  0.00000000000E+00  0.00000000000E+00  0.13804498505E+04  0.13804498505E+04  0.00000000000E+00 0. -1.
         -2   -1    0    0    0  501 -0.00000000000E+00 -0.00000000000E+00 -0.27298666361E+03  0.27298666361E+03  0.00000000000E+00 0.  1.
         23    2    1    2    0    0  0.20382545144E+03 -0.19590097421E+03  0.12851750816E+04  0.13195150805E+04  0.97586120544E+02 0.  0.
         11    1    3    3    0    0  0.70496515407E+02 -0.59277094463E+02  0.64309066326E+03  0.64965308725E+03  0.00000000000E+00 0.  1.
        -11    1    3    3    0    0  0.13332893603E+03 -0.13662387975E+03  0.64208441835E+03  0.66986199324E+03  0.00000000000E+00 0. -1.
         22    1    1    2    0    0 -0.20382545144E+03  0.19590097421E+03 -0.17771189468E+03  0.33392143366E+03  0.00000000000E+00 0.  1.
<mgrwt>
<rscale>  0 0.12277531E+04</rscale>
<asrwt>0</asrwt>
<pdfrwt beam="1">  1        2 0.21237690E+00 0.12277531E+04</pdfrwt>
<pdfrwt beam="2">  1       -2 0.41997949E-01 0.12277531E+04</pdfrwt>
<totfact> 0.78544337E+01</totfact>
</mgrwt>
</event>
<event>
 6    1  0.2238133E-007  0.1881204E+04  0.7818608E-02  0.8664269E-01
          1   -1    0    0  501    0  0.00000000000E+00  0.00000000000E+00  0.19297920356E+04  0.19297920356E+04  0.00000000000E+00 0. -1.
         -1   -1    0    0    0  501 -0.00000000000E+00 -0.00000000000E+00 -0.45845965577E+03  0.45845965577E+03  0.00000000000E+00 0.  1.
         23    2    1    2    0    0 -0.48959410684E+03  0.38569742875E+03  0.16279221363E+04  0.17456124086E+04  0.92559728230E+02 0.  0.
         13    1    3    3    0    0 -0.37540016589E+03  0.33436559291E+03  0.12417827730E+04  0.13396828317E+04  0.00000000000E+00 0. -1.
        -13    1    3    3    0    0 -0.11419394095E+03  0.51331835846E+02  0.38613936329E+03  0.40592957691E+03  0.00000000000E+00 0.  1.
         22    1    1    2    0    0  0.48959410684E+03 -0.38569742875E+03 -0.15658975640E+03  0.64263928281E+03  0.00000000000E+00 0.  1.
<mgrwt>
<rscale>  0 0.18812036E+04</rscale>
<asrwt>0</asrwt>
<pdfrwt beam="1">  1        1 0.29689108E+00 0.18812036E+04</pdfrwt>
<pdfrwt beam="2">  1       -1 0.70532256E-01 0.18812036E+04</pdfrwt>
<totfact> 0.63302735E+00</totfact>
</mgrwt>
</event>
<event>
 6    1  0.2238133E-007  0.8356589E+03  0.7818608E-02  0.9509790E-01
          2   -1    0    0  501    0  0.00000000000E+00  0.00000000000E+00  0.14094679796E+04  0.14094679796E+04  0.00000000000E+00 0. -1.
         -2   -1    0    0    0  501 -0.00000000000E+00 -0.00000000000E+00 -0.12386335866E+03  0.12386335866E+03  0.00000000000E+00 0.  1.
         23    2    1    2    0    0 -0.35995752881E+03  0.14830345326E+01  0.27997710443E+03  0.46522164170E+03  0.92045504815E+02 0.  0.
         11    1    3    3    0    0 -0.31540744953E+02  0.27795349355E+02  0.33669788690E+02  0.53861439902E+02  0.00000000000E+00 0.  1.
        -11    1    3    3    0    0 -0.32841678386E+03 -0.26312314822E+02  0.24630731574E+03  0.41136020179E+03  0.00000000000E+00 0. -1.
         22    1    1    2    0    0  0.35995752881E+03 -0.14830345326E+01  0.10056275165E+04  0.10681096965E+04  0.00000000000E+00 0. -1.
<mgrwt>
<rscale>  0 0.83565887E+03</rscale>
<asrwt>0</asrwt>
<pdfrwt beam="1">  1        2 0.21684122E+00 0.83565887E+03</pdfrwt>
<pdfrwt beam="2">  1       -2 0.19055902E-01 0.83565887E+03</pdfrwt>
<totfact> 0.33409628E+02</totfact>
</mgrwt>
</event>
<event>
 6    1  0.2728131E-007  0.1424027E+04  0.7818608E-02  0.8936608E-01
          2   -1    0    0  501    0  0.00000000000E+00  0.00000000000E+00  0.17723924339E+04  0.17723924339E+04  0.00000000000E+00 0. -1.
         -2   -1    0    0    0  501 -0.00000000000E+00 -0.00000000000E+00 -0.28603309726E+03  0.28603309726E+03  0.00000000000E+00 0.  1.
         23    2    1    2    0    0 -0.33774176152E+03 -0.65813854392E+02  0.16423966845E+04  0.16806046545E+04  0.92542825425E+02 0.  0.
         11    1    3    3    0    0 -0.15847179495E+03 -0.56325480166E+02  0.61211659606E+03  0.63480122612E+03  0.00000000000E+00 0.  1.
        -11    1    3    3    0    0 -0.17926996657E+03 -0.94883742263E+01  0.10302800884E+04  0.10458034284E+04  0.00000000000E+00 0. -1.
         22    1    1    2    0    0  0.33774176152E+03  0.65813854392E+02 -0.15603734787E+03  0.37782087665E+03  0.00000000000E+00 0.  1.
<mgrwt>
<rscale>  0 0.14240265E+04</rscale>
<asrwt>0</asrwt>
<pdfrwt beam="1">  1        2 0.27267575E+00 0.14240265E+04</pdfrwt>
<pdfrwt beam="2">  1       -2 0.44005093E-01 0.14240265E+04</pdfrwt>
<totfact> 0.42531829E+01</totfact>
</mgrwt>
</event>
<event>
 6    1  0.2238133E-007  0.2103550E+04  0.7818608E-02  0.8559681E-01
         -1   -1    0    0    0  501 -0.00000000000E+00  0.00000000000E+00  0.10655045135E+04  0.10655045135E+04  0.00000000000E+00 0.  1.
          1   -1    0    0  501    0  0.00000000000E+00 -0.00000000000E+00 -0.10382220077E+04  0.10382220077E+04  0.00000000000E+00 0. -1.
         23    2    1    2    0    0  0.55699529162E+03 -0.10479930231E+03  0.89743089345E+03  0.10652734095E+04  0.90546009298E+02 0.  0.
         13    1    3    3    0    0  0.26046450364E+03 -0.94275938718E+02  0.41801068478E+03  0.50146050978E+03  0.00000000000E+00 0. -1.
        -13    1    3    3    0    0  0.29653078798E+03 -0.10523363596E+02  0.47942020868E+03  0.56381289972E+03  0.00000000000E+00 0.  1.
         22    1    1    2    0    0 -0.55699529162E+03  0.10479930231E+03 -0.87014838770E+03  0.10384531117E+04  0.00000000000E+00 0. -1.
<mgrwt>
<rscale>  0 0.21035496E+04</rscale>
<asrwt>0</asrwt>
<pdfrwt beam="1">  1        1 0.15972646E+00 0.21035496E+04</pdfrwt>
<pdfrwt beam="2">  1       -1 0.16392377E+00 0.21035496E+04</pdfrwt>
<totfact> 0.35469953E+00</totfact>
</mgrwt>
</event>
<event>
 6    1  0.2238133E-007  0.1299444E+04  0.7818608E-02  0.9030006E-01
         -2   -1    0    0    0  501 -0.00000000000E+00  0.00000000000E+00  0.10949301615E+04  0.10949301615E+04  0.00000000000E+00 0.  1.
          2   -1    0    0  501    0  0.00000000000E+00 -0.00000000000E+00 -0.38553956822E+03  0.38553956822E+03  0.00000000000E+00 0. -1.
         23    2    1    2    0    0  0.37996067011E+03  0.43109063264E+03  0.69387256085E+03  0.90562187709E+03  0.92101081310E+02 0.  0.
         11    1    3    3    0    0  0.32149411228E+03  0.38229987898E+03  0.64221205026E+03  0.81360185545E+03  0.00000000000E+00 0.  1.
        -11    1    3    3    0    0  0.58466557829E+02  0.48790753658E+02  0.51660510591E+02  0.92020021633E+02  0.00000000000E+00 0. -1.
         22    1    1    2    0    0 -0.37996067011E+03 -0.43109063264E+03  0.15518032472E+02  0.57484785267E+03  0.00000000000E+00 0. -1.
<mgrwt>
<rscale>  0 0.12994443E+04</rscale>
<asrwt>0</asrwt>
<pdfrwt beam="1">  1        2 0.59313780E-01 0.12994443E+04</pdfrwt>
<pdfrwt beam="2">  1       -2 0.16845079E+00 0.12994443E+04</pdfrwt>
<totfact> 0.17743118E+01</totfact>
</mgrwt>
</event>
<event>
 6    1  0.2238133E-007  0.2411512E+04  0.7818608E-02  0.8435206E-01
          2   -1    0    0  501    0  0.00000000000E+00  0.00000000000E+00  0.45315196466E+03  0.45315196466E+03  0.00000000000E+00 0. -1.
         -2   -1    0    0    0  501 -0.00000000000E+00 -0.00000000000E+00 -0.32082992023E+04  0.32082992023E+04  0.00000000000E+00 0.  1.
         23    2    1    2    0    0  0.56464675500E+03 -0.87309786351E+03 -0.45796626451E+03  0.11399107131E+04  0.92398577829E+02 0.  0.
         13    1    3    3    0    0  0.20626567169E+03 -0.25595802389E+03 -0.17299098560E+03  0.37146455876E+03  0.00000000000E+00 0.  1.
        -13    1    3    3    0    0  0.35838108331E+03 -0.61713983962E+03 -0.28497527891E+03  0.76844615434E+03  0.00000000000E+00 0. -1.
         22    1    1    2    0    0 -0.56464675500E+03  0.87309786351E+03 -0.22971809731E+04  0.25215404539E+04  0.00000000000E+00 0.  1.
<mgrwt>
<rscale>  0 0.24115116E+04</rscale>
<asrwt>0</asrwt>
<pdfrwt beam="1">  1        2 0.69715688E-01 0.24115116E+04</pdfrwt>
<pdfrwt beam="2">  1       -2 0.49358448E+00 0.24115116E+04</pdfrwt>
<totfact> 0.11173971E-01</totfact>
</mgrwt>
</event>
<event>
 6    1  0.2238133E-007  0.1460578E+04  0.7818608E-02  0.8911100E-01
         -2   -1    0    0    0  501 -0.00000000000E+00  0.00000000000E+00  0.33534771181E+03  0.33534771181E+03  0.00000000000E+00 0.  1.
          2   -1    0    0  501    0  0.00000000000E+00 -0.00000000000E+00 -0.15903551083E+04  0.15903551083E+04  0.00000000000E+00 0. -1.
         23    2    1    2    0    0 -0.34643858673E+03  0.42909098422E+03 -0.42771128131E+01  0.55878475029E+03  0.89907376464E+02 0.  0.
         13    1    3    3    0    0 -0.17640577740E+03  0.27674688832E+03 -0.27337039453E+02  0.32932529848E+03  0.00000000000E+00 0.  1.
        -13    1    3    3    0    0 -0.17003280933E+03  0.15234409590E+03  0.23059926639E+02  0.22945945180E+03  0.00000000000E+00 0. -1.
         22    1    1    2    0    0  0.34643858673E+03 -0.42909098422E+03 -0.12507302837E+04  0.13669180698E+04  0.00000000000E+00 0. -1.
<mgrwt>
<rscale>  0 0.14605779E+04</rscale>
<asrwt>0</asrwt>
<pdfrwt beam="1">  1        2 0.24467002E+00 0.14605779E+04</pdfrwt>
<pdfrwt beam="2">  1       -2 0.51591955E-01 0.14605779E+04</pdfrwt>
<totfact> 0.38823274E+01</totfact>
</mgrwt>
</event>
<event>
 6    1  0.2238133E-007  0.2928917E+04  0.7818608E-02  0.8264326E-01
         -2   -1    0    0    0  501 -0.00000000000E+00  0.00000000000E+00  0.96038170947E+03  0.96038170947E+03  0.00000000000E+00 0.  1.
          2   -1    0    0  501    0  0.00000000000E+00 -0.00000000000E+00 -0.22331104305E+04  0.22331104305E+04  0.00000000000E+00 0. -1.
         23    2    1    2    0    0  0.39035485827E+03 -0.16954508304E+03  0.88909270031E+03  0.99017774834E+03  0.94040911321E+02 0.  0.
         13    1    3    3    0    0  0.37839103027E+03 -0.15444858976E+03  0.79244851474E+03  0.89163265260E+03  0.00000000000E+00 0. -1.
        -13    1    3    3    0    0  0.11963828000E+02 -0.15096493278E+02  0.96644185570E+02  0.98545095738E+02  0.00000000000E+00 0.  1.
         22    1    1    2    0    0 -0.39035485827E+03  0.16954508304E+03 -0.21618214214E+04  0.22033143916E+04  0.00000000000E+00 0. -1.
<mgrwt>
<rscale>  0 0.29289168E+04</rscale>
<asrwt>0</asrwt>
<pdfrwt beam="1">  1        2 0.34355545E+00 0.29289168E+04</pdfrwt>
<pdfrwt beam="2">  1       -2 0.14775103E+00 0.29289168E+04</pdfrwt>
<totfact> 0.13281273E+00</totfact>
</mgrwt>
</event>
<event>
 6    1  0.2238133E-007  0.1276255E+04  0.7818608E-02  0.9048610E-01
         -1   -1    0    0    0  501 -0.00000000000E+00  0.00000000000E+00  0.95911264699E+02  0.95911264699E+02  0.00000000000E+00 0.  1.
          1   -1    0    0  501    0  0.00000000000E+00 -0.00000000000E+00 -0.42456628885E+04  0.42456628885E+04  0.00000000000E+00 0. -1.
         23    2    1    2    0    0  0.18584524946E+02 -0.20242097564E+03 -0.41313655476E+04  0.41374720127E+04  0.95779599868E+02 0.  0.
         13    1    3    3    0    0 -0.24936356956E+02 -0.77292480767E+02 -0.99473188396E+03  0.99804181799E+03  0.00000000000E+00 0. -1.
        -13    1    3    3    0    0  0.43520881901E+02 -0.12512849487E+03 -0.31366336637E+04  0.31394301947E+04  0.00000000000E+00 0.  1.
         22    1    1    2    0    0 -0.18584524946E+02  0.20242097564E+03 -0.18386076132E+02  0.20410214046E+03  0.00000000000E+00 0.  1.
<mgrwt>
<rscale>  0 0.12762553E+04</rscale>
<asrwt>0</asrwt>
<pdfrwt beam="1">  1        1 0.65317889E+00 0.12762553E+04</pdfrwt>
<pdfrwt beam="2">  1       -1 0.14755580E-01 0.12762553E+04</pdfrwt>
<totfact> 0.19765499E+00</totfact>
</mgrwt>
</event>
<event>
 6    1  0.2238133E-007  0.9910748E+03  0.7818608E-02  0.9318388E-01
         -2   -1    0    0    0  501 -0.00000000000E+00  0.00000000000E+00  0.36142066861E+03  0.36142066861E+03  0.00000000000E+00 0.  1.
          2   -1    0    0  501    0  0.00000000000E+00 -0.00000000000E+00 -0.67942249878E+03  0.67942249878E+03  0.00000000000E+00 0. -1.
         23    2    1    2    0    0  0.38629479418E+03 -0.29176722839E+03 -0.24930195645E+03  0.55189382827E+03  0.89908557021E+02 0.  0.
         13    1    3    3    0    0  0.23056493470E+03 -0.21836039470E+03 -0.13390236690E+03  0.34463211538E+03  0.00000000000E+00 0.  1.
        -13    1    3    3    0    0  0.15572985948E+03 -0.73406833692E+02 -0.11539958955E+03  0.20726171290E+03  0.00000000000E+00 0. -1.
         22    1    1    2    0    0 -0.38629479418E+03  0.29176722839E+03 -0.68699873722E+02  0.48894933912E+03  0.00000000000E+00 0.  1.
<mgrwt>
<rscale>  0 0.99107484E+03</rscale>
<asrwt>0</asrwt>
<pdfrwt beam="1">  1        2 0.10452654E+00 0.99107484E+03</pdfrwt>
<pdfrwt beam="2">  1       -2 0.55603181E-01 0.99107484E+03</pdfrwt>
<totfact> 0.12920396E+02</totfact>
</mgrwt>
</event>
<event>
 6    1  0.2238133E-007  0.1952080E+04  0.7818608E-02  0.8629359E-01
          2   -1    0    0  501    0  0.00000000000E+00  0.00000000000E+00  0.64126707285E+03  0.64126707285E+03  0.00000000000E+00 0. -1.
         -2   -1    0    0    0  501 -0.00000000000E+00 -0.00000000000E+00 -0.14855803261E+04  0.14855803261E+04  0.00000000000E+00 0.  1.
         23    2    1    2    0    0 -0.90287933583E+02 -0.49230351978E+03 -0.13332952462E+04  0.14271202693E+04  0.92094424071E+02 0.  0.
         11    1    3    3    0    0 -0.32839688054E+02 -0.20328267816E+03 -0.42572772686E+03  0.47291266611E+03  0.00000000000E+00 0. -1.
        -11    1    3    3    0    0 -0.57448245528E+02 -0.28902084162E+03 -0.90756751939E+03  0.95420760322E+03  0.00000000000E+00 0.  1.
         22    1    1    2    0    0  0.90287933583E+02  0.49230351978E+03  0.48898199296E+03  0.69972712966E+03  0.00000000000E+00 0. -1.
<mgrwt>
<rscale>  0 0.19520797E+04</rscale>
<asrwt>0</asrwt>
<pdfrwt beam="1">  1        2 0.98656474E-01 0.19520797E+04</pdfrwt>
<pdfrwt beam="2">  1       -2 0.22855082E+00 0.19520797E+04</pdfrwt>
<totfact> 0.37210542E+00</totfact>
</mgrwt>
</event>
<event>
 6    1  0.2238133E-007  0.2112299E+04  0.7818608E-02  0.8555845E-01
          2   -1    0    0  501    0  0.00000000000E+00  0.00000000000E+00  0.17439539878E+04  0.17439539878E+04  0.00000000000E+00 0. -1.
         -2   -1    0    0    0  501 -0.00000000000E+00 -0.00000000000E+00 -0.63961100196E+03  0.63961100196E+03  0.00000000000E+00 0.  1.
         23    2    1    2    0    0  0.90759912844E+03  0.10017523296E+01 -0.54930537541E+02  0.91127008605E+03  0.60486563157E+02 0.  0.
         13    1    3    3    0    0  0.64588026183E+03  0.30902495470E+01 -0.66399406866E+02  0.64929172450E+03  0.00000000000E+00 0. -1.
        -13    1    3    3    0    0  0.26171886661E+03 -0.20884972175E+01  0.11468869324E+02  0.26197836155E+03  0.00000000000E+00 0.  1.
         22    1    1    2    0    0 -0.90759912844E+03 -0.10017523296E+01  0.11592735234E+04  0.14722949037E+04  0.00000000000E+00 0. -1.
<mgrwt>
<rscale>  0 0.21122994E+04</rscale>
<asrwt>0</asrwt>
<pdfrwt beam="1">  1        2 0.26830061E+00 0.21122994E+04</pdfrwt>
<pdfrwt beam="2">  1       -2 0.98401693E-01 0.21122994E+04</pdfrwt>
<totfact> 0.73232437E+00</totfact>
</mgrwt>
</event>
<event>
 6    1  0.2238133E-007  0.1715474E+04  0.7818608E-02  0.8752588E-01
          2   -1    0    0  501    0  0.00000000000E+00  0.00000000000E+00  0.18001604168E+04  0.18001604168E+04  0.00000000000E+00 0. -1.
         -2   -1    0    0    0  501 -0.00000000000E+00 -0.00000000000E+00 -0.40869285311E+03  0.40869285311E+03  0.00000000000E+00 0.  1.
         23    2    1    2    0    0 -0.32127739364E+03 -0.53321019532E+03 -0.57340311539E+02  0.63196502550E+03  0.92518139114E+02 0.  0.
         11    1    3    3    0    0 -0.14385842207E+03 -0.28958347350E+03  0.85622070041E+01  0.32346119569E+03  0.00000000000E+00 0. -1.
        -11    1    3    3    0    0 -0.17741897157E+03 -0.24362672182E+03 -0.65902518543E+02  0.30850382981E+03  0.00000000000E+00 0.  1.
         22    1    1    2    0    0  0.32127739364E+03  0.53321019532E+03  0.14488078752E+04  0.15768882444E+04  0.00000000000E+00 0. -1.
<mgrwt>
<rscale>  0 0.17154739E+04</rscale>
<asrwt>0</asrwt>
<pdfrwt beam="1">  1        2 0.27694775E+00 0.17154739E+04</pdfrwt>
<pdfrwt beam="2">  1       -2 0.62875825E-01 0.17154739E+04</pdfrwt>
<totfact> 0.19220431E+01</totfact>
</mgrwt>
</event>
<event>
 6    1  0.2238133E-007  0.3081478E+04  0.7818608E-02  0.8220840E-01
         -4   -1    0    0    0  501 -0.00000000000E+00  0.00000000000E+00  0.23597300690E+04  0.23597300690E+04  0.00000000000E+00 0.  1.
          4   -1    0    0  501    0  0.00000000000E+00 -0.00000000000E+00 -0.10059948782E+04  0.10059948782E+04  0.00000000000E+00 0. -1.
         23    2    1    2    0    0  0.11630094547E+04 -0.23929372103E+03 -0.39260592193E+03  0.12539579717E+04  0.91753518617E+02 0.  0.
         11    1    3    3    0    0  0.31368148644E+03 -0.49650096522E+02 -0.14537531575E+03  0.34927809758E+03  0.00000000000E+00 0.  1.
        -11    1    3    3    0    0  0.84932796824E+03 -0.18964362451E+03 -0.24723060619E+03  0.90467987409E+03  0.00000000000E+00 0. -1.
         22    1    1    2    0    0 -0.11630094547E+04  0.23929372103E+03  0.17463411128E+04  0.21117669755E+04  0.00000000000E+00 0.  1.
<mgrwt>
<rscale>  0 0.30814778E+04</rscale>
<asrwt>0</asrwt>
<pdfrwt beam="1">  1        4 0.15476844E+00 0.30814778E+04</pdfrwt>
<pdfrwt beam="2">  1       -4 0.36303539E+00 0.30814778E+04</pdfrwt>
<totfact> 0.56168828E-03</totfact>
</mgrwt>
</event>
<event>
 6    1  0.2238133E-007  0.1054608E+04  0.7818608E-02  0.9250599E-01
          2   -1    0    0  501    0  0.00000000000E+00  0.00000000000E+00  0.22925776424E+04  0.22925776424E+04  0.00000000000E+00 0. -1.
         -2   -1    0    0    0  501 -0.00000000000E+00 -0.00000000000E+00 -0.12128252892E+03  0.12128252892E+03  0.00000000000E+00 0.  1.
         23    2    1    2    0    0 -0.49939591640E+03 -0.15665279085E+03  0.10924897473E+04  0.12147949536E+04  0.90865577530E+02 0.  0.
         11    1    3    3    0    0 -0.32907877811E+03 -0.58113283039E+02  0.70647031104E+03  0.78151794365E+03  0.00000000000E+00 0.  1.
        -11    1    3    3    0    0 -0.17031713829E+03 -0.98539507807E+02  0.38601943628E+03  0.43327700999E+03  0.00000000000E+00 0. -1.
         22    1    1    2    0    0  0.49939591640E+03  0.15665279085E+03  0.10788053661E+04  0.11990652176E+04  0.00000000000E+00 0.  1.
<mgrwt>
<rscale>  0 0.10546082E+04</rscale>
<asrwt>0</asrwt>
<pdfrwt beam="1">  1        2 0.35270422E+00 0.10546082E+04</pdfrwt>
<pdfrwt beam="2">  1       -2 0.18658852E-01 0.10546082E+04</pdfrwt>
<totfact> 0.11072666E+02</totfact>
</mgrwt>
</event>
<event>
 6    1  0.2238133E-007  0.1792559E+04  0.7818608E-02  0.8710267E-01
          3   -1    0    0  501    0  0.00000000000E+00  0.00000000000E+00  0.63126299786E+03  0.63126299786E+03  0.00000000000E+00 0. -1.
         -3   -1    0    0    0  501 -0.00000000000E+00 -0.00000000000E+00 -0.12725545908E+04  0.12725545908E+04  0.00000000000E+00 0.  1.
         23    2    1    2    0    0  0.75284382638E+03  0.39880136525E+03 -0.60936346712E+03  0.10512709559E+04  0.89612676747E+02 0.  0.
         13    1    3    3    0    0  0.32984399471E+03  0.19444504878E+03 -0.22357354699E+03  0.44338591403E+03  0.00000000000E+00 0. -1.
        -13    1    3    3    0    0  0.42299983167E+03  0.20435631647E+03 -0.38578992012E+03  0.60788504188E+03  0.00000000000E+00 0.  1.
         22    1    1    2    0    0 -0.75284382638E+03 -0.39880136525E+03 -0.31928125842E+02  0.85254663278E+03  0.00000000000E+00 0. -1.
<mgrwt>
<rscale>  0 0.17925586E+04</rscale>
<asrwt>0</asrwt>
<pdfrwt beam="1">  1        3 0.97117384E-01 0.17925586E+04</pdfrwt>
<pdfrwt beam="2">  1       -3 0.19577763E+00 0.17925586E+04</pdfrwt>
<totfact> 0.36051940E-01</totfact>
</mgrwt>
</event>
<event>
 6    1  0.2238133E-007  0.1522928E+04  0.7818608E-02  0.8869347E-01
          2   -1    0    0  501    0  0.00000000000E+00  0.00000000000E+00  0.94204805417E+03  0.94204805417E+03  0.00000000000E+00 0. -1.
         -2   -1    0    0    0  501 -0.00000000000E+00 -0.00000000000E+00 -0.61549693429E+03  0.61549693429E+03  0.00000000000E+00 0.  1.
         23    2    1    2    0    0  0.22388262869E+03  0.42403997956E+03  0.76514823032E+03  0.90769826731E+03  0.92363382470E+02 0.  0.
         11    1    3    3    0    0  0.11862368647E+03  0.17608594234E+03  0.41257082960E+03  0.46399625808E+03  0.00000000000E+00 0. -1.
        -11    1    3    3    0    0  0.10525894221E+03  0.24795403722E+03  0.35257740073E+03  0.44370200923E+03  0.00000000000E+00 0.  1.
         22    1    1    2    0    0 -0.22388262869E+03 -0.42403997956E+03 -0.43859711045E+03  0.64984672115E+03  0.00000000000E+00 0.  1.
<mgrwt>
<rscale>  0 0.15229283E+04</rscale>
<asrwt>0</asrwt>
<pdfrwt beam="1">  1        2 0.14493047E+00 0.15229283E+04</pdfrwt>
<pdfrwt beam="2">  1       -2 0.94691836E-01 0.15229283E+04</pdfrwt>
<totfact> 0.24897892E+01</totfact>
</mgrwt>
</event>
<event>
 6    1  0.2238133E-007  0.2279732E+04  0.7818608E-02  0.8485956E-01
          2   -1    0    0  501    0  0.00000000000E+00  0.00000000000E+00  0.31957428746E+04  0.31957428746E+04  0.00000000000E+00 0. -1.
         -2   -1    0    0    0  501 -0.00000000000E+00 -0.00000000000E+00 -0.40657042285E+03  0.40657042285E+03  0.00000000000E+00 0.  1.
         23    2    1    2    0    0 -0.19335688092E+03  0.68974722019E+03 -0.62133884295E+00  0.72202034270E+03  0.90415032207E+02 0.  0.
         13    1    3    3    0    0 -0.83520702313E+02  0.26079576318E+03 -0.43031298327E+02  0.27720359024E+03  0.00000000000E+00 0. -1.
        -13    1    3    3    0    0 -0.10983617861E+03  0.42895145701E+03  0.42409959484E+02  0.44481675246E+03  0.00000000000E+00 0.  1.
         22    1    1    2    0    0  0.19335688092E+03 -0.68974722019E+03  0.27897937906E+04  0.28802929548E+04  0.00000000000E+00 0. -1.
<mgrwt>
<rscale>  0 0.22797320E+04</rscale>
<asrwt>0</asrwt>
<pdfrwt beam="1">  1        2 0.49165273E+00 0.22797320E+04</pdfrwt>
<pdfrwt beam="2">  1       -2 0.62549298E-01 0.22797320E+04</pdfrwt>
<totfact> 0.28138826E+00</totfact>
</mgrwt>
</event>
<event>
 6    1  0.2238133E-007  0.2534823E+04  0.7818608E-02  0.8390684E-01
         -2   -1    0    0    0  501 -0.00000000000E+00  0.00000000000E+00  0.13878143377E+04  0.13878143377E+04  0.00000000000E+00 0.  1.
          2   -1    0    0  501    0  0.00000000000E+00 -0.00000000000E+00 -0.11574545629E+04  0.11574545629E+04  0.00000000000E+00 0. -1.
         23    2    1    2    0    0  0.75156664386E+03 -0.93579708530E+03 -0.28694291999E+03  0.12382988615E+04  0.10236809061E+03 0.  0.
         11    1    3    3    0    0  0.64203857714E+03 -0.78774309726E+03 -0.20493965902E+03  0.10367029399E+04  0.00000000000E+00 0.  1.
        -11    1    3    3    0    0  0.10952806672E+03 -0.14805398804E+03 -0.82003260968E+02  0.20159592154E+03  0.00000000000E+00 0. -1.
         22    1    1    2    0    0 -0.75156664386E+03  0.93579708530E+03  0.51730269477E+03  0.13069700391E+04  0.00000000000E+00 0.  1.
<mgrwt>
<rscale>  0 0.25348231E+04</rscale>
<asrwt>0</asrwt>
<pdfrwt beam="1">  1        2 0.17806993E+00 0.25348231E+04</pdfrwt>
<pdfrwt beam="2">  1       -2 0.21350990E+00 0.25348231E+04</pdfrwt>
<totfact> 0.19423833E+00</totfact>
</mgrwt>
</event>
<event>
 6    1  0.2238133E-007  0.7706786E+03  0.7818608E-02  0.9603456E-01
          2   -1    0    0  501    0  0.00000000000E+00  0.00000000000E+00  0.38888101625E+03  0.38888101625E+03  0.00000000000E+00 0. -1.
         -2   -1    0    0    0  501 -0.00000000000E+00 -0.00000000000E+00 -0.38182981347E+03  0.38182981347E+03  0.00000000000E+00 0.  1.
         23    2    1    2    0    0  0.22182808886E+03 -0.22432863106E+03 -0.20781723444E+03  0.38900481584E+03  0.92766955854E+02 0.  0.
         11    1    3    3    0    0  0.62729297467E+02 -0.82333338436E+02 -0.11975691363E+03  0.15828917127E+03  0.00000000000E+00 0.  1.
        -11    1    3    3    0    0  0.15909879139E+03 -0.14199529263E+03 -0.88060320807E+02  0.23071564457E+03  0.00000000000E+00 0. -1.
         22    1    1    2    0    0 -0.22182808886E+03  0.22432863106E+03  0.21486843721E+03  0.38170601388E+03  0.00000000000E+00 0.  1.
<mgrwt>
<rscale>  0 0.77067857E+03</rscale>
<asrwt>0</asrwt>
<pdfrwt beam="1">  1        2 0.59827849E-01 0.77067857E+03</pdfrwt>
<pdfrwt beam="2">  1       -2 0.58743048E-01 0.77067857E+03</pdfrwt>
<totfact> 0.22420263E+02</totfact>
</mgrwt>
</event>
<event>
 6    1  0.2238133E-007  0.3608955E+04  0.7818608E-02  0.8088443E-01
          2   -1    0    0  501    0  0.00000000000E+00  0.00000000000E+00  0.31709946369E+04  0.31709946369E+04  0.00000000000E+00 0. -1.
         -2   -1    0    0    0  501 -0.00000000000E+00 -0.00000000000E+00 -0.10268511215E+04  0.10268511215E+04  0.00000000000E+00 0.  1.
         23    2    1    2    0    0  0.94341195986E+03 -0.96461218347E+03 -0.31910887887E+03  0.13892669099E+04  0.87916322255E+02 0.  0.
         13    1    3    3    0    0  0.40459402764E+03 -0.43492637364E+03 -0.18269189124E+03  0.62147695436E+03  0.00000000000E+00 0. -1.
        -13    1    3    3    0    0  0.53881793223E+03 -0.52968580983E+03 -0.13641698763E+03  0.76778995549E+03  0.00000000000E+00 0.  1.
         22    1    1    2    0    0 -0.94341195986E+03  0.96461218347E+03  0.24632523943E+04  0.28085788485E+04  0.00000000000E+00 0. -1.
<mgrwt>
<rscale>  0 0.36089552E+04</rscale>
<asrwt>0</asrwt>
<pdfrwt beam="1">  1        2 0.48784532E+00 0.36089552E+04</pdfrwt>
<pdfrwt beam="2">  1       -2 0.15797710E+00 0.36089552E+04</pdfrwt>
<totfact> 0.28735264E-01</totfact>
</mgrwt>
</event>
<event>
 6    1  0.2238133E-007  0.1518144E+04  0.7818608E-02  0.8872476E-01
          2   -1    0    0  501    0  0.00000000000E+00  0.00000000000E+00  0.19307710290E+04  0.19307710290E+04  0.00000000000E+00 0. -1.
         -2   -1    0    0    0  501 -0.00000000000E+00 -0.00000000000E+00 -0.29842510577E+03  0.29842510577E+03  0.00000000000E+00 0.  1.
         23    2    1    2    0    0  0.74300468495E+03  0.14100561655E+02  0.61244483172E+03  0.96727180100E+03  0.90946563545E+02 0.  0.
         11    1    3    3    0    0  0.49269420986E+03  0.82933492531E+01  0.46019718146E+03  0.67423868911E+03  0.00000000000E+00 0. -1.
        -11    1    3    3    0    0  0.25031047509E+03  0.58072124019E+01  0.15224765026E+03  0.29303311189E+03  0.00000000000E+00 0.  1.
         22    1    1    2    0    0 -0.74300468495E+03 -0.14100561655E+02  0.10199010915E+04  0.12619243338E+04  0.00000000000E+00 0. -1.
<mgrwt>
<rscale>  0 0.15181443E+04</rscale>
<asrwt>0</asrwt>
<pdfrwt beam="1">  1        2 0.29704169E+00 0.15181443E+04</pdfrwt>
<pdfrwt beam="2">  1       -2 0.45911556E-01 0.15181443E+04</pdfrwt>
<totfact> 0.31693028E+01</totfact>
</mgrwt>
</event>
<event>
 6    1  0.2238133E-007  0.1649403E+04  0.7818608E-02  0.8790760E-01
         -2   -1    0    0    0  501 -0.00000000000E+00  0.00000000000E+00  0.62172356663E+03  0.62172356663E+03  0.00000000000E+00 0.  1.
          2   -1    0    0  501    0  0.00000000000E+00 -0.00000000000E+00 -0.10939467574E+04  0.10939467574E+04  0.00000000000E+00 0. -1.
         23    2    1    2    0    0  0.16909875050E+01  0.69474104087E+03  0.22049733501E+03  0.73458434402E+03  0.91253002231E+02 0.  0.
         11    1    3    3    0    0  0.38507062370E+02  0.37695157847E+03  0.92699243885E+02  0.39008772883E+03  0.00000000000E+00 0.  1.
        -11    1    3    3    0    0 -0.36816074866E+02  0.31778946240E+03  0.12779809113E+03  0.34449661519E+03  0.00000000000E+00 0. -1.
         22    1    1    2    0    0 -0.16909875050E+01 -0.69474104087E+03 -0.69272052575E+03  0.98108597998E+03  0.00000000000E+00 0. -1.
<mgrwt>
<rscale>  0 0.16494029E+04</rscale>
<asrwt>0</asrwt>
<pdfrwt beam="1">  1        2 0.16829950E+00 0.16494029E+04</pdfrwt>
<pdfrwt beam="2">  1       -2 0.95649781E-01 0.16494029E+04</pdfrwt>
<totfact> 0.19259165E+01</totfact>
</mgrwt>
</event>
<event>
 6    1  0.2238133E-007  0.7703285E+03  0.7818608E-02  0.9603987E-01
          2   -1    0    0  501    0  0.00000000000E+00  0.00000000000E+00  0.23040045218E+04  0.23040045218E+04  0.00000000000E+00 0. -1.
         -2   -1    0    0    0  501 -0.00000000000E+00 -0.00000000000E+00 -0.64388546078E+02  0.64388546078E+02  0.00000000000E+00 0.  1.
         23    2    1    2    0    0  0.44128984866E+02  0.30196992994E+03  0.18322835881E+04  0.18594206915E+04  0.83958054772E+02 0.  0.
         13    1    3    3    0    0 -0.22552591030E+01  0.22869613743E+03  0.12568889071E+04  0.12775275865E+04  0.00000000000E+00 0. -1.
        -13    1    3    3    0    0  0.46384243969E+02  0.73273792505E+02  0.57539468098E+03  0.58189310501E+03  0.00000000000E+00 0.  1.
         22    1    1    2    0    0 -0.44128984866E+02 -0.30196992994E+03  0.40733238766E+03  0.50897237639E+03  0.00000000000E+00 0.  1.
<mgrwt>
<rscale>  0 0.77032850E+03</rscale>
<asrwt>0</asrwt>
<pdfrwt beam="1">  1        2 0.35446217E+00 0.77032850E+03</pdfrwt>
<pdfrwt beam="2">  1       -2 0.99059319E-02 0.77032850E+03</pdfrwt>
<totfact> 0.32383839E+02</totfact>
</mgrwt>
</event>
<event>
 6    1  0.2238133E-007  0.1881335E+04  0.7818608E-02  0.8664203E-01
          2   -1    0    0  501    0  0.00000000000E+00  0.00000000000E+00  0.10100690729E+04  0.10100690729E+04  0.00000000000E+00 0. -1.
         -2   -1    0    0    0  501 -0.00000000000E+00 -0.00000000000E+00 -0.87603474803E+03  0.87603474803E+03  0.00000000000E+00 0.  1.
         23    2    1    2    0    0 -0.80565127045E+03 -0.15983183199E+03 -0.38818732718E+03  0.91279213498E+03  0.88768781680E+02 0.  0.
         13    1    3    3    0    0 -0.61082347873E+03 -0.90239395318E+02 -0.26422512936E+03  0.67161252938E+03  0.00000000000E+00 0. -1.
        -13    1    3    3    0    0 -0.19482779173E+03 -0.69592436675E+02 -0.12396219782E+03  0.24117960561E+03  0.00000000000E+00 0.  1.
         22    1    1    2    0    0  0.80565127045E+03  0.15983183199E+03  0.52222165203E+03  0.97331168592E+03  0.00000000000E+00 0. -1.
<mgrwt>
<rscale>  0 0.18813353E+04</rscale>
<asrwt>0</asrwt>
<pdfrwt beam="1">  1        2 0.15539524E+00 0.18813353E+04</pdfrwt>
<pdfrwt beam="2">  1       -2 0.13477458E+00 0.18813353E+04</pdfrwt>
<totfact> 0.92221691E+00</totfact>
</mgrwt>
</event>
<event>
 6    1  0.2238133E-007  0.2203950E+04  0.7818608E-02  0.8516786E-01
         -2   -1    0    0    0  501 -0.00000000000E+00  0.00000000000E+00  0.34002514787E+03  0.34002514787E+03  0.00000000000E+00 0.  1.
          2   -1    0    0  501    0  0.00000000000E+00 -0.00000000000E+00 -0.35713508857E+04  0.35713508857E+04  0.00000000000E+00 0. -1.
         23    2    1    2    0    0 -0.59649377414E+03  0.39888748866E+03 -0.13857470493E+03  0.73647052273E+03  0.90938610083E+02 0.  0.
         11    1    3    3    0    0 -0.41502101395E+03  0.29950027948E+03 -0.60683273590E+02  0.51538851280E+03  0.00000000000E+00 0.  1.
        -11    1    3    3    0    0 -0.18147276019E+03  0.99387209184E+02 -0.77891431341E+02  0.22108200993E+03  0.00000000000E+00 0. -1.
         22    1    1    2    0    0  0.59649377414E+03 -0.39888748866E+03 -0.30927510329E+04  0.31749055108E+04  0.00000000000E+00 0. -1.
<mgrwt>
<rscale>  0 0.22039502E+04</rscale>
<asrwt>0</asrwt>
<pdfrwt beam="1">  1        2 0.54943859E+00 0.22039502E+04</pdfrwt>
<pdfrwt beam="2">  1       -2 0.52311561E-01 0.22039502E+04</pdfrwt>
<totfact> 0.22900692E+00</totfact>
</mgrwt>
</event>
<event>
 6    1  0.2238133E-007  0.4092422E+04  0.7818608E-02  0.7986157E-01
         -2   -1    0    0    0  501 -0.00000000000E+00  0.00000000000E+00  0.13493151123E+04  0.13493151123E+04  0.00000000000E+00 0.  1.
          2   -1    0    0  501    0  0.00000000000E+00 -0.00000000000E+00 -0.31030407436E+04  0.31030407436E+04  0.00000000000E+00 0. -1.
         23    2    1    2    0    0  0.76815705378E+03  0.13887676814E+04 -0.22807635182E+04  0.27800790049E+04  0.90642789154E+02 0.  0.
         13    1    3    3    0    0  0.36324132466E+03  0.74936271719E+03 -0.11840243218E+04  0.14475504608E+04  0.00000000000E+00 0. -1.
        -13    1    3    3    0    0  0.40491572912E+03  0.63940496425E+03 -0.10967391963E+04  0.13325285441E+04  0.00000000000E+00 0.  1.
         22    1    1    2    0    0 -0.76815705378E+03 -0.13887676814E+04  0.52703788684E+03  0.16722768510E+04  0.00000000000E+00 0.  1.
<mgrwt>
<rscale>  0 0.40924222E+04</rscale>
<asrwt>0</asrwt>
<pdfrwt beam="1">  1        2 0.47739087E+00 0.40924222E+04</pdfrwt>
<pdfrwt beam="2">  1       -2 0.20758694E+00 0.40924222E+04</pdfrwt>
<totfact> 0.13911971E-01</totfact>
</mgrwt>
</event>
<event>
 6    1  0.2238133E-007  0.3130975E+04  0.7818608E-02  0.8207288E-01
          2   -1    0    0  501    0  0.00000000000E+00  0.00000000000E+00  0.10656766460E+04  0.10656766460E+04  0.00000000000E+00 0. -1.
         -2   -1    0    0    0  501 -0.00000000000E+00 -0.00000000000E+00 -0.22997129517E+04  0.22997129517E+04  0.00000000000E+00 0.  1.
         23    2    1    2    0    0 -0.64050725347E+03 -0.11325876027E+04 -0.15505685336E+04  0.20262865879E+04  0.92576126856E+02 0.  0.
         13    1    3    3    0    0 -0.53473955879E+03 -0.98562170676E+03 -0.12940044421E+04  0.17122628422E+04  0.00000000000E+00 0.  1.
        -13    1    3    3    0    0 -0.10576769468E+03 -0.14696589598E+03 -0.25656409150E+03  0.31402374571E+03  0.00000000000E+00 0. -1.
         22    1    1    2    0    0  0.64050725347E+03  0.11325876027E+04  0.31653222796E+03  0.13391030098E+04  0.00000000000E+00 0. -1.
<mgrwt>
<rscale>  0 0.31309745E+04</rscale>
<asrwt>0</asrwt>
<pdfrwt beam="1">  1        2 0.16395025E+00 0.31309745E+04</pdfrwt>
<pdfrwt beam="2">  1       -2 0.35380199E+00 0.31309745E+04</pdfrwt>
<totfact> 0.28517681E-01</totfact>
</mgrwt>
</event>
<event>
 6    1  0.2238133E-007  0.1889716E+04  0.7818608E-02  0.8659992E-01
         -2   -1    0    0    0  501 -0.00000000000E+00  0.00000000000E+00  0.46102261318E+03  0.46102261318E+03  0.00000000000E+00 0.  1.
          2   -1    0    0  501    0  0.00000000000E+00 -0.00000000000E+00 -0.19364701232E+04  0.19364701232E+04  0.00000000000E+00 0. -1.
         23    2    1    2    0    0  0.76547012208E+03  0.41098884130E+03 -0.12027435234E+04  0.14868754733E+04  0.96697231423E+02 0.  0.
         11    1    3    3    0    0  0.30806601175E+03  0.11362232212E+03 -0.46984715936E+03  0.57321117648E+03  0.00000000000E+00 0. -1.
        -11    1    3    3    0    0  0.45740411032E+03  0.29736651917E+03 -0.73289636404E+03  0.91366429682E+03  0.00000000000E+00 0.  1.
         22    1    1    2    0    0 -0.76547012208E+03 -0.41098884130E+03 -0.27270398658E+03  0.91061726305E+03  0.00000000000E+00 0.  1.
<mgrwt>
<rscale>  0 0.18897159E+04</rscale>
<asrwt>0</asrwt>
<pdfrwt beam="1">  1        2 0.29791848E+00 0.18897159E+04</pdfrwt>
<pdfrwt beam="2">  1       -2 0.70926555E-01 0.18897159E+04</pdfrwt>
<totfact> 0.12268624E+01</totfact>
</mgrwt>
</event>
<event>
 6    1  0.2238133E-007  0.2275805E+04  0.7818608E-02  0.8487522E-01
          1   -1    0    0  501    0  0.00000000000E+00  0.00000000000E+00  0.36154695413E+04  0.36154695413E+04  0.00000000000E+00 0. -1.
         -1   -1    0    0    0  501 -0.00000000000E+00 -0.00000000000E+00 -0.35813380379E+03  0.35813380379E+03  0.00000000000E+00 0.  1.
         23    2    1    2    0    0 -0.58614463467E+03 -0.89740402225E+03  0.22889482615E+04  0.25290709586E+04  0.89533557713E+02 0.  0.
         11    1    3    3    0    0 -0.36300546814E+03 -0.49322477886E+03  0.13709082634E+04  0.15014769792E+04  0.00000000000E+00 0. -1.
        -11    1    3    3    0    0 -0.22313916653E+03 -0.40417924340E+03  0.91803999809E+03  0.10275939794E+04  0.00000000000E+00 0.  1.
         22    1    1    2    0    0  0.58614463467E+03  0.89740402225E+03  0.96838747601E+03  0.14445323865E+04  0.00000000000E+00 0. -1.
<mgrwt>
<rscale>  0 0.22758048E+04</rscale>
<asrwt>0</asrwt>
<pdfrwt beam="1">  1        1 0.55622606E+00 0.22758048E+04</pdfrwt>
<pdfrwt beam="2">  1       -1 0.55097511E-01 0.22758048E+04</pdfrwt>
<totfact> 0.61125965E-01</totfact>
</mgrwt>
</event>
<event>
 6    1  0.2238133E-007  0.6005240E+03  0.7818608E-02  0.9904320E-01
         -2   -1    0    0    0  501 -0.00000000000E+00  0.00000000000E+00  0.69625807728E+02  0.69625807728E+02  0.00000000000E+00 0.  1.
          2   -1    0    0  501    0  0.00000000000E+00 -0.00000000000E+00 -0.12948828845E+04  0.12948828845E+04  0.00000000000E+00 0. -1.
         23    2    1    2    0    0  0.44679777211E+02  0.19389974547E+03 -0.11171711189E+04  0.11380667172E+04  0.86782199142E+02 0.  0.
         11    1    3    3    0    0 -0.17257598273E+02  0.10878726007E+03 -0.50060797966E+03  0.51258252209E+03  0.00000000000E+00 0.  1.
        -11    1    3    3    0    0  0.61937375484E+02  0.85112485397E+02 -0.61656313921E+03  0.62548419507E+03  0.00000000000E+00 0. -1.
         22    1    1    2    0    0 -0.44679777211E+02 -0.19389974547E+03 -0.10808595793E+03  0.22644197510E+03  0.00000000000E+00 0.  1.
<mgrwt>
<rscale>  0 0.60052399E+03</rscale>
<asrwt>0</asrwt>
<pdfrwt beam="1">  1        2 0.19921273E+00 0.60052399E+03</pdfrwt>
<pdfrwt beam="2">  1       -2 0.10711664E-01 0.60052399E+03</pdfrwt>
<totfact> 0.10353162E+03</totfact>
</mgrwt>
</event>
<event>
 6    1  0.2238133E-007  0.2430963E+04  0.7818608E-02  0.8428002E-01
          2   -1    0    0  501    0  0.00000000000E+00  0.00000000000E+00  0.87321948703E+03  0.87321948703E+03  0.00000000000E+00 0. -1.
         -2   -1    0    0    0  501 -0.00000000000E+00 -0.00000000000E+00 -0.16918949912E+04  0.16918949912E+04  0.00000000000E+00 0.  1.
         23    2    1    2    0    0 -0.68905620027E+03 -0.79792954985E+03 -0.10444875148E+04  0.14869303206E+04  0.92290823153E+02 0.  0.
         11    1    3    3    0    0 -0.51521134239E+03 -0.64321293222E+03 -0.84613463903E+03  0.11811475060E+04  0.00000000000E+00 0.  1.
        -11    1    3    3    0    0 -0.17384485788E+03 -0.15471661763E+03 -0.19835287574E+03  0.30578281459E+03  0.00000000000E+00 0. -1.
         22    1    1    2    0    0  0.68905620027E+03  0.79792954985E+03  0.22581201061E+03  0.10781841576E+04  0.00000000000E+00 0.  1.
<mgrwt>
<rscale>  0 0.24309633E+04</rscale>
<asrwt>0</asrwt>
<pdfrwt beam="1">  1        2 0.13434146E+00 0.24309633E+04</pdfrwt>
<pdfrwt beam="2">  1       -2 0.26029154E+00 0.24309633E+04</pdfrwt>
<totfact> 0.15240673E+00</totfact>
</mgrwt>
</event>
<event>
 6    1  0.2238133E-007  0.1287062E+04  0.7818608E-02  0.9039888E-01
          1   -1    0    0  501    0  0.00000000000E+00  0.00000000000E+00  0.79980355582E+03  0.79980355582E+03  0.00000000000E+00 0. -1.
         -1   -1    0    0    0  501 -0.00000000000E+00 -0.00000000000E+00 -0.51779249301E+03  0.51779249301E+03  0.00000000000E+00 0.  1.
         23    2    1    2    0    0  0.31536898334E+03 -0.33745113751E+03  0.59618171924E+03  0.75899595286E+03  0.85506422239E+02 0.  0.
         13    1    3    3    0    0  0.35320393093E+02 -0.12866711570E+02  0.26330871672E+02  0.45895503460E+02  0.00000000000E+00 0.  1.
        -13    1    3    3    0    0  0.28004859025E+03 -0.32458442594E+03  0.56985084757E+03  0.71310044940E+03  0.00000000000E+00 0. -1.
         22    1    1    2    0    0 -0.31536898334E+03  0.33745113751E+03 -0.31417065643E+03  0.55860009597E+03  0.00000000000E+00 0.  1.
<mgrwt>
<rscale>  0 0.12870622E+04</rscale>
<asrwt>0</asrwt>
<pdfrwt beam="1">  1        1 0.12304670E+00 0.12870622E+04</pdfrwt>
<pdfrwt beam="2">  1       -1 0.79660384E-01 0.12870622E+04</pdfrwt>
<totfact> 0.34254869E+01</totfact>
</mgrwt>
</event>
<event>
 6    1  0.2238133E-007  0.1202590E+04  0.7818608E-02  0.9110592E-01
         -2   -1    0    0    0  501 -0.00000000000E+00  0.00000000000E+00  0.27533488509E+04  0.27533488509E+04  0.00000000000E+00 0.  1.
          2   -1    0    0  501    0  0.00000000000E+00 -0.00000000000E+00 -0.13131493139E+03  0.13131493139E+03  0.00000000000E+00 0. -1.
         23    2    1    2    0    0 -0.17571695171E+03 -0.35640814346E+03  0.24719955561E+03  0.47681381442E+03  0.91326784064E+02 0.  0.
         13    1    3    3    0    0 -0.51648405814E+02 -0.38221619748E+02  0.57059585423E+02  0.85931637526E+02  0.00000000000E+00 0. -1.
        -13    1    3    3    0    0 -0.12406854590E+03 -0.31818652371E+03  0.19013997019E+03  0.39088217690E+03  0.00000000000E+00 0.  1.
         22    1    1    2    0    0  0.17571695171E+03  0.35640814346E+03  0.23748343639E+04  0.24078499678E+04  0.00000000000E+00 0.  1.
<mgrwt>
<rscale>  0 0.12025902E+04</rscale>
<asrwt>0</asrwt>
<pdfrwt beam="1">  1        2 0.20202299E-01 0.12025902E+04</pdfrwt>
<pdfrwt beam="2">  1       -2 0.42359209E+00 0.12025902E+04</pdfrwt>
<totfact> 0.14693444E+00</totfact>
</mgrwt>
</event>
<event>
 6    1  0.2238133E-007  0.3020413E+04  0.7818608E-02  0.8237926E-01
         -2   -1    0    0    0  501 -0.00000000000E+00  0.00000000000E+00  0.23737596371E+04  0.23737596371E+04  0.00000000000E+00 0.  1.
          2   -1    0    0  501    0  0.00000000000E+00 -0.00000000000E+00 -0.96080648682E+03  0.96080648682E+03  0.00000000000E+00 0. -1.
         23    2    1    2    0    0 -0.13004253605E+03  0.12690006366E+04 -0.18252827355E+03  0.12918143890E+04  0.90521645021E+02 0.  0.
         11    1    3    3    0    0 -0.12634255520E+03  0.80656913272E+03 -0.11509905160E+03  0.82447801595E+03  0.00000000000E+00 0. -1.
        -11    1    3    3    0    0 -0.36999808481E+01  0.46243150384E+03 -0.67429221952E+02  0.46733637305E+03  0.00000000000E+00 0.  1.
         22    1    1    2    0    0  0.13004253605E+03 -0.12690006366E+04  0.15954814238E+04  0.20427517349E+04  0.00000000000E+00 0.  1.
<mgrwt>
<rscale>  0 0.30204130E+04</rscale>
<asrwt>0</asrwt>
<pdfrwt beam="1">  1        2 0.14781638E+00 0.30204130E+04</pdfrwt>
<pdfrwt beam="2">  1       -2 0.36519379E+00 0.30204130E+04</pdfrwt>
<totfact> 0.28432025E-01</totfact>
</mgrwt>
</event>
<event>
 6    1  0.2238133E-007  0.4883507E+04  0.7818608E-02  0.7846733E-01
          1   -1    0    0  501    0  0.00000000000E+00  0.00000000000E+00  0.38202958785E+04  0.38202958785E+04  0.00000000000E+00 0. -1.
         -1   -1    0    0    0  501 -0.00000000000E+00 -0.00000000000E+00 -0.15606542062E+04  0.15606542062E+04  0.00000000000E+00 0.  1.
         23    2    1    2    0    0  0.22994994633E+03  0.80098650886E+03  0.36581683825E+04  0.37529656485E+04  0.89993768691E+02 0.  0.
         11    1    3    3    0    0  0.38216768297E+02  0.13892700593E+03  0.79912914420E+03  0.81201516209E+03  0.00000000000E+00 0. -1.
        -11    1    3    3    0    0  0.19173317803E+03  0.66205950293E+03  0.28590392383E+04  0.29409504864E+04  0.00000000000E+00 0.  1.
         22    1    1    2    0    0 -0.22994994633E+03 -0.80098650886E+03 -0.13985267103E+04  0.16279844362E+04  0.00000000000E+00 0.  1.
<mgrwt>
<rscale>  0 0.48835073E+04</rscale>
<asrwt>0</asrwt>
<pdfrwt beam="1">  1        1 0.58773782E+00 0.48835073E+04</pdfrwt>
<pdfrwt beam="2">  1       -1 0.24010065E+00 0.48835073E+04</pdfrwt>
<totfact> 0.80626376E-03</totfact>
</mgrwt>
</event>
<event>
 6    1  0.2238133E-007  0.1609987E+04  0.7818608E-02  0.8814436E-01
         -2   -1    0    0    0  501 -0.00000000000E+00  0.00000000000E+00  0.19319311986E+03  0.19319311986E+03  0.00000000000E+00 0.  1.
          2   -1    0    0  501    0  0.00000000000E+00 -0.00000000000E+00 -0.33542336722E+04  0.33542336722E+04  0.00000000000E+00 0. -1.
         23    2    1    2    0    0 -0.33684699635E+03  0.24374533959E+03 -0.30977421326E+04  0.31268505451E+04  0.91160966718E+02 0.  0.
         11    1    3    3    0    0 -0.19930406514E+03  0.17868845600E+03 -0.17152710369E+04  0.17360317983E+04  0.00000000000E+00 0.  1.
        -11    1    3    3    0    0 -0.13754293121E+03  0.65056883597E+02 -0.13824710957E+04  0.13908187468E+04  0.00000000000E+00 0. -1.
         22    1    1    2    0    0  0.33684699635E+03 -0.24374533959E+03 -0.63298419692E+02  0.42057624691E+03  0.00000000000E+00 0.  1.
<mgrwt>
<rscale>  0 0.16099874E+04</rscale>
<asrwt>0</asrwt>
<pdfrwt beam="1">  1        2 0.51603596E+00 0.16099874E+04</pdfrwt>
<pdfrwt beam="2">  1       -2 0.29722018E-01 0.16099874E+04</pdfrwt>
<totfact> 0.10340481E+01</totfact>
</mgrwt>
</event>
<event>
 6    1  0.2238133E-007  0.4180482E+04  0.7818608E-02  0.7969095E-01
          2   -1    0    0  501    0  0.00000000000E+00  0.00000000000E+00  0.47976132039E+04  0.47976132039E+04  0.00000000000E+00 0. -1.
         -2   -1    0    0    0  501 -0.00000000000E+00 -0.00000000000E+00 -0.91068353948E+03  0.91068353948E+03  0.00000000000E+00 0.  1.
         23    2    1    2    0    0 -0.14706281736E+04  0.13312905205E+04  0.28396729250E+04  0.34651230200E+04  0.90849042154E+02 0.  0.
         11    1    3    3    0    0 -0.66979232798E+03  0.66180547115E+03  0.13801751347E+04  0.16707757620E+04  0.00000000000E+00 0. -1.
        -11    1    3    3    0    0 -0.80083584561E+03  0.66948504931E+03  0.14594977902E+04  0.17943472581E+04  0.00000000000E+00 0.  1.
         22    1    1    2    0    0  0.14706281736E+04 -0.13312905205E+04  0.10472567395E+04  0.22431737234E+04  0.00000000000E+00 0.  1.
<mgrwt>
<rscale>  0 0.41804820E+04</rscale>
<asrwt>0</asrwt>
<pdfrwt beam="1">  1        2 0.73809432E+00 0.41804820E+04</pdfrwt>
<pdfrwt beam="2">  1       -2 0.14010516E+00 0.41804820E+04</pdfrwt>
<totfact> 0.16515462E-02</totfact>
</mgrwt>
</event>
<event>
 6    1  0.2238133E-007  0.2850171E+04  0.7818608E-02  0.8287859E-01
          2   -1    0    0  501    0  0.00000000000E+00  0.00000000000E+00  0.19348524673E+04  0.19348524673E+04  0.00000000000E+00 0. -1.
         -2   -1    0    0    0  501 -0.00000000000E+00 -0.00000000000E+00 -0.10496246160E+04  0.10496246160E+04  0.00000000000E+00 0.  1.
         23    2    1    2    0    0  0.10983194977E+03 -0.16777594234E+03  0.19189515696E+04  0.19314829950E+04  0.89663870150E+02 0.  0.
         11    1    3    3    0    0 -0.12015964165E+02 -0.18717335010E+01  0.17575484185E+03  0.17617505844E+03  0.00000000000E+00 0. -1.
        -11    1    3    3    0    0  0.12184791393E+03 -0.16590420884E+03  0.17431967277E+04  0.17553079366E+04  0.00000000000E+00 0.  1.
         22    1    1    2    0    0 -0.10983194977E+03  0.16777594234E+03 -0.10337237183E+04  0.10529940882E+04  0.00000000000E+00 0.  1.
<mgrwt>
<rscale>  0 0.28501711E+04</rscale>
<asrwt>0</asrwt>
<pdfrwt beam="1">  1        2 0.29766961E+00 0.28501711E+04</pdfrwt>
<pdfrwt beam="2">  1       -2 0.16148071E+00 0.28501711E+04</pdfrwt>
<totfact> 0.15460832E+00</totfact>
</mgrwt>
</event>
<event>
 6    1  0.2238133E-007  0.1790061E+04  0.7818608E-02  0.8711603E-01
         -2   -1    0    0    0  501 -0.00000000000E+00  0.00000000000E+00  0.40450119523E+03  0.40450119523E+03  0.00000000000E+00 0.  1.
          2   -1    0    0  501    0  0.00000000000E+00 -0.00000000000E+00 -0.19804137481E+04  0.19804137481E+04  0.00000000000E+00 0. -1.
         23    2    1    2    0    0 -0.24195581163E+03 -0.43463870609E+03 -0.17775523146E+04  0.18481542769E+04  0.92350313731E+02 0.  0.
         13    1    3    3    0    0 -0.24710307653E+02 -0.94395875700E+02 -0.25612291567E+03  0.27408051478E+03  0.00000000000E+00 0.  1.
        -13    1    3    3    0    0 -0.21724550397E+03 -0.34024283039E+03 -0.15214293989E+04  0.15740737621E+04  0.00000000000E+00 0. -1.
         22    1    1    2    0    0  0.24195581163E+03  0.43463870609E+03  0.20163976168E+03  0.53676066650E+03  0.00000000000E+00 0.  1.
<mgrwt>
<rscale>  0 0.17900611E+04</rscale>
<asrwt>0</asrwt>
<pdfrwt beam="1">  1        2 0.30467904E+00 0.17900611E+04</pdfrwt>
<pdfrwt beam="2">  1       -2 0.62230954E-01 0.17900611E+04</pdfrwt>
<totfact> 0.15512867E+01</totfact>
</mgrwt>
</event>
<event>
 6    1  0.2238133E-007  0.2023863E+04  0.7818608E-02  0.8595545E-01
         -1   -1    0    0    0  501 -0.00000000000E+00  0.00000000000E+00  0.31326480808E+03  0.31326480808E+03  0.00000000000E+00 0.  1.
          1   -1    0    0  501    0  0.00000000000E+00 -0.00000000000E+00 -0.32688155432E+04  0.32688155432E+04  0.00000000000E+00 0. -1.
         23    2    1    2    0    0  0.95317650582E+03  0.28333095171E+03 -0.11686067936E+04  0.15370887792E+04  0.90433389094E+02 0.  0.
         13    1    3    3    0    0  0.51881465010E+03  0.11566979250E+03 -0.66270273285E+03  0.84954285011E+03  0.00000000000E+00 0.  1.
        -13    1    3    3    0    0  0.43436185572E+03  0.16766115920E+03 -0.50590406071E+03  0.68754592912E+03  0.00000000000E+00 0. -1.
         22    1    1    2    0    0 -0.95317650582E+03 -0.28333095171E+03 -0.17869439415E+04  0.20449915720E+04  0.00000000000E+00 0. -1.
<mgrwt>
<rscale>  0 0.20238625E+04</rscale>
<asrwt>0</asrwt>
<pdfrwt beam="1">  1        1 0.50289469E+00 0.20238625E+04</pdfrwt>
<pdfrwt beam="2">  1       -1 0.48194587E-01 0.20238625E+04</pdfrwt>
<totfact> 0.15073646E+00</totfact>
</mgrwt>
</event>
<event>
 6    1  0.2238133E-007  0.4637511E+03  0.7818608E-02  0.1023699E+00
          2   -1    0    0  501    0  0.00000000000E+00  0.00000000000E+00  0.97117181159E+03  0.97117181159E+03  0.00000000000E+00 0. -1.
         -2   -1    0    0    0  501 -0.00000000000E+00 -0.00000000000E+00 -0.55362265730E+02  0.55362265730E+02  0.00000000000E+00 0.  1.
         23    2    1    2    0    0 -0.11788601625E+03 -0.17819848138E+02  0.89197464244E+03  0.90494969331E+03  0.95396671040E+02 0.  0.
         11    1    3    3    0    0 -0.27797223451E+02  0.25253884021E+02  0.46235813820E+03  0.46388090309E+03  0.00000000000E+00 0. -1.
        -11    1    3    3    0    0 -0.90088792799E+02 -0.43073732159E+02  0.42961650424E+03  0.44106879022E+03  0.00000000000E+00 0.  1.
         22    1    1    2    0    0  0.11788601625E+03  0.17819848138E+02  0.23834903422E+02  0.12158438401E+03  0.00000000000E+00 0.  1.
<mgrwt>
<rscale>  0 0.46375111E+03</rscale>
<asrwt>0</asrwt>
<pdfrwt beam="1">  1        2 0.14941104E+00 0.46375111E+03</pdfrwt>
<pdfrwt beam="2">  1       -2 0.85172723E-02 0.46375111E+03</pdfrwt>
<totfact> 0.23486112E+03</totfact>
</mgrwt>
</event>
<event>
 6    1  0.2238133E-007  0.2667350E+04  0.7818608E-02  0.8345677E-01
         -2   -1    0    0    0  501 -0.00000000000E+00  0.00000000000E+00  0.78535331930E+03  0.78535331930E+03  0.00000000000E+00 0.  1.
          2   -1    0    0  501    0  0.00000000000E+00 -0.00000000000E+00 -0.22648270593E+04  0.22648270593E+04  0.00000000000E+00 0. -1.
         23    2    1    2    0    0  0.88215558651E+02 -0.67008619313E+03 -0.20531687532E+04  0.21636571363E+04  0.95460899104E+02 0.  0.
         11    1    3    3    0    0  0.18929526187E+00 -0.24909110946E+03 -0.85946461247E+03  0.89483285408E+03  0.00000000000E+00 0.  1.
        -11    1    3    3    0    0  0.88026263389E+02 -0.42099508368E+03 -0.11937041407E+04  0.12688242822E+04  0.00000000000E+00 0. -1.
         22    1    1    2    0    0 -0.88215558651E+02  0.67008619313E+03  0.57369501319E+03  0.88652324232E+03  0.00000000000E+00 0.  1.
<mgrwt>
<rscale>  0 0.26673503E+04</rscale>
<asrwt>0</asrwt>
<pdfrwt beam="1">  1        2 0.34843493E+00 0.26673503E+04</pdfrwt>
<pdfrwt beam="2">  1       -2 0.12082359E+00 0.26673503E+04</pdfrwt>
<totfact> 0.21794166E+00</totfact>
</mgrwt>
</event>
<event>
 6    1  0.2238133E-007  0.3041529E+04  0.7818608E-02  0.8231971E-01
         -2   -1    0    0    0  501 -0.00000000000E+00  0.00000000000E+00  0.52334316757E+03  0.52334316757E+03  0.00000000000E+00 0.  1.
          2   -1    0    0  501    0  0.00000000000E+00 -0.00000000000E+00 -0.44191351179E+04  0.44191351179E+04  0.00000000000E+00 0. -1.
         23    2    1    2    0    0 -0.41476331812E+03 -0.25283366684E+03 -0.42890688047E+04  0.43174821597E+04  0.92668847157E+02 0.  0.
         11    1    3    3    0    0 -0.34898281345E+02 -0.33797511162E+02 -0.70848829801E+03  0.71015197684E+03  0.00000000000E+00 0.  1.
        -11    1    3    3    0    0 -0.37986503677E+03 -0.21903615568E+03 -0.35805805066E+04  0.36073301829E+04  0.00000000000E+00 0. -1.
         22    1    1    2    0    0  0.41476331812E+03  0.25283366684E+03  0.39327685429E+03  0.62499612580E+03  0.00000000000E+00 0.  1.
<mgrwt>
<rscale>  0 0.30415287E+04</rscale>
<asrwt>0</asrwt>
<pdfrwt beam="1">  1        2 0.67986693E+00 0.30415287E+04</pdfrwt>
<pdfrwt beam="2">  1       -2 0.80514335E-01 0.30415287E+04</pdfrwt>
<totfact> 0.17094501E-01</totfact>
</mgrwt>
</event>
<event>
 6    1  0.2238133E-007  0.7200500E+04  0.7818608E-02  0.7557104E-01
          2   -1    0    0  501    0  0.00000000000E+00  0.00000000000E+00  0.39611480333E+04  0.39611480333E+04  0.00000000000E+00 0. -1.
         -2   -1    0    0    0  501 -0.00000000000E+00 -0.00000000000E+00 -0.32722331928E+04  0.32722331928E+04  0.00000000000E+00 0.  1.
         23    2    1    2    0    0 -0.31000561025E+04  0.15622528589E+04 -0.61199710665E+03  0.35261782740E+04  0.91711108767E+02 0.  0.
         13    1    3    3    0    0 -0.22000317331E+04  0.11542320780E+04 -0.43009371231E+03  0.25213829375E+04  0.00000000000E+00 0. -1.
        -13    1    3    3    0    0 -0.90002436946E+03  0.40802078089E+03 -0.18190339434E+03  0.10047953364E+04  0.00000000000E+00 0.  1.
         22    1    1    2    0    0  0.31000561025E+04 -0.15622528589E+04  0.13009119471E+04  0.37072029521E+04  0.00000000000E+00 0. -1.
<mgrwt>
<rscale>  0 0.72005000E+04</rscale>
<asrwt>0</asrwt>
<pdfrwt beam="1">  1        2 0.60940739E+00 0.72005000E+04</pdfrwt>
<pdfrwt beam="2">  1       -2 0.50342049E+00 0.72005000E+04</pdfrwt>
<totfact> 0.35872834E-04</totfact>
</mgrwt>
</event>
<event>
 6    1  0.2370970E-007  0.2048330E+04  0.7818608E-02  0.8584352E-01
         -2   -1    0    0    0  501 -0.00000000000E+00  0.00000000000E+00  0.52764095588E+03  0.52764095588E+03  0.00000000000E+00 0.  1.
          2   -1    0    0  501    0  0.00000000000E+00 -0.00000000000E+00 -0.19879317668E+04  0.19879317668E+04  0.00000000000E+00 0. -1.
         23    2    1    2    0    0  0.42908642507E+03  0.92606395025E+03 -0.66221292328E+03  0.12199501253E+04  0.89681393069E+02 0.  0.
         13    1    3    3    0    0  0.12386828748E+03  0.36124583123E+03 -0.26845100668E+03  0.46680600490E+03  0.00000000000E+00 0.  1.
        -13    1    3    3    0    0  0.30521813759E+03  0.56481811902E+03 -0.39376191660E+03  0.75314412037E+03  0.00000000000E+00 0. -1.
         22    1    1    2    0    0 -0.42908642507E+03 -0.92606395025E+03 -0.79807788761E+03  0.12956225974E+04  0.00000000000E+00 0. -1.
<mgrwt>
<rscale>  0 0.20483303E+04</rscale>
<asrwt>0</asrwt>
<pdfrwt beam="1">  1        2 0.30583566E+00 0.20483303E+04</pdfrwt>
<pdfrwt beam="2">  1       -2 0.81175531E-01 0.20483303E+04</pdfrwt>
<totfact> 0.83983610E+00</totfact>
</mgrwt>
</event>
