<event>
 6    1  0.2236204E-005  0.2281672E+04  0.7818608E-02  0.8485183E-01
          1   -1    0    0  501    0  0.00000000000E+00  0.00000000000E+00  0.89217638542E+03  0.89217638542E+03  0.00000000000E+00 0. -1.
         -1   -1    0    0    0  501 -0.00000000000E+00 -0.00000000000E+00 -0.14587996553E+04  0.14587996553E+04  0.00000000000E+00 0.  1.
         23    2    1    2    0    0  0.40780102369E+03  0.86627114648E+03 -0.91985136013E+03  0.13304382129E+04  0.84923138565E+02 0.  0.
         13    1    3    3    0    0  0.92760616801E+02  0.13728577284E+03 -0.18665183316E+03  0.24958129392E+03  0.00000000000E+00 0.  1.
        -13    1    3    3    0    0  0.31504040689E+03  0.72898537364E+03 -0.73319952697E+03  0.10808569190E+04  0.00000000000E+00 0. -1.
         22    1    1    2    0    0 -0.40780102369E+03 -0.86627114648E+03  0.35322809028E+03  0.10205378278E+04  0.00000000000E+00 0. -1.
<mgrwt>
<rscale>  0 0.22816718E+04</rscale>
<asrwt>0</asrwt>
<pdfrwt beam="1">  1        1 0.13725791E+00 0.22816718E+04</pdfrwt>
<pdfrwt beam="2">  1       -1 0.22443072E+00 0.22816718E+04</pdfrwt>
<totfact> 0.17185689E+00</totfact>
</mgrwt>
</event>
<event>
 6    1  0.2236204E-005  0.1070520E+04  0.7818608E-02  0.9234411E-01
         -2   -1    0    0    0  501 -0.00000000000E+00  0.00000000000E+00  0.24054172376E+03  0.24054172376E+03  0.00000000000E+00 0.  1.
          2   -1    0    0  501    0  0.00000000000E+00 -0.00000000000E+00 -0.11910760823E+04  0.11910760823E+04  0.00000000000E+00 0. -1.
         23    2    1    2    0    0 -0.10871682110E+03  0.28467989809E+03  0.10348308488E+03  0.33443287972E+03  0.90964886720E+02 0.  0.
         11    1    3    3    0    0 -0.20585732287E+02  0.77288510406E+01 -0.76397416069E+01  0.23278169258E+02  0.00000000000E+00 0.  1.
        -11    1    3    3    0    0 -0.88131088815E+02  0.27695104705E+03  0.11112282649E+03  0.31115471046E+03  0.00000000000E+00 0. -1.
         22    1    1    2    0    0  0.10871682110E+03 -0.28467989809E+03 -0.10540174434E+04  0.10971849264E+04  0.00000000000E+00 0. -1.
<mgrwt>
<rscale>  0 0.10705204E+04</rscale>
<asrwt>0</asrwt>
<pdfrwt beam="1">  1        2 0.18324247E+00 0.10705204E+04</pdfrwt>
<pdfrwt beam="2">  1       -2 0.37006419E-01 0.10705204E+04</pdfrwt>
<totfact> 0.13110657E+02</totfact>
</mgrwt>
</event>
<event>
 6    1  0.2236204E-005  0.2923389E+04  0.7818608E-02  0.8265952E-01
         -2   -1    0    0    0  501 -0.00000000000E+00  0.00000000000E+00  0.12508522249E+04  0.12508522249E+04  0.00000000000E+00 0.  1.
          2   -1    0    0  501    0  0.00000000000E+00 -0.00000000000E+00 -0.17080765740E+04  0.17080765740E+04  0.00000000000E+00 0. -1.
         23    2    1    2    0    0  0.24305789936E+03 -0.82656927641E+03 -0.14221657640E+04  0.16653269107E+04  0.92001890197E+02 0.  0.
         13    1    3    3    0    0  0.10562423423E+03 -0.43357122355E+03 -0.65690301986E+03  0.79414234382E+03  0.00000000000E+00 0. -1.
        -13    1    3    3    0    0  0.13743366514E+03 -0.39299805286E+03 -0.76526274417E+03  0.87118456683E+03  0.00000000000E+00 0.  1.
         22    1    1    2    0    0 -0.24305789936E+03  0.82656927641E+03  0.96494141493E+03  0.12936018883E+04  0.00000000000E+00 0.  1.
<mgrwt>
<rscale>  0 0.29233894E+04</rscale>
<asrwt>0</asrwt>
<pdfrwt beam="1">  1        2 0.26278101E+00 0.29233894E+04</pdfrwt>
<pdfrwt beam="2">  1       -2 0.19243881E+00 0.29233894E+04</pdfrwt>
<totfact> 0.12482379E+00</totfact>
</mgrwt>
</event>
<event>
 6    1  0.2236204E-005  0.3287481E+04  0.7818608E-02  0.8166088E-01
          2   -1    0    0  501    0  0.00000000000E+00  0.00000000000E+00  0.19708767443E+04  0.19708767443E+04  0.00000000000E+00 0. -1.
         -2   -1    0    0    0  501 -0.00000000000E+00 -0.00000000000E+00 -0.13709036140E+04  0.13709036140E+04  0.00000000000E+00 0.  1.
         23    2    1    2    0    0 -0.25741336335E+03 -0.61368691102E+03 -0.12261850715E+04  0.13981427783E+04  0.91652248179E+02 0.  0.
         11    1    3    3    0    0 -0.17890479874E+03 -0.30982024311E+03 -0.63796751357E+03  0.73143561468E+03  0.00000000000E+00 0.  1.
        -11    1    3    3    0    0 -0.78508564612E+02 -0.30386666791E+03 -0.58821755797E+03  0.66670716367E+03  0.00000000000E+00 0. -1.
         22    1    1    2    0    0  0.25741336335E+03  0.61368691102E+03  0.18261582018E+04  0.19436375800E+04  0.00000000000E+00 0. -1.
<mgrwt>
<rscale>  0 0.32874805E+04</rscale>
<asrwt>0</asrwt>
<pdfrwt beam="1">  1        2 0.30321181E+00 0.32874805E+04</pdfrwt>
<pdfrwt beam="2">  1       -2 0.21090825E+00 0.32874805E+04</pdfrwt>
<totfact> 0.65511952E-01</totfact>
</mgrwt>
</event>
<event>
 6    1  0.2236204E-005  0.2598739E+04  0.7818608E-02  0.8368630E-01
         -2   -1    0    0    0  501 -0.00000000000E+00  0.00000000000E+00  0.40878568188E+03  0.40878568188E+03  0.00000000000E+00 0. -1.
          2   -1    0    0  501    0  0.00000000000E+00 -0.00000000000E+00 -0.41301865134E+04  0.41301865134E+04  0.00000000000E+00 0.  1.
         23    2    1    2    0    0  0.62271588638E+03  0.44447122123E+03 -0.36938974710E+04  0.37734095417E+04  0.91713146584E+02 0.  0.
         13    1    3    3    0    0  0.51231930142E+03  0.31969803847E+03 -0.29143470359E+04  0.29762554574E+04  0.00000000000E+00 0.  1.
        -13    1    3    3    0    0  0.11039658496E+03  0.12477318275E+03 -0.77955043517E+03  0.79715408428E+03  0.00000000000E+00 0. -1.
         22    1    1    2    0    0 -0.62271588638E+03 -0.44447122123E+03 -0.27503360438E+02  0.76556265353E+03  0.00000000000E+00 0. -1.
<mgrwt>
<rscale>  0 0.25987390E+04</rscale>
<asrwt>0</asrwt>
<pdfrwt beam="1">  1        2 0.63541335E+00 0.25987390E+04</pdfrwt>
<pdfrwt beam="2">  1       -2 0.62890101E-01 0.25987390E+04</pdfrwt>
<totfact> 0.55489538E-01</totfact>
</mgrwt>
</event>
<event>
 6    1  0.2236204E-005  0.3919158E+04  0.7818608E-02  0.8021056E-01
         -2   -1    0    0    0  501 -0.00000000000E+00  0.00000000000E+00  0.82696458100E+03  0.82696458100E+03  0.00000000000E+00 0.  1.
          2   -1    0    0  501    0  0.00000000000E+00 -0.00000000000E+00 -0.46434270433E+04  0.46434270433E+04  0.00000000000E+00 0. -1.
         23    2    1    2    0    0 -0.18532708915E+04  0.38419248309E+03 -0.12061534624E+04  0.22461196234E+04  0.89612086779E+02 0.  0.
         11    1    3    3    0    0 -0.73837898241E+03  0.13079562077E+03 -0.52301972476E+03  0.91425414878E+03  0.00000000000E+00 0. -1.
        -11    1    3    3    0    0 -0.11148919091E+04  0.25339686233E+03 -0.68313373769E+03  0.13318654746E+04  0.00000000000E+00 0.  1.
         22    1    1    2    0    0  0.18532708915E+04 -0.38419248309E+03 -0.26103089999E+04  0.32242720010E+04  0.00000000000E+00 0. -1.
<mgrwt>
<rscale>  0 0.39191579E+04</rscale>
<asrwt>0</asrwt>
<pdfrwt beam="1">  1        2 0.71437340E+00 0.39191579E+04</pdfrwt>
<pdfrwt beam="2">  1       -2 0.12722532E+00 0.39191579E+04</pdfrwt>
<totfact> 0.31831459E-02</totfact>
</mgrwt>
</event>
<event>
 6    1  0.2236204E-005  0.5198927E+04  0.7818608E-02  0.7798533E-01
         -2   -1    0    0    0  501 -0.00000000000E+00  0.00000000000E+00  0.48594179042E+04  0.48594179042E+04  0.00000000000E+00 0.  1.
          2   -1    0    0  501    0  0.00000000000E+00 -0.00000000000E+00 -0.13905390799E+04  0.13905390799E+04  0.00000000000E+00 0. -1.
         23    2    1    2    0    0  0.16016825946E+04 -0.18338447271E+04  0.28266328168E+04  0.37318518332E+04  0.92148830253E+02 0.  0.
         13    1    3    3    0    0  0.74302510724E+03 -0.84105152315E+03  0.13726556191E+04  0.17730305760E+04  0.00000000000E+00 0. -1.
        -13    1    3    3    0    0  0.85865748737E+03 -0.99279320394E+03  0.14539771977E+04  0.19588212572E+04  0.00000000000E+00 0.  1.
         22    1    1    2    0    0 -0.16016825946E+04  0.18338447271E+04  0.64224600745E+03  0.25181051509E+04  0.00000000000E+00 0.  1.
<mgrwt>
<rscale>  0 0.51989270E+04</rscale>
<asrwt>0</asrwt>
<pdfrwt beam="1">  1        2 0.21392909E+00 0.51989270E+04</pdfrwt>
<pdfrwt beam="2">  1       -2 0.74760275E+00 0.51989270E+04</pdfrwt>
<totfact> 0.15547327E-03</totfact>
</mgrwt>
</event>
<event>
 6    1  0.2236204E-005  0.2064351E+04  0.7818608E-02  0.8577112E-01
         -2   -1    0    0    0  501 -0.00000000000E+00  0.00000000000E+00  0.11845504645E+04  0.11845504645E+04  0.00000000000E+00 0. -1.
          2   -1    0    0  501    0  0.00000000000E+00 -0.00000000000E+00 -0.89940127301E+03  0.89940127301E+03  0.00000000000E+00 0.  1.
         23    2    1    2    0    0  0.90003706314E+03  0.39296108553E+03 -0.17134763942E+03  0.10009584382E+04  0.89847936329E+02 0.  0.
         13    1    3    3    0    0  0.15532380555E+03  0.67676822918E+02  0.45365042928E+01  0.16948810224E+03  0.00000000000E+00 0. -1.
        -13    1    3    3    0    0  0.74471325759E+03  0.32528426261E+03 -0.17588414372E+03  0.83147033594E+03  0.00000000000E+00 0.  1.
         22    1    1    2    0    0 -0.90003706314E+03 -0.39296108553E+03  0.45649683089E+03  0.10829932993E+04  0.00000000000E+00 0.  1.
<mgrwt>
<rscale>  0 0.20643509E+04</rscale>
<asrwt>0</asrwt>
<pdfrwt beam="1">  1        2 0.13836943E+00 0.20643509E+04</pdfrwt>
<pdfrwt beam="2">  1       -2 0.18223853E+00 0.20643509E+04</pdfrwt>
<totfact> 0.47451878E+00</totfact>
</mgrwt>
</event>
<event>
 6    1  0.2236204E-005  0.4426987E+04  0.7818608E-02  0.7923545E-01
         -2   -1    0    0    0  501 -0.00000000000E+00  0.00000000000E+00  0.17460281043E+04  0.17460281043E+04  0.00000000000E+00 0.  1.
          2   -1    0    0  501    0  0.00000000000E+00 -0.00000000000E+00 -0.28061140055E+04  0.28061140055E+04  0.00000000000E+00 0. -1.
         23    2    1    2    0    0 -0.12480217869E+04  0.13933385763E+04  0.68494817268E+03  0.19939992897E+04  0.89041559381E+02 0.  0.
         11    1    3    3    0    0 -0.91013150805E+03  0.95768246890E+03  0.47124918091E+03  0.14027012739E+04  0.00000000000E+00 0. -1.
        -11    1    3    3    0    0 -0.33789027887E+03  0.43565610740E+03  0.21369899177E+03  0.59129801585E+03  0.00000000000E+00 0.  1.
         22    1    1    2    0    0  0.12480217869E+04 -0.13933385763E+04 -0.17450340739E+04  0.25581428201E+04  0.00000000000E+00 0. -1.
<mgrwt>
<rscale>  0 0.44269872E+04</rscale>
<asrwt>0</asrwt>
<pdfrwt beam="1">  1        2 0.43170984E+00 0.44269872E+04</pdfrwt>
<pdfrwt beam="2">  1       -2 0.26861971E+00 0.44269872E+04</pdfrwt>
<totfact> 0.86337225E-02</totfact>
</mgrwt>
</event>
<event>
 6    1  0.2236204E-005  0.1753725E+04  0.7818608E-02  0.8731303E-01
         -2   -1    0    0    0  501 -0.00000000000E+00  0.00000000000E+00  0.14777857536E+04  0.14777857536E+04  0.00000000000E+00 0.  1.
          2   -1    0    0  501    0  0.00000000000E+00 -0.00000000000E+00 -0.52029720513E+03  0.52029720513E+03  0.00000000000E+00 0. -1.
         23    2    1    2    0    0  0.39141007843E+03  0.42505872328E+03  0.12274693789E+04  0.13603005378E+04  0.99296068381E+02 0.  0.
         13    1    3    3    0    0  0.31381005330E+03  0.33763818872E+03  0.10618482018E+04  0.11575827830E+04  0.00000000000E+00 0. -1.
        -13    1    3    3    0    0  0.77600025138E+02  0.87420534561E+02  0.16562117716E+03  0.20271775475E+03  0.00000000000E+00 0.  1.
         22    1    1    2    0    0 -0.39141007843E+03 -0.42505872328E+03 -0.26998083039E+03  0.63778242098E+03  0.00000000000E+00 0. -1.
<mgrwt>
<rscale>  0 0.17537249E+04</rscale>
<asrwt>0</asrwt>
<pdfrwt beam="1">  1        2 0.80045725E-01 0.17537249E+04</pdfrwt>
<pdfrwt beam="2">  1       -2 0.22735165E+00 0.17537249E+04</pdfrwt>
<totfact> 0.49447087E+00</totfact>
</mgrwt>
</event>
<event>
 6    1  0.2236204E-005  0.2642765E+04  0.7818608E-02  0.8353818E-01
          2   -1    0    0  501    0  0.00000000000E+00  0.00000000000E+00  0.22650871155E+04  0.22650871155E+04  0.00000000000E+00 0. -1.
         -2   -1    0    0    0  501 -0.00000000000E+00 -0.00000000000E+00 -0.77085408918E+03  0.77085408918E+03  0.00000000000E+00 0.  1.
         23    2    1    2    0    0  0.43678337340E+03  0.11579915648E+04  0.12737492880E+04  0.17788265486E+04  0.10031182405E+03 0.  0.
         11    1    3    3    0    0  0.30220152234E+03  0.68027558667E+03  0.79891566431E+03  0.10919555268E+04  0.00000000000E+00 0.  1.
        -11    1    3    3    0    0  0.13458185106E+03  0.47771597816E+03  0.47483362365E+03  0.68687102179E+03  0.00000000000E+00 0. -1.
         22    1    1    2    0    0 -0.43678337340E+03 -0.11579915648E+04  0.22048373831E+03  0.12571146560E+04  0.00000000000E+00 0. -1.
<mgrwt>
<rscale>  0 0.26427650E+04</rscale>
<asrwt>0</asrwt>
<pdfrwt beam="1">  1        2 0.34847494E+00 0.26427650E+04</pdfrwt>
<pdfrwt beam="2">  1       -2 0.11859294E+00 0.26427650E+04</pdfrwt>
<totfact> 0.22866370E+00</totfact>
</mgrwt>
</event>
<event>
 6    1  0.2236204E-005  0.5864828E+03  0.7818608E-02  0.9933854E-01
         -1   -1    0    0    0  501 -0.00000000000E+00  0.00000000000E+00  0.81046277912E+03  0.81046277912E+03  0.00000000000E+00 0.  1.
          1   -1    0    0  501    0  0.00000000000E+00 -0.00000000000E+00 -0.10610049779E+03  0.10610049779E+03  0.00000000000E+00 0. -1.
         23    2    1    2    0    0 -0.27939639934E+03 -0.28026414482E+02  0.27156307090E+03  0.40065341616E+03  0.89043980873E+02 0.  0.
         11    1    3    3    0    0 -0.88592054908E+02 -0.51279396051E+02  0.94449443733E+02  0.13927966856E+03  0.00000000000E+00 0. -1.
        -11    1    3    3    0    0 -0.19080434444E+03  0.23252981570E+02  0.17711362717E+03  0.26137374761E+03  0.00000000000E+00 0.  1.
         22    1    1    2    0    0  0.27939639934E+03  0.28026414482E+02  0.43279921042E+03  0.51590986075E+03  0.00000000000E+00 0. -1.
<mgrwt>
<rscale>  0 0.58648275E+03</rscale>
<asrwt>0</asrwt>
<pdfrwt beam="1">  1        1 0.16323154E-01 0.58648275E+03</pdfrwt>
<pdfrwt beam="2">  1       -1 0.12468658E+00 0.58648275E+03</pdfrwt>
<totfact> 0.19781303E+02</totfact>
</mgrwt>
</event>
<event>
 6    1  0.2236204E-005  0.2263898E+04  0.7818608E-02  0.8492293E-01
          2   -1    0    0  501    0  0.00000000000E+00  0.00000000000E+00  0.23151104454E+04  0.23151104454E+04  0.00000000000E+00 0.  1.
         -2   -1    0    0    0  501 -0.00000000000E+00 -0.00000000000E+00 -0.55345470818E+03  0.55345470818E+03  0.00000000000E+00 0. -1.
         23    2    1    2    0    0 -0.34397446319E+03  0.50025287156E+03 -0.32735625135E+03  0.69312440394E+03  0.68468658607E+02 0.  0.
         13    1    3    3    0    0 -0.14915414984E+03  0.19356054896E+03 -0.16698264262E+03  0.29596595998E+03  0.00000000000E+00 0. -1.
        -13    1    3    3    0    0 -0.19482031335E+03  0.30669232260E+03 -0.16037360872E+03  0.39715844396E+03  0.00000000000E+00 0.  1.
         22    1    1    2    0    0  0.34397446319E+03 -0.50025287156E+03  0.20890119886E+04  0.21754407496E+04  0.00000000000E+00 0.  1.
<mgrwt>
<rscale>  0 0.22638982E+04</rscale>
<asrwt>0</asrwt>
<pdfrwt beam="1">  1        2 0.35617083E+00 0.22638982E+04</pdfrwt>
<pdfrwt beam="2">  1       -2 0.85146880E-01 0.22638982E+04</pdfrwt>
<totfact> 0.48501534E+00</totfact>
</mgrwt>
</event>
<event>
 6    1  0.2236204E-005  0.6746415E+03  0.7818608E-02  0.9761609E-01
          1   -1    0    0  501    0  0.00000000000E+00  0.00000000000E+00  0.10332724386E+04  0.10332724386E+04  0.00000000000E+00 0. -1.
         -1   -1    0    0    0  501 -0.00000000000E+00 -0.00000000000E+00 -0.11012129374E+03  0.11012129374E+03  0.00000000000E+00 0.  1.
         23    2    1    2    0    0  0.10729613067E+02  0.96984871235E+02  0.10059587377E+04  0.10154160497E+04  0.97957042765E+02 0.  0.
         13    1    3    3    0    0  0.19208969790E+02  0.51568921375E+02  0.18138670446E+03  0.18955071809E+03  0.00000000000E+00 0. -1.
        -13    1    3    3    0    0 -0.84793567231E+01  0.45415949861E+02  0.82457203321E+03  0.82586533160E+03  0.00000000000E+00 0.  1.
         22    1    1    2    0    0 -0.10729613067E+02 -0.96984871235E+02 -0.82807592771E+02  0.12797768269E+03  0.00000000000E+00 0.  1.
<mgrwt>
<rscale>  0 0.67464153E+03</rscale>
<asrwt>0</asrwt>
<pdfrwt beam="1">  1        1 0.15896498E+00 0.67464153E+03</pdfrwt>
<pdfrwt beam="2">  1       -1 0.16941738E-01 0.67464153E+03</pdfrwt>
<totfact> 0.38937931E+02</totfact>
</mgrwt>
</event>
<event>
 6    1  0.2236204E-005  0.1804840E+04  0.7818608E-02  0.8703730E-01
          2   -1    0    0  501    0  0.00000000000E+00  0.00000000000E+00  0.31515476114E+03  0.31515476114E+03  0.00000000000E+00 0. -1.
         -2   -1    0    0    0  501 -0.00000000000E+00 -0.00000000000E+00 -0.25840065746E+04  0.25840065746E+04  0.00000000000E+00 0.  1.
         23    2    1    2    0    0  0.83582302528E+03 -0.56051676568E+02 -0.16660885586E+04  0.18671412480E+04  0.92862451351E+02 0.  0.
         11    1    3    3    0    0  0.73389912697E+03 -0.75013897018E+02 -0.14945539159E+04  0.16667112590E+04  0.00000000000E+00 0. -1.
        -11    1    3    3    0    0  0.10192389832E+03  0.18962220450E+02 -0.17153464276E+03  0.20042998907E+03  0.00000000000E+00 0.  1.
         22    1    1    2    0    0 -0.83582302528E+03  0.56051676568E+02 -0.60276325479E+03  0.10320200877E+04  0.00000000000E+00 0. -1.
<mgrwt>
<rscale>  0 0.18048401E+04</rscale>
<asrwt>0</asrwt>
<pdfrwt beam="1">  1        2 0.48485349E-01 0.18048401E+04</pdfrwt>
<pdfrwt beam="2">  1       -2 0.39753946E+00 0.18048401E+04</pdfrwt>
<totfact> 0.75888270E-01</totfact>
</mgrwt>
</event>
<event>
 6    1  0.2236204E-005  0.2115517E+04  0.7818608E-02  0.8554439E-01
         -2   -1    0    0    0  501 -0.00000000000E+00  0.00000000000E+00  0.41827156698E+03  0.41827156698E+03  0.00000000000E+00 0.  1.
          2   -1    0    0  501    0  0.00000000000E+00 -0.00000000000E+00 -0.26749430051E+04  0.26749430051E+04  0.00000000000E+00 0. -1.
         23    2    1    2    0    0 -0.87787779745E+03 -0.53722079430E+03 -0.78569919257E+03  0.12979332693E+04  0.89621097793E+02 0.  0.
         11    1    3    3    0    0 -0.22396138803E+03 -0.17943930994E+03 -0.19678078485E+03  0.34796529506E+03  0.00000000000E+00 0. -1.
        -11    1    3    3    0    0 -0.65391640942E+03 -0.35778148436E+03 -0.58891840772E+03  0.94996797420E+03  0.00000000000E+00 0.  1.
         22    1    1    2    0    0  0.87787779745E+03  0.53722079430E+03 -0.14709722456E+04  0.17952813028E+04  0.00000000000E+00 0. -1.
<mgrwt>
<rscale>  0 0.21155166E+04</rscale>
<asrwt>0</asrwt>
<pdfrwt beam="1">  1        2 0.41152970E+00 0.21155166E+04</pdfrwt>
<pdfrwt beam="2">  1       -2 0.64349471E-01 0.21155166E+04</pdfrwt>
<totfact> 0.56465470E+00</totfact>
</mgrwt>
</event>
<event>
 6    1  0.2236204E-005  0.1461005E+04  0.7818608E-02  0.8910806E-01
          1   -1    0    0  501    0  0.00000000000E+00  0.00000000000E+00  0.22756868057E+04  0.22756868057E+04  0.00000000000E+00 0. -1.
         -1   -1    0    0    0  501 -0.00000000000E+00 -0.00000000000E+00 -0.23449351238E+03  0.23449351238E+03  0.00000000000E+00 0.  1.
         23    2    1    2    0    0  0.39029891957E+03 -0.61227749205E+03  0.11141754073E+04  0.13326493695E+04  0.85735231309E+02 0.  0.
         13    1    3    3    0    0  0.16743646045E+03 -0.28773643072E+03  0.58494712700E+03  0.67304558779E+03  0.00000000000E+00 0.  1.
        -13    1    3    3    0    0  0.22286245912E+03 -0.32454106133E+03  0.52922828032E+03  0.65960378173E+03  0.00000000000E+00 0. -1.
         22    1    1    2    0    0 -0.39029891957E+03  0.61227749205E+03  0.92701788597E+03  0.11775309485E+04  0.00000000000E+00 0.  1.
<mgrwt>
<rscale>  0 0.14610048E+04</rscale>
<asrwt>0</asrwt>
<pdfrwt beam="1">  1        1 0.35010565E+00 0.14610048E+04</pdfrwt>
<pdfrwt beam="2">  1       -1 0.36075926E-01 0.14610048E+04</pdfrwt>
<totfact> 0.13814772E+01</totfact>
</mgrwt>
</event>
<event>
 6    1  0.2236204E-005  0.1715265E+04  0.7818608E-02  0.8752706E-01
         -2   -1    0    0    0  501 -0.00000000000E+00  0.00000000000E+00  0.14402520970E+04  0.14402520970E+04  0.00000000000E+00 0.  1.
          2   -1    0    0  501    0  0.00000000000E+00 -0.00000000000E+00 -0.51069799019E+03  0.51069799019E+03  0.00000000000E+00 0. -1.
         23    2    1    2    0    0 -0.25086193727E+03  0.73722731724E+03  0.86818116625E+03  0.11697955143E+04  0.90813980434E+02 0.  0.
         13    1    3    3    0    0 -0.78833584758E+02  0.36269840668E+03  0.38669643610E+03  0.53600280035E+03  0.00000000000E+00 0. -1.
        -13    1    3    3    0    0 -0.17202835251E+03  0.37452891056E+03  0.48148473015E+03  0.63379271397E+03  0.00000000000E+00 0.  1.
         22    1    1    2    0    0  0.25086193727E+03 -0.73722731724E+03  0.61372940546E+02  0.78115457285E+03  0.00000000000E+00 0. -1.
<mgrwt>
<rscale>  0 0.17152654E+04</rscale>
<asrwt>0</asrwt>
<pdfrwt beam="1">  1        2 0.78568922E-01 0.17152654E+04</pdfrwt>
<pdfrwt beam="2">  1       -2 0.22157724E+00 0.17152654E+04</pdfrwt>
<totfact> 0.55112603E+00</totfact>
</mgrwt>
</event>
<event>
 6    1  0.2236204E-005  0.2932479E+04  0.7818608E-02  0.8263279E-01
          2   -1    0    0  501    0  0.00000000000E+00  0.00000000000E+00  0.12111679226E+04  0.12111679226E+04  0.00000000000E+00 0. -1.
         -2   -1    0    0    0  501 -0.00000000000E+00 -0.00000000000E+00 -0.17750286204E+04  0.17750286204E+04  0.00000000000E+00 0.  1.
         23    2    1    2    0    0  0.12857176808E+03 -0.11141640741E+04  0.67715970372E+03  0.13134670608E+04  0.93585105154E+02 0.  0.
         11    1    3    3    0    0  0.10724721142E+03 -0.88659625966E+03  0.49410406430E+03  0.10206339786E+04  0.00000000000E+00 0. -1.
        -11    1    3    3    0    0  0.21324556654E+02 -0.22756781449E+03  0.18305563942E+03  0.29283308220E+03  0.00000000000E+00 0.  1.
         22    1    1    2    0    0 -0.12857176808E+03  0.11141640741E+04 -0.12410204015E+04  0.16727294822E+04  0.00000000000E+00 0.  1.
<mgrwt>
<rscale>  0 0.29324786E+04</rscale>
<asrwt>0</asrwt>
<pdfrwt beam="1">  1        2 0.18633353E+00 0.29324786E+04</pdfrwt>
<pdfrwt beam="2">  1       -2 0.27308132E+00 0.29324786E+04</pdfrwt>
<totfact> 0.74512539E-01</totfact>
</mgrwt>
</event>
<event>
 6    1  0.2236204E-005  0.4531597E+04  0.7818608E-02  0.7905128E-01
         -2   -1    0    0    0  501 -0.00000000000E+00  0.00000000000E+00  0.20721316662E+04  0.20721316662E+04  0.00000000000E+00 0. -1.
          2   -1    0    0  501    0  0.00000000000E+00 -0.00000000000E+00 -0.24775654499E+04  0.24775654499E+04  0.00000000000E+00 0.  1.
         23    2    1    2    0    0  0.73946628743E+03  0.19328406064E+04 -0.11268756451E+04  0.23580854809E+04  0.89639362805E+02 0.  0.
         11    1    3    3    0    0  0.61220184698E+03  0.15131239800E+04 -0.91002884396E+03  0.18688198889E+04  0.00000000000E+00 0.  1.
        -11    1    3    3    0    0  0.12726444045E+03  0.41971662641E+03 -0.21684680113E+03  0.48926559194E+03  0.00000000000E+00 0. -1.
         22    1    1    2    0    0 -0.73946628743E+03 -0.19328406064E+04  0.72144186146E+03  0.21916116352E+04  0.00000000000E+00 0. -1.
<mgrwt>
<rscale>  0 0.45315966E+04</rscale>
<asrwt>0</asrwt>
<pdfrwt beam="1">  1        2 0.38116392E+00 0.45315966E+04</pdfrwt>
<pdfrwt beam="2">  1       -2 0.31878949E+00 0.45315966E+04</pdfrwt>
<totfact> 0.66037416E-02</totfact>
</mgrwt>
</event>
<event>
 6    1  0.2236204E-005  0.1038937E+04  0.7818608E-02  0.9266841E-01
         -1   -1    0    0    0  501 -0.00000000000E+00  0.00000000000E+00  0.13453102865E+03  0.13453102865E+03  0.00000000000E+00 0.  1.
          1   -1    0    0  501    0  0.00000000000E+00 -0.00000000000E+00 -0.20058390798E+04  0.20058390798E+04  0.00000000000E+00 0. -1.
         23    2    1    2    0    0 -0.29399761270E+03 -0.41285591513E+03 -0.11359626662E+04  0.12472758032E+04  0.91657772346E+02 0.  0.
         13    1    3    3    0    0 -0.65118278838E+02 -0.15623126486E+03 -0.32532864598E+03  0.36672513720E+03  0.00000000000E+00 0.  1.
        -13    1    3    3    0    0 -0.22887933386E+03 -0.25662465027E+03 -0.81063402025E+03  0.88055066599E+03  0.00000000000E+00 0. -1.
         22    1    1    2    0    0  0.29399761270E+03  0.41285591513E+03 -0.73534538488E+03  0.89309430521E+03  0.00000000000E+00 0. -1.
<mgrwt>
<rscale>  0 0.10389371E+04</rscale>
<asrwt>0</asrwt>
<pdfrwt beam="1">  1        1 0.30859061E+00 0.10389371E+04</pdfrwt>
<pdfrwt beam="2">  1       -1 0.20697083E-01 0.10389371E+04</pdfrwt>
<totfact> 0.57268842E+01</totfact>
</mgrwt>
</event>
<event>
 6    1  0.2236204E-005  0.7500563E+04  0.7818608E-02  0.7527905E-01
          2   -1    0    0  501    0  0.00000000000E+00  0.00000000000E+00  0.31786148137E+04  0.31786148137E+04  0.00000000000E+00 0. -1.
         -2   -1    0    0    0  501 -0.00000000000E+00 -0.00000000000E+00 -0.44247610867E+04  0.44247610867E+04  0.00000000000E+00 0.  1.
         23    2    1    2    0    0  0.23326542075E+04  0.12480190378E+04  0.20705740809E+04  0.33607987264E+04  0.94148204363E+02 0.  0.
         11    1    3    3    0    0  0.14901445321E+04  0.77532204295E+03  0.13663178787E+04  0.21652897133E+04  0.00000000000E+00 0. -1.
        -11    1    3    3    0    0  0.84250967546E+03  0.47269699483E+03  0.70425620223E+03  0.11955090132E+04  0.00000000000E+00 0.  1.
         22    1    1    2    0    0 -0.23326542075E+04 -0.12480190378E+04 -0.33167203540E+04  0.42425771740E+04  0.00000000000E+00 0.  1.
<mgrwt>
<rscale>  0 0.75005629E+04</rscale>
<asrwt>0</asrwt>
<pdfrwt beam="1">  1        2 0.48901766E+00 0.75005629E+04</pdfrwt>
<pdfrwt beam="2">  1       -2 0.68073247E+00 0.75005629E+04</pdfrwt>
<totfact> 0.21997206E-04</totfact>
</mgrwt>
</event>
<event>
 6    1  0.2236204E-005  0.4753457E+04  0.7818608E-02  0.7867707E-01
          2   -1    0    0  501    0  0.00000000000E+00  0.00000000000E+00  0.24632318249E+04  0.24632318249E+04  0.00000000000E+00 0. -1.
         -2   -1    0    0    0  501 -0.00000000000E+00 -0.00000000000E+00 -0.22932629400E+04  0.22932629400E+04  0.00000000000E+00 0.  1.
         23    2    1    2    0    0  0.21646049795E+04  0.84151821076E+03 -0.41630253309E+03  0.23612115266E+04  0.91348003534E+02 0.  0.
         11    1    3    3    0    0  0.20792311167E+04  0.79263614112E+03 -0.38727040237E+03  0.22586395138E+04  0.00000000000E+00 0.  1.
        -11    1    3    3    0    0  0.85373862856E+02  0.48882069645E+02 -0.29032130713E+02  0.10257201278E+03  0.00000000000E+00 0. -1.
         22    1    1    2    0    0 -0.21646049795E+04 -0.84151821076E+03  0.58627141790E+03  0.23952832383E+04  0.00000000000E+00 0. -1.
<mgrwt>
<rscale>  0 0.47534570E+04</rscale>
<asrwt>0</asrwt>
<pdfrwt beam="1">  1        2 0.37895874E+00 0.47534570E+04</pdfrwt>
<pdfrwt beam="2">  1       -2 0.35280968E+00 0.47534570E+04</pdfrwt>
<totfact> 0.40540309E-02</totfact>
</mgrwt>
</event>
<event>
 6    1  0.2236204E-005  0.2888240E+04  0.7818608E-02  0.8276385E-01
          2   -1    0    0  501    0  0.00000000000E+00  0.00000000000E+00  0.18618272316E+04  0.18618272316E+04  0.00000000000E+00 0. -1.
         -2   -1    0    0    0  501 -0.00000000000E+00 -0.00000000000E+00 -0.11201266551E+04  0.11201266551E+04  0.00000000000E+00 0.  1.
         23    2    1    2    0    0 -0.56841125528E+03 -0.46367507543E+03 -0.91141837603E+03  0.11733941830E+04  0.89913968909E+02 0.  0.
         11    1    3    3    0    0 -0.82700525532E+01 -0.16416816283E+02 -0.46857822120E+02  0.50334492348E+02  0.00000000000E+00 0.  1.
        -11    1    3    3    0    0 -0.56014120272E+03 -0.44725825915E+03 -0.86456055391E+03  0.11230596906E+04  0.00000000000E+00 0. -1.
         22    1    1    2    0    0  0.56841125528E+03  0.46367507543E+03  0.16531189525E+04  0.18085597037E+04  0.00000000000E+00 0. -1.
<mgrwt>
<rscale>  0 0.28882398E+04</rscale>
<asrwt>0</asrwt>
<pdfrwt beam="1">  1        2 0.28643496E+00 0.28882398E+04</pdfrwt>
<pdfrwt beam="2">  1       -2 0.17232718E+00 0.28882398E+04</pdfrwt>
<totfact> 0.14134939E+00</totfact>
</mgrwt>
</event>
<event>
 6    1  0.2236204E-005  0.5169900E+03  0.7818608E-02  0.1009437E+00
          2   -1    0    0  501    0  0.00000000000E+00  0.00000000000E+00  0.23329932414E+04  0.23329932414E+04  0.00000000000E+00 0. -1.
         -2   -1    0    0    0  501 -0.00000000000E+00 -0.00000000000E+00 -0.28641174797E+02  0.28641174797E+02  0.00000000000E+00 0.  1.
         23    2    1    2    0    0  0.20526047405E+03 -0.90620664236E+02  0.16943857487E+04  0.17117091312E+04  0.93065126400E+02 0.  0.
         11    1    3    3    0    0  0.75235993056E+02 -0.75451812323E+02  0.58477766108E+03  0.59440587440E+03  0.00000000000E+00 0.  1.
        -11    1    3    3    0    0  0.13002448099E+03 -0.15168851913E+02  0.11096080876E+04  0.11173032568E+04  0.00000000000E+00 0. -1.
         22    1    1    2    0    0 -0.20526047405E+03  0.90620664236E+02  0.60996631799E+03  0.64992528499E+03  0.00000000000E+00 0.  1.
<mgrwt>
<rscale>  0 0.51699001E+03</rscale>
<asrwt>0</asrwt>
<pdfrwt beam="1">  1        2 0.35892189E+00 0.51699001E+03</pdfrwt>
<pdfrwt beam="2">  1       -2 0.44063364E-02 0.51699001E+03</pdfrwt>
<totfact> 0.11447144E+03</totfact>
</mgrwt>
</event>
<event>
 6    1  0.2236204E-005  0.2350315E+04  0.7818608E-02  0.8458343E-01
         -2   -1    0    0    0  501 -0.00000000000E+00  0.00000000000E+00  0.62374744034E+03  0.62374744034E+03  0.00000000000E+00 0.  1.
          2   -1    0    0  501    0  0.00000000000E+00 -0.00000000000E+00 -0.22140285838E+04  0.22140285838E+04  0.00000000000E+00 0. -1.
         23    2    1    2    0    0  0.44861188284E+03 -0.37577480848E+03 -0.20243785860E+04  0.21091472313E+04  0.89073316670E+02 0.  0.
         13    1    3    3    0    0  0.24459884342E+03 -0.25639662162E+03 -0.11474431307E+04  0.12009136355E+04  0.00000000000E+00 0.  1.
        -13    1    3    3    0    0  0.20401303942E+03 -0.11937818686E+03 -0.87693545528E+03  0.90823359577E+03  0.00000000000E+00 0. -1.
         22    1    1    2    0    0 -0.44861188284E+03  0.37577480848E+03  0.43409744254E+03  0.72862879283E+03  0.00000000000E+00 0.  1.
<mgrwt>
<rscale>  0 0.23503146E+04</rscale>
<asrwt>0</asrwt>
<pdfrwt beam="1">  1        2 0.34061979E+00 0.23503146E+04</pdfrwt>
<pdfrwt beam="2">  1       -2 0.95961142E-01 0.23503146E+04</pdfrwt>
<totfact> 0.41670622E+00</totfact>
</mgrwt>
</event>
<event>
 6    1  0.2964262E-005  0.2588185E+04  0.7818608E-02  0.8372226E-01
          2   -1    0    0  501    0  0.00000000000E+00  0.00000000000E+00  0.33682795016E+04  0.33682795016E+04  0.00000000000E+00 0. -1.
         -2   -1    0    0    0  501 -0.00000000000E+00 -0.00000000000E+00 -0.49719020137E+03  0.49719020137E+03  0.00000000000E+00 0.  1.
         23    2    1    2    0    0 -0.42388861897E+03 -0.12171235100E+04  0.15820472938E+04  0.20426420934E+04  0.91879715043E+02 0.  0.
         13    1    3    3    0    0 -0.29323129052E+03 -0.74293194401E+03  0.93043518747E+03  0.12262308515E+04  0.00000000000E+00 0.  1.
        -13    1    3    3    0    0 -0.13065732845E+03 -0.47419156599E+03  0.65161210637E+03  0.81641124191E+03  0.00000000000E+00 0. -1.
         22    1    1    2    0    0  0.42388861897E+03  0.12171235100E+04  0.12890420064E+04  0.18228276096E+04  0.00000000000E+00 0.  1.
<mgrwt>
<rscale>  0 0.25881851E+04</rscale>
<asrwt>0</asrwt>
<pdfrwt beam="1">  1        2 0.51819683E+00 0.25881851E+04</pdfrwt>
<pdfrwt beam="2">  1       -2 0.76490802E-01 0.25881851E+04</pdfrwt>
<totfact> 0.13566767E+00</totfact>
</mgrwt>
</event>
<event>
 6    1  0.2236204E-005  0.2808952E+04  0.7818608E-02  0.8300494E-01
          2   -1    0    0  501    0  0.00000000000E+00  0.00000000000E+00  0.16059942610E+04  0.16059942610E+04  0.00000000000E+00 0.  1.
         -2   -1    0    0    0  501 -0.00000000000E+00 -0.00000000000E+00 -0.12282443551E+04  0.12282443551E+04  0.00000000000E+00 0. -1.
         23    2    1    2    0    0  0.12418419729E+04  0.62525360757E+03  0.33293293610E+00  0.13935592170E+04  0.94305996914E+02 0.  0.
         11    1    3    3    0    0  0.58810381193E+02  0.52610172194E+02 -0.68146069000E+01  0.79201830924E+02  0.00000000000E+00 0. -1.
        -11    1    3    3    0    0  0.11830315917E+04  0.57264343538E+03  0.71475398361E+01  0.13143573861E+04  0.00000000000E+00 0.  1.
         22    1    1    2    0    0 -0.12418419729E+04 -0.62525360757E+03  0.37741697297E+03  0.14406793990E+04  0.00000000000E+00 0. -1.
<mgrwt>
<rscale>  0 0.28089524E+04</rscale>
<asrwt>0</asrwt>
<pdfrwt beam="1">  1        2 0.24707604E+00 0.28089524E+04</pdfrwt>
<pdfrwt beam="2">  1       -2 0.18896067E+00 0.28089524E+04</pdfrwt>
<totfact> 0.15158484E+00</totfact>
</mgrwt>
</event>
<event>
 6    1  0.2236204E-005  0.1042402E+04  0.7818608E-02  0.9263224E-01
         -2   -1    0    0    0  501 -0.00000000000E+00  0.00000000000E+00  0.38566387142E+03  0.38566387142E+03  0.00000000000E+00 0. -1.
          2   -1    0    0  501    0  0.00000000000E+00 -0.00000000000E+00 -0.70437073686E+03  0.70437073686E+03  0.00000000000E+00 0.  1.
         23    2    1    2    0    0  0.11750239158E+03 -0.31452352798E+02  0.36508504632E+03  0.39550783335E+03  0.91341626169E+02 0.  0.
         11    1    3    3    0    0  0.12149759321E+03 -0.51070136961E+02  0.30797188850E+03  0.33498732536E+03  0.00000000000E+00 0. -1.
        -11    1    3    3    0    0 -0.39952016249E+01  0.19617784163E+02  0.57113157820E+02  0.60520507992E+02  0.00000000000E+00 0.  1.
         22    1    1    2    0    0 -0.11750239158E+03  0.31452352798E+02 -0.68379191176E+03  0.69452677494E+03  0.00000000000E+00 0.  1.
<mgrwt>
<rscale>  0 0.10424017E+04</rscale>
<asrwt>0</asrwt>
<pdfrwt beam="1">  1        2 0.10836473E+00 0.10424017E+04</pdfrwt>
<pdfrwt beam="2">  1       -2 0.59332904E-01 0.10424017E+04</pdfrwt>
<totfact> 0.10743429E+02</totfact>
</mgrwt>
</event>
<event>
 6    1  0.2236204E-005  0.2161052E+04  0.7818608E-02  0.8534816E-01
          2   -1    0    0  501    0  0.00000000000E+00  0.00000000000E+00  0.17547542719E+04  0.17547542719E+04  0.00000000000E+00 0. -1.
         -2   -1    0    0    0  501 -0.00000000000E+00 -0.00000000000E+00 -0.66535600064E+03  0.66535600064E+03  0.00000000000E+00 0.  1.
         23    2    1    2    0    0 -0.10112758021E+03  0.10581263068E+04  0.75108620783E+03  0.13046224326E+04  0.89728097488E+02 0.  0.
         13    1    3    3    0    0  0.19926915538E+01  0.34096418551E+03  0.21155594734E+03  0.40126857025E+03  0.00000000000E+00 0. -1.
        -13    1    3    3    0    0 -0.10312027177E+03  0.71716212130E+03  0.53953026050E+03  0.90335386238E+03  0.00000000000E+00 0.  1.
         22    1    1    2    0    0  0.10112758021E+03 -0.10581263068E+04  0.33831206339E+03  0.11154878399E+04  0.00000000000E+00 0.  1.
<mgrwt>
<rscale>  0 0.21610519E+04</rscale>
<asrwt>0</asrwt>
<pdfrwt beam="1">  1        2 0.26996219E+00 0.21610519E+04</pdfrwt>
<pdfrwt beam="2">  1       -2 0.10236246E+00 0.21610519E+04</pdfrwt>
<totfact> 0.65502995E+00</totfact>
</mgrwt>
</event>
<event>
 6    1  0.2236204E-005  0.3340030E+04  0.7818608E-02  0.8152784E-01
         -2   -1    0    0    0  501 -0.00000000000E+00  0.00000000000E+00  0.16123451590E+04  0.16123451590E+04  0.00000000000E+00 0.  1.
          2   -1    0    0  501    0  0.00000000000E+00 -0.00000000000E+00 -0.17297473530E+04  0.17297473530E+04  0.00000000000E+00 0. -1.
         23    2    1    2    0    0  0.42592409712E+03  0.37858494645E+03 -0.16281864863E+04  0.17274076894E+04  0.90599079253E+02 0.  0.
         13    1    3    3    0    0  0.12029616601E+03  0.16478734594E+03 -0.57222040255E+03  0.60750491853E+03  0.00000000000E+00 0. -1.
        -13    1    3    3    0    0  0.30562793111E+03  0.21379760051E+03 -0.10559660838E+04  0.11199027709E+04  0.00000000000E+00 0.  1.
         22    1    1    2    0    0 -0.42592409712E+03 -0.37858494645E+03  0.15107842923E+04  0.16146848225E+04  0.00000000000E+00 0.  1.
<mgrwt>
<rscale>  0 0.33400298E+04</rscale>
<asrwt>0</asrwt>
<pdfrwt beam="1">  1        2 0.26611498E+00 0.33400298E+04</pdfrwt>
<pdfrwt beam="2">  1       -2 0.24805310E+00 0.33400298E+04</pdfrwt>
<totfact> 0.51919013E-01</totfact>
</mgrwt>
</event>
<event>
 6    1  0.2236204E-005  0.3573217E+04  0.7818608E-02  0.8096654E-01
         -2   -1    0    0    0  501 -0.00000000000E+00  0.00000000000E+00  0.15920027627E+04  0.15920027627E+04  0.00000000000E+00 0.  1.
          2   -1    0    0  501    0  0.00000000000E+00 -0.00000000000E+00 -0.20050025131E+04  0.20050025131E+04  0.00000000000E+00 0. -1.
         23    2    1    2    0    0  0.15672278531E+04 -0.24366495081E+03  0.61867158005E+03  0.17049372311E+04  0.92090640461E+02 0.  0.
         11    1    3    3    0    0  0.44212444430E+03 -0.64284647783E+02  0.13049808618E+03  0.46544203794E+03  0.00000000000E+00 0.  1.
        -11    1    3    3    0    0  0.11251034088E+04 -0.17938030303E+03  0.48817349388E+03  0.12394951931E+04  0.00000000000E+00 0. -1.
         22    1    1    2    0    0 -0.15672278531E+04  0.24366495081E+03 -0.10316713304E+04  0.18920680447E+04  0.00000000000E+00 0. -1.
<mgrwt>
<rscale>  0 0.35732168E+04</rscale>
<asrwt>0</asrwt>
<pdfrwt beam="1">  1        2 0.30846193E+00 0.35732168E+04</pdfrwt>
<pdfrwt beam="2">  1       -2 0.24492350E+00 0.35732168E+04</pdfrwt>
<totfact> 0.37450915E-01</totfact>
</mgrwt>
</event>
<event>
 6    1  0.2236204E-005  0.2100319E+04  0.7818608E-02  0.8561103E-01
         -1   -1    0    0    0  501 -0.00000000000E+00  0.00000000000E+00  0.16186404662E+04  0.16186404662E+04  0.00000000000E+00 0.  1.
          1   -1    0    0  501    0  0.00000000000E+00 -0.00000000000E+00 -0.68133385494E+03  0.68133385494E+03  0.00000000000E+00 0. -1.
         23    2    1    2    0    0  0.46814485755E+03 -0.66789046420E+02 -0.55480999722E+03  0.73471640063E+03  0.91507769982E+02 0.  0.
         11    1    3    3    0    0  0.24501397717E+03 -0.64849483093E+02 -0.34772159264E+03  0.43028782280E+03  0.00000000000E+00 0. -1.
        -11    1    3    3    0    0  0.22313088038E+03 -0.19395633263E+01 -0.20708840459E+03  0.30442857783E+03  0.00000000000E+00 0.  1.
         22    1    1    2    0    0 -0.46814485755E+03  0.66789046420E+02  0.14921166085E+04  0.15652579205E+04  0.00000000000E+00 0.  1.
<mgrwt>
<rscale>  0 0.21003186E+04</rscale>
<asrwt>0</asrwt>
<pdfrwt beam="1">  1        1 0.10482059E+00 0.21003186E+04</pdfrwt>
<pdfrwt beam="2">  1       -1 0.24902161E+00 0.21003186E+04</pdfrwt>
<totfact> 0.18468328E+00</totfact>
</mgrwt>
</event>
<event>
 6    1  0.2236204E-005  0.3131961E+04  0.7818608E-02  0.8207021E-01
          2   -1    0    0  501    0  0.00000000000E+00  0.00000000000E+00  0.27682380695E+04  0.27682380695E+04  0.00000000000E+00 0. -1.
         -2   -1    0    0    0  501 -0.00000000000E+00 -0.00000000000E+00 -0.88586852726E+03  0.88586852726E+03  0.00000000000E+00 0.  1.
         23    2    1    2    0    0 -0.48960979388E+03  0.98697561310E+03 -0.35411876254E+03  0.11609723147E+04  0.92833217740E+02 0.  0.
         13    1    3    3    0    0 -0.38277480101E+02  0.95722638814E+02 -0.68477662091E+01  0.10331931555E+03  0.00000000000E+00 0. -1.
        -13    1    3    3    0    0 -0.45133231377E+03  0.89125297429E+03 -0.34727099633E+03  0.10576529991E+04  0.00000000000E+00 0.  1.
         22    1    1    2    0    0  0.48960979388E+03 -0.98697561310E+03  0.22364883048E+04  0.24931342821E+04  0.00000000000E+00 0. -1.
<mgrwt>
<rscale>  0 0.31319610E+04</rscale>
<asrwt>0</asrwt>
<pdfrwt beam="1">  1        2 0.42588278E+00 0.31319610E+04</pdfrwt>
<pdfrwt beam="2">  1       -2 0.13628747E+00 0.31319610E+04</pdfrwt>
<totfact> 0.78766460E-01</totfact>
</mgrwt>
</event>
<event>
 6    1  0.2236204E-005  0.6630871E+03  0.7818608E-02  0.9782527E-01
         -1   -1    0    0    0  501 -0.00000000000E+00  0.00000000000E+00  0.43454469289E+03  0.43454469289E+03  0.00000000000E+00 0.  1.
          1   -1    0    0  501    0  0.00000000000E+00 -0.00000000000E+00 -0.25295698100E+03  0.25295698100E+03  0.00000000000E+00 0. -1.
         23    2    1    2    0    0 -0.10094443682E+03 -0.21881469131E+03  0.31919376420E+03  0.41000379265E+03  0.90270717429E+02 0.  0.
         13    1    3    3    0    0 -0.62948548424E+02 -0.20538620562E+03  0.24718118605E+03  0.32748213989E+03  0.00000000000E+00 0. -1.
        -13    1    3    3    0    0 -0.37995888399E+02 -0.13428485690E+02  0.72012578144E+02  0.82521652759E+02  0.00000000000E+00 0.  1.
         22    1    1    2    0    0  0.10094443682E+03  0.21881469131E+03 -0.13760605230E+03  0.27749788124E+03  0.00000000000E+00 0. -1.
<mgrwt>
<rscale>  0 0.66308706E+03</rscale>
<asrwt>0</asrwt>
<pdfrwt beam="1">  1        1 0.38916459E-01 0.66308706E+03</pdfrwt>
<pdfrwt beam="2">  1       -1 0.66853029E-01 0.66308706E+03</pdfrwt>
<totfact> 0.25191606E+02</totfact>
</mgrwt>
</event>
<event>
 6    1  0.2236204E-005  0.2603675E+04  0.7818608E-02  0.8366954E-01
          2   -1    0    0  501    0  0.00000000000E+00  0.00000000000E+00  0.26715115467E+04  0.26715115467E+04  0.00000000000E+00 0. -1.
         -2   -1    0    0    0  501 -0.00000000000E+00 -0.00000000000E+00 -0.63439031113E+03  0.63439031113E+03  0.00000000000E+00 0.  1.
         23    2    1    2    0    0  0.10086137498E+04  0.58859839379E+02 -0.19553219595E+02  0.10144665017E+04  0.89407928892E+02 0.  0.
         13    1    3    3    0    0  0.48300108408E+03  0.43635657236E+02  0.32544284930E+02  0.48605889385E+03  0.00000000000E+00 0.  1.
        -13    1    3    3    0    0  0.52561266567E+03  0.15224182143E+02 -0.52097504526E+02  0.52840760783E+03  0.00000000000E+00 0. -1.
         22    1    1    2    0    0 -0.10086137498E+04 -0.58859839379E+02  0.20566744552E+04  0.22914353562E+04  0.00000000000E+00 0. -1.
<mgrwt>
<rscale>  0 0.26036751E+04</rscale>
<asrwt>0</asrwt>
<pdfrwt beam="1">  1        2 0.41100177E+00 0.26036751E+04</pdfrwt>
<pdfrwt beam="2">  1       -2 0.97598511E-01 0.26036751E+04</pdfrwt>
<totfact> 0.21355526E+00</totfact>
</mgrwt>
</event>
<event>
 6    1  0.2236204E-005  0.1652819E+04  0.7818608E-02  0.8788741E-01
          2   -1    0    0  501    0  0.00000000000E+00  0.00000000000E+00  0.18715966589E+04  0.18715966589E+04  0.00000000000E+00 0. -1.
         -2   -1    0    0    0  501 -0.00000000000E+00 -0.00000000000E+00 -0.36490378301E+03  0.36490378301E+03  0.00000000000E+00 0.  1.
         23    2    1    2    0    0 -0.30569696237E+03 -0.41132404340E+03 -0.11728804225E+03  0.53357586226E+03  0.91151601474E+02 0.  0.
         13    1    3    3    0    0 -0.16799178678E+03 -0.16602616000E+03 -0.82215813053E+02  0.25009071583E+03  0.00000000000E+00 0.  1.
        -13    1    3    3    0    0 -0.13770517559E+03 -0.24529788340E+03 -0.35072229197E+02  0.28348514643E+03  0.00000000000E+00 0. -1.
         22    1    1    2    0    0  0.30569696237E+03  0.41132404340E+03  0.16239809181E+04  0.17029245796E+04  0.00000000000E+00 0. -1.
<mgrwt>
<rscale>  0 0.16528190E+04</rscale>
<asrwt>0</asrwt>
<pdfrwt beam="1">  1        2 0.28793794E+00 0.16528190E+04</pdfrwt>
<pdfrwt beam="2">  1       -2 0.56139045E-01 0.16528190E+04</pdfrwt>
<totfact> 0.22401323E+01</totfact>
</mgrwt>
</event>
<event>
 6    1  0.2236204E-005  0.4294984E+04  0.7818608E-02  0.7947546E-01
          2   -1    0    0  501    0  0.00000000000E+00  0.00000000000E+00  0.22857054504E+04  0.22857054504E+04  0.00000000000E+00 0. -1.
         -2   -1    0    0    0  501 -0.00000000000E+00 -0.00000000000E+00 -0.20176364305E+04  0.20176364305E+04  0.00000000000E+00 0.  1.
         23    2    1    2    0    0 -0.11712251667E+04 -0.36088586792E+03 -0.16316965117E+04  0.20425641218E+04  0.87336617601E+02 0.  0.
         11    1    3    3    0    0 -0.50255191293E+03 -0.19617798239E+03 -0.74651838496E+03  0.92105044652E+03  0.00000000000E+00 0. -1.
        -11    1    3    3    0    0 -0.66867325378E+03 -0.16470788553E+03 -0.88517812673E+03  0.11215136753E+04  0.00000000000E+00 0.  1.
         22    1    1    2    0    0  0.11712251667E+04  0.36088586792E+03  0.18997655316E+04  0.22607777591E+04  0.00000000000E+00 0. -1.
<mgrwt>
<rscale>  0 0.42949843E+04</rscale>
<asrwt>0</asrwt>
<pdfrwt beam="1">  1        2 0.35164699E+00 0.42949843E+04</pdfrwt>
<pdfrwt beam="2">  1       -2 0.31040561E+00 0.42949843E+04</pdfrwt>
<totfact> 0.97630640E-02</totfact>
</mgrwt>
</event>
<event>
 6    1  0.2236204E-005  0.6049629E+03  0.7818608E-02  0.9895163E-01
         -2   -1    0    0    0  501 -0.00000000000E+00  0.00000000000E+00  0.60555470708E+02  0.60555470708E+02  0.00000000000E+00 0.  1.
          2   -1    0    0  501    0  0.00000000000E+00 -0.00000000000E+00 -0.15109290084E+04  0.15109290084E+04  0.00000000000E+00 0. -1.
         23    2    1    2    0    0 -0.85844955663E+02 -0.97989412261E+02 -0.14309708096E+04  0.14397736322E+04  0.91100893054E+02 0.  0.
         13    1    3    3    0    0 -0.61643127490E+02 -0.47581057724E+02 -0.41356232675E+03  0.42082969279E+03  0.00000000000E+00 0.  1.
        -13    1    3    3    0    0 -0.24201828174E+02 -0.50408354538E+02 -0.10174084829E+04  0.10189439394E+04  0.00000000000E+00 0. -1.
         22    1    1    2    0    0  0.85844955663E+02  0.97989412261E+02 -0.19402728054E+02  0.13171084687E+03  0.00000000000E+00 0.  1.
<mgrwt>
<rscale>  0 0.60496287E+03</rscale>
<asrwt>0</asrwt>
<pdfrwt beam="1">  1        2 0.23245063E+00 0.60496287E+03</pdfrwt>
<pdfrwt beam="2">  1       -2 0.93162257E-02 0.60496287E+03</pdfrwt>
<totfact> 0.98184164E+02</totfact>
</mgrwt>
</event>
<event>
 6    1  0.2236204E-005  0.4653302E+03  0.7818608E-02  0.1023247E+00
         -2   -1    0    0    0  501 -0.00000000000E+00  0.00000000000E+00  0.34315491823E+03  0.34315491823E+03  0.00000000000E+00 0.  1.
          2   -1    0    0  501    0  0.00000000000E+00 -0.00000000000E+00 -0.15775106623E+03  0.15775106623E+03  0.00000000000E+00 0. -1.
         23    2    1    2    0    0 -0.10744625999E+03  0.19113699051E+03  0.47087174588E+02  0.24165793495E+03  0.90018373603E+02 0.  0.
         11    1    3    3    0    0 -0.56412224378E+02  0.43853692433E+02 -0.16465965561E+02  0.73325394108E+02  0.00000000000E+00 0.  1.
        -11    1    3    3    0    0 -0.51034035614E+02  0.14728329807E+03  0.63553140149E+02  0.16833254084E+03  0.00000000000E+00 0. -1.
         22    1    1    2    0    0  0.10744625999E+03 -0.19113699051E+03  0.13831667742E+03  0.25924804952E+03  0.00000000000E+00 0.  1.
<mgrwt>
<rscale>  0 0.46533022E+03</rscale>
<asrwt>0</asrwt>
<pdfrwt beam="1">  1        2 0.24269395E-01 0.46533022E+03</pdfrwt>
<pdfrwt beam="2">  1       -2 0.52793064E-01 0.46533022E+03</pdfrwt>
<totfact> 0.77074701E+02</totfact>
</mgrwt>
</event>
<event>
 6    1  0.2236204E-005  0.2650583E+04  0.7818608E-02  0.8351219E-01
          2   -1    0    0  501    0  0.00000000000E+00  0.00000000000E+00  0.78530672122E+03  0.78530672122E+03  0.00000000000E+00 0. -1.
         -2   -1    0    0    0  501 -0.00000000000E+00 -0.00000000000E+00 -0.22365754158E+04  0.22365754158E+04  0.00000000000E+00 0.  1.
         23    2    1    2    0    0  0.35567926623E+03 -0.60343546205E+03  0.55410022495E+03  0.89770074159E+03  0.90539852412E+02 0.  0.
         13    1    3    3    0    0  0.14473424396E+03 -0.16656681628E+03  0.18889834431E+03  0.29047390614E+03  0.00000000000E+00 0.  1.
        -13    1    3    3    0    0  0.21094502227E+03 -0.43686864577E+03  0.36520188064E+03  0.60722683546E+03  0.00000000000E+00 0. -1.
         22    1    1    2    0    0 -0.35567926623E+03  0.60343546205E+03 -0.20053689196E+04  0.21241813955E+04  0.00000000000E+00 0.  1.
<mgrwt>
<rscale>  0 0.26505831E+04</rscale>
<asrwt>0</asrwt>
<pdfrwt beam="1">  1        2 0.12081642E+00 0.26505831E+04</pdfrwt>
<pdfrwt beam="2">  1       -2 0.34408852E+00 0.26505831E+04</pdfrwt>
<totfact> 0.52721819E-01</totfact>
</mgrwt>
</event>
<event>
 6    1  0.2236204E-005  0.1846624E+04  0.7818608E-02  0.8681891E-01
          1   -1    0    0  501    0  0.00000000000E+00  0.00000000000E+00  0.13535948956E+04  0.13535948956E+04  0.00000000000E+00 0. -1.
         -1   -1    0    0    0  501 -0.00000000000E+00 -0.00000000000E+00 -0.62980789423E+03  0.62980789423E+03  0.00000000000E+00 0.  1.
         23    2    1    2    0    0 -0.57890263709E+03 -0.15506529807E+03  0.11139577376E+04  0.12682757289E+04  0.91912858238E+02 0.  0.
         11    1    3    3    0    0 -0.51934108706E+03 -0.11049999171E+03  0.95222925971E+03  0.10902595911E+04  0.00000000000E+00 0. -1.
        -11    1    3    3    0    0 -0.59561550025E+02 -0.44565306355E+02  0.16172847791E+03  0.17801613786E+03  0.00000000000E+00 0.  1.
         22    1    1    2    0    0  0.57890263709E+03  0.15506529807E+03 -0.39017073620E+03  0.71512706094E+03  0.00000000000E+00 0.  1.
<mgrwt>
<rscale>  0 0.18466237E+04</rscale>
<asrwt>0</asrwt>
<pdfrwt beam="1">  1        1 0.20824537E+00 0.18466237E+04</pdfrwt>
<pdfrwt beam="2">  1       -1 0.96893522E-01 0.18466237E+04</pdfrwt>
<totfact> 0.79744539E+00</totfact>
</mgrwt>
</event>
<event>
 6    1  0.2236204E-005  0.1716424E+04  0.7818608E-02  0.8752052E-01
         -1   -1    0    0    0  501 -0.00000000000E+00  0.00000000000E+00  0.46096066373E+03  0.46096066373E+03  0.00000000000E+00 0.  1.
          1   -1    0    0  501    0  0.00000000000E+00 -0.00000000000E+00 -0.15978103369E+04  0.15978103369E+04  0.00000000000E+00 0. -1.
         23    2    1    2    0    0 -0.48261344498E+03 -0.70522169617E+03 -0.58990391735E+03  0.10441759889E+04  0.10983390221E+03 0.  0.
         11    1    3    3    0    0 -0.22714545007E+03 -0.41840102725E+03 -0.35596534624E+03  0.59444579468E+03  0.00000000000E+00 0.  1.
        -11    1    3    3    0    0 -0.25546799491E+03 -0.28682066892E+03 -0.23393857111E+03  0.44973019422E+03  0.00000000000E+00 0. -1.
         22    1    1    2    0    0  0.48261344498E+03  0.70522169617E+03 -0.54694575584E+03  0.10145950117E+04  0.00000000000E+00 0.  1.
<mgrwt>
<rscale>  0 0.17164239E+04</rscale>
<asrwt>0</asrwt>
<pdfrwt beam="1">  1        1 0.24581697E+00 0.17164239E+04</pdfrwt>
<pdfrwt beam="2">  1       -1 0.70917026E-01 0.17164239E+04</pdfrwt>
<totfact> 0.10687777E+01</totfact>
</mgrwt>
</event>
<event>
 6    1  0.2236204E-005  0.1627122E+04  0.7818608E-02  0.8804057E-01
         -2   -1    0    0    0  501 -0.00000000000E+00  0.00000000000E+00  0.76360181054E+03  0.76360181054E+03  0.00000000000E+00 0.  1.
          2   -1    0    0  501    0  0.00000000000E+00 -0.00000000000E+00 -0.86678862944E+03  0.86678862944E+03  0.00000000000E+00 0. -1.
         23    2    1    2    0    0  0.45675736315E+03  0.21868389140E+03  0.58268162026E+03  0.77782639606E+03  0.95110980788E+02 0.  0.
         11    1    3    3    0    0  0.18730265239E+03  0.77809072811E+02  0.16652355059E+03  0.26242451925E+03  0.00000000000E+00 0.  1.
        -11    1    3    3    0    0  0.26945471076E+03  0.14087481859E+03  0.41615806967E+03  0.51540187680E+03  0.00000000000E+00 0. -1.
         22    1    1    2    0    0 -0.45675736315E+03 -0.21868389140E+03 -0.68586843916E+03  0.85256404392E+03  0.00000000000E+00 0. -1.
<mgrwt>
<rscale>  0 0.16271218E+04</rscale>
<asrwt>0</asrwt>
<pdfrwt beam="1">  1        2 0.13335210E+00 0.16271218E+04</pdfrwt>
<pdfrwt beam="2">  1       -2 0.11747720E+00 0.16271218E+04</pdfrwt>
<totfact> 0.16547584E+01</totfact>
</mgrwt>
</event>
<event>
 6    1  0.2236204E-005  0.2792641E+04  0.7818608E-02  0.8305557E-01
          2   -1    0    0  501    0  0.00000000000E+00  0.00000000000E+00  0.22865858020E+04  0.22865858020E+04  0.00000000000E+00 0. -1.
         -2   -1    0    0    0  501 -0.00000000000E+00 -0.00000000000E+00 -0.85267342702E+03  0.85267342702E+03  0.00000000000E+00 0.  1.
         23    2    1    2    0    0 -0.41502036082E+03  0.98070249335E+03  0.17303908589E+04  0.20338548813E+04  0.91070705196E+02 0.  0.
         11    1    3    3    0    0 -0.12235444774E+03  0.26561552254E+03  0.40237734187E+03  0.49742310154E+03  0.00000000000E+00 0. -1.
        -11    1    3    3    0    0 -0.29266591308E+03  0.71508697081E+03  0.13280135170E+04  0.15364317798E+04  0.00000000000E+00 0.  1.
         22    1    1    2    0    0  0.41502036082E+03 -0.98070249335E+03 -0.29647848397E+03  0.11054043477E+04  0.00000000000E+00 0.  1.
<mgrwt>
<rscale>  0 0.27926410E+04</rscale>
<asrwt>0</asrwt>
<pdfrwt beam="1">  1        2 0.35178243E+00 0.27926410E+04</pdfrwt>
<pdfrwt beam="2">  1       -2 0.13118053E+00 0.27926410E+04</pdfrwt>
<totfact> 0.17048950E+00</totfact>
</mgrwt>
</event>
<event>
 6    1  0.2236204E-005  0.2022072E+04  0.7818608E-02  0.8596370E-01
         -2   -1    0    0    0  501 -0.00000000000E+00  0.00000000000E+00  0.23065292557E+04  0.23065292557E+04  0.00000000000E+00 0.  1.
          2   -1    0    0  501    0  0.00000000000E+00 -0.00000000000E+00 -0.44317400963E+03  0.44317400963E+03  0.00000000000E+00 0. -1.
         23    2    1    2    0    0  0.24843516705E+03  0.49016169710E+02  0.22616581653E+04  0.22777203922E+04  0.93754527367E+02 0.  0.
         11    1    3    3    0    0  0.16510373530E+03  0.76853125412E+02  0.15462012268E+04  0.15568891675E+04  0.00000000000E+00 0.  1.
        -11    1    3    3    0    0  0.83331431749E+02 -0.27836955702E+02  0.71545693854E+03  0.72083122471E+03  0.00000000000E+00 0. -1.
         22    1    1    2    0    0 -0.24843516705E+03 -0.49016169710E+02 -0.39830291918E+03  0.47198287315E+03  0.00000000000E+00 0. -1.
<mgrwt>
<rscale>  0 0.20220720E+04</rscale>
<asrwt>0</asrwt>
<pdfrwt beam="1">  1        2 0.68180618E-01 0.20220720E+04</pdfrwt>
<pdfrwt beam="2">  1       -2 0.35485065E+00 0.20220720E+04</pdfrwt>
<totfact> 0.95386932E-01</totfact>
</mgrwt>
</event>
<event>
 6    1  0.2236204E-005  0.1019000E+04  0.7818608E-02  0.9287948E-01
         -1   -1    0    0    0  501 -0.00000000000E+00  0.00000000000E+00  0.92210579828E+03  0.92210579828E+03  0.00000000000E+00 0.  1.
          1   -1    0    0  501    0  0.00000000000E+00 -0.00000000000E+00 -0.28151906172E+03  0.28151906172E+03  0.00000000000E+00 0. -1.
         23    2    1    2    0    0  0.11773054597E+03 -0.15232217750E+02  0.90321650202E+03  0.91541157854E+03  0.89921113754E+02 0.  0.
         11    1    3    3    0    0  0.39659592788E+02 -0.47315228579E+02  0.29716085817E+03  0.30350649051E+03  0.00000000000E+00 0. -1.
        -11    1    3    3    0    0  0.78070953178E+02  0.32083010829E+02  0.60605564385E+03  0.61190508803E+03  0.00000000000E+00 0.  1.
         22    1    1    2    0    0 -0.11773054597E+03  0.15232217750E+02 -0.26262976545E+03  0.28821328147E+03  0.00000000000E+00 0. -1.
<mgrwt>
<rscale>  0 0.10190002E+04</rscale>
<asrwt>0</asrwt>
<pdfrwt beam="1">  1        1 0.43310625E-01 0.10190002E+04</pdfrwt>
<pdfrwt beam="2">  1       -1 0.14186243E+00 0.10190002E+04</pdfrwt>
<totfact> 0.38636388E+01</totfact>
</mgrwt>
</event>
<event>
 6    1  0.2236204E-005  0.3192602E+04  0.7818608E-02  0.8190774E-01
         -2   -1    0    0    0  501 -0.00000000000E+00  0.00000000000E+00  0.79649772176E+03  0.79649772176E+03  0.00000000000E+00 0.  1.
          2   -1    0    0  501    0  0.00000000000E+00 -0.00000000000E+00 -0.31992258478E+04  0.31992258478E+04  0.00000000000E+00 0. -1.
         23    2    1    2    0    0 -0.11070213162E+04 -0.55367656518E+03 -0.24613365107E+04  0.27565751216E+04  0.92060029177E+02 0.  0.
         13    1    3    3    0    0 -0.16746541272E+03 -0.99344229772E+02 -0.32303706340E+03  0.37718282673E+03  0.00000000000E+00 0.  1.
        -13    1    3    3    0    0 -0.93955590350E+03 -0.45433233541E+03 -0.21382994473E+04  0.23793922949E+04  0.00000000000E+00 0. -1.
         22    1    1    2    0    0  0.11070213162E+04  0.55367656518E+03  0.58608384596E+02  0.12391484480E+04  0.00000000000E+00 0. -1.
<mgrwt>
<rscale>  0 0.31926015E+04</rscale>
<asrwt>0</asrwt>
<pdfrwt beam="1">  1        2 0.49218859E+00 0.31926015E+04</pdfrwt>
<pdfrwt beam="2">  1       -2 0.12253811E+00 0.31926015E+04</pdfrwt>
<totfact> 0.55079722E-01</totfact>
</mgrwt>
</event>
<event>
 6    1  0.2236204E-005  0.3002036E+04  0.7818608E-02  0.8243150E-01
          2   -1    0    0  501    0  0.00000000000E+00  0.00000000000E+00  0.19739524973E+04  0.19739524973E+04  0.00000000000E+00 0. -1.
         -2   -1    0    0    0  501 -0.00000000000E+00 -0.00000000000E+00 -0.11413929470E+04  0.11413929470E+04  0.00000000000E+00 0.  1.
         23    2    1    2    0    0  0.11686192723E+04  0.90230057450E+03  0.68986379224E+03  0.16320452691E+04  0.88557204220E+02 0.  0.
         13    1    3    3    0    0  0.51524849915E+03  0.40697605619E+03  0.25901523534E+03  0.70583242936E+03  0.00000000000E+00 0. -1.
        -13    1    3    3    0    0  0.65337077312E+03  0.49532451831E+03  0.43084855689E+03  0.92621283979E+03  0.00000000000E+00 0.  1.
         22    1    1    2    0    0 -0.11686192723E+04 -0.90230057450E+03  0.14269575800E+03  0.14833001752E+04  0.00000000000E+00 0.  1.
<mgrwt>
<rscale>  0 0.30020363E+04</rscale>
<asrwt>0</asrwt>
<pdfrwt beam="1">  1        2 0.30368500E+00 0.30020363E+04</pdfrwt>
<pdfrwt beam="2">  1       -2 0.17559892E+00 0.30020363E+04</pdfrwt>
<totfact> 0.11505601E+00</totfact>
</mgrwt>
</event>
<event>
 6    1  0.2236204E-005  0.4362174E+04  0.7818608E-02  0.7935221E-01
         -2   -1    0    0    0  501 -0.00000000000E+00  0.00000000000E+00  0.18493440433E+04  0.18493440433E+04  0.00000000000E+00 0.  1.
          2   -1    0    0  501    0  0.00000000000E+00 -0.00000000000E+00 -0.25723393033E+04  0.25723393033E+04  0.00000000000E+00 0. -1.
         23    2    1    2    0    0 -0.15570529195E+04 -0.77718649387E+03 -0.16928611048E+04  0.24294302510E+04  0.88994291876E+02 0.  0.
         11    1    3    3    0    0 -0.10013211663E+04 -0.46284429501E+03 -0.10339401058E+04  0.15119196612E+04  0.00000000000E+00 0. -1.
        -11    1    3    3    0    0 -0.55573175314E+03 -0.31434219886E+03 -0.65892099908E+03  0.91751058984E+03  0.00000000000E+00 0.  1.
         22    1    1    2    0    0  0.15570529195E+04  0.77718649387E+03  0.96986584483E+03  0.19922530957E+04  0.00000000000E+00 0.  1.
<mgrwt>
<rscale>  0 0.43621739E+04</rscale>
<asrwt>0</asrwt>
<pdfrwt beam="1">  1        2 0.39574451E+00 0.43621739E+04</pdfrwt>
<pdfrwt beam="2">  1       -2 0.28451447E+00 0.43621739E+04</pdfrwt>
<totfact> 0.95664082E-02</totfact>
</mgrwt>
</event>
<event>
 6    1  0.2236204E-005  0.3291535E+04  0.7818608E-02  0.8165053E-01
         -2   -1    0    0    0  501 -0.00000000000E+00  0.00000000000E+00  0.24369562651E+04  0.24369562651E+04  0.00000000000E+00 0.  1.
          2   -1    0    0  501    0  0.00000000000E+00 -0.00000000000E+00 -0.11114481608E+04  0.11114481608E+04  0.00000000000E+00 0. -1.
         23    2    1    2    0    0 -0.63487375048E+03 -0.15165190865E+04  0.62220297527E+03  0.17602397458E+04  0.91720234851E+02 0.  0.
         11    1    3    3    0    0 -0.57488407451E+03 -0.13531971447E+04  0.52658518341E+03  0.15617061718E+04  0.00000000000E+00 0.  1.
        -11    1    3    3    0    0 -0.59989675968E+02 -0.16332194177E+03  0.95617791860E+02  0.19853357401E+03  0.00000000000E+00 0. -1.
         22    1    1    2    0    0  0.63487375048E+03  0.15165190865E+04  0.70330512901E+03  0.17881646801E+04  0.00000000000E+00 0.  1.
<mgrwt>
<rscale>  0 0.32915349E+04</rscale>
<asrwt>0</asrwt>
<pdfrwt beam="1">  1        2 0.17099203E+00 0.32915349E+04</pdfrwt>
<pdfrwt beam="2">  1       -2 0.37491635E+00 0.32915349E+04</pdfrwt>
<totfact> 0.19329233E-01</totfact>
</mgrwt>
</event>
<event>
 6    1  0.2236204E-005  0.1086663E+04  0.7818608E-02  0.9218289E-01
          3   -1    0    0  501    0  0.00000000000E+00  0.00000000000E+00  0.25657652181E+03  0.25657652181E+03  0.00000000000E+00 0. -1.
         -3   -1    0    0    0  501 -0.00000000000E+00 -0.00000000000E+00 -0.11505698338E+04  0.11505698338E+04  0.00000000000E+00 0.  1.
         23    2    1    2    0    0 -0.18915517909E+02 -0.43001739535E+03 -0.87123892749E+03  0.97611211207E+03  0.92004507697E+02 0.  0.
         13    1    3    3    0    0 -0.11978045196E+02 -0.25358653542E+03 -0.41002066907E+03  0.48225154596E+03  0.00000000000E+00 0. -1.
        -13    1    3    3    0    0 -0.69374727134E+01 -0.17643085993E+03 -0.46121825841E+03  0.49386056611E+03  0.00000000000E+00 0.  1.
         22    1    1    2    0    0  0.18915517909E+02  0.43001739535E+03 -0.22754384552E+02  0.43103424358E+03  0.00000000000E+00 0.  1.
<mgrwt>
<rscale>  0 0.10866632E+04</rscale>
<asrwt>0</asrwt>
<pdfrwt beam="1">  1        3 0.39473311E-01 0.10866632E+04</pdfrwt>
<pdfrwt beam="2">  1       -3 0.17701074E+00 0.10866632E+04</pdfrwt>
<totfact> 0.34429318E+00</totfact>
</mgrwt>
</event>
<event>
 6    1  0.2236204E-005  0.1117479E+04  0.7818608E-02  0.9188321E-01
          2   -1    0    0  501    0  0.00000000000E+00  0.00000000000E+00  0.62086681125E+03  0.62086681125E+03  0.00000000000E+00 0. -1.
         -2   -1    0    0    0  501 -0.00000000000E+00 -0.00000000000E+00 -0.50282906364E+03  0.50282906364E+03  0.00000000000E+00 0.  1.
         23    2    1    2    0    0 -0.30139089222E+03  0.12194678028E+03  0.51173409715E+03  0.61310376492E+03  0.91197331311E+02 0.  0.
         11    1    3    3    0    0 -0.17918780213E+03  0.11707269365E+03  0.35128811319E+03  0.41136069635E+03  0.00000000000E+00 0.  1.
        -11    1    3    3    0    0 -0.12220309009E+03  0.48740866279E+01  0.16044598396E+03  0.20174306857E+03  0.00000000000E+00 0. -1.
         22    1    1    2    0    0  0.30139089222E+03 -0.12194678028E+03 -0.39369634954E+03  0.51059210998E+03  0.00000000000E+00 0.  1.
<mgrwt>
<rscale>  0 0.11174791E+04</rscale>
<asrwt>0</asrwt>
<pdfrwt beam="1">  1        2 0.95517971E-01 0.11174791E+04</pdfrwt>
<pdfrwt beam="2">  1       -2 0.77358317E-01 0.11174791E+04</pdfrwt>
<totfact> 0.70369930E+01</totfact>
</mgrwt>
</event>
<event>
 6    1  0.2236204E-005  0.2096445E+04  0.7818608E-02  0.8562811E-01
          1   -1    0    0  501    0  0.00000000000E+00  0.00000000000E+00  0.17805572171E+04  0.17805572171E+04  0.00000000000E+00 0. -1.
         -1   -1    0    0    0  501 -0.00000000000E+00 -0.00000000000E+00 -0.61709383808E+03  0.61709383808E+03  0.00000000000E+00 0.  1.
         23    2    1    2    0    0  0.54385927866E+03  0.79684228381E+03  0.10457395331E+04  0.14257459959E+04  0.91869111204E+02 0.  0.
         13    1    3    3    0    0  0.48399117514E+03  0.65117034129E+03  0.88819145927E+03  0.12029772813E+04  0.00000000000E+00 0.  1.
        -13    1    3    3    0    0  0.59868103520E+02  0.14567194251E+03  0.15754807380E+03  0.22276871462E+03  0.00000000000E+00 0. -1.
         22    1    1    2    0    0 -0.54385927866E+03 -0.79684228381E+03  0.11772384590E+03  0.97190505922E+03  0.00000000000E+00 0.  1.
<mgrwt>
<rscale>  0 0.20964455E+04</rscale>
<asrwt>0</asrwt>
<pdfrwt beam="1">  1        1 0.27393188E+00 0.20964455E+04</pdfrwt>
<pdfrwt beam="2">  1       -1 0.94937515E-01 0.20964455E+04</pdfrwt>
<totfact> 0.41428717E+00</totfact>
</mgrwt>
</event>
<event>
 6    1  0.2236204E-005  0.9071573E+03  0.7818608E-02  0.9416678E-01
         -2   -1    0    0    0  501 -0.00000000000E+00  0.00000000000E+00  0.21251105854E+03  0.21251105854E+03  0.00000000000E+00 0.  1.
          2   -1    0    0  501    0  0.00000000000E+00 -0.00000000000E+00 -0.96810769846E+03  0.96810769846E+03  0.00000000000E+00 0. -1.
         23    2    1    2    0    0 -0.15902360068E+03  0.40854154940E+03 -0.26310047729E+03  0.52126515432E+03  0.10149284110E+03 0.  0.
         13    1    3    3    0    0 -0.53858793601E+02  0.68666202269E+02 -0.90892955634E+02  0.12600534261E+03  0.00000000000E+00 0. -1.
        -13    1    3    3    0    0 -0.10516480708E+03  0.33987534713E+03 -0.17220752166E+03  0.39525981171E+03  0.00000000000E+00 0.  1.
         22    1    1    2    0    0  0.15902360068E+03 -0.40854154940E+03 -0.49249616263E+03  0.65935360268E+03  0.00000000000E+00 0. -1.
<mgrwt>
<rscale>  0 0.90715730E+03</rscale>
<asrwt>0</asrwt>
<pdfrwt beam="1">  1        2 0.14893965E+00 0.90715730E+03</pdfrwt>
<pdfrwt beam="2">  1       -2 0.32694009E-01 0.90715730E+03</pdfrwt>
<totfact> 0.23067870E+02</totfact>
</mgrwt>
</event>
<event>
 6    1  0.2236204E-005  0.3241423E+04  0.7818608E-02  0.8177962E-01
          2   -1    0    0  501    0  0.00000000000E+00  0.00000000000E+00  0.27513915712E+04  0.27513915712E+04  0.00000000000E+00 0.  1.
         -2   -1    0    0    0  501 -0.00000000000E+00 -0.00000000000E+00 -0.95468247460E+03  0.95468247460E+03  0.00000000000E+00 0. -1.
         23    2    1    2    0    0  0.14507537932E+04 -0.36764336375E+03  0.16069367847E+04  0.21974780954E+04  0.82558696842E+02 0.  0.
         13    1    3    3    0    0  0.91487037017E+03 -0.27099590718E+03  0.10401095789E+04  0.14114724624E+04  0.00000000000E+00 0. -1.
        -13    1    3    3    0    0  0.53588342300E+03 -0.96647456567E+02  0.56682720578E+03  0.78600563301E+03  0.00000000000E+00 0.  1.
         22    1    1    2    0    0 -0.14507537932E+04  0.36764336375E+03  0.18977231196E+03  0.15085959504E+04  0.00000000000E+00 0. -1.
<mgrwt>
<rscale>  0 0.32414227E+04</rscale>
<asrwt>0</asrwt>
<pdfrwt beam="1">  1        2 0.42329101E+00 0.32414227E+04</pdfrwt>
<pdfrwt beam="2">  1       -2 0.14687423E+00 0.32414227E+04</pdfrwt>
<totfact> 0.65739647E-01</totfact>
</mgrwt>
</event>
<event>
 6    1  0.2236204E-005  0.4204125E+04  0.7818608E-02  0.7964588E-01
         -2   -1    0    0    0  501 -0.00000000000E+00  0.00000000000E+00  0.25651327147E+04  0.25651327147E+04  0.00000000000E+00 0.  1.
          2   -1    0    0  501    0  0.00000000000E+00 -0.00000000000E+00 -0.17225881998E+04  0.17225881998E+04  0.00000000000E+00 0. -1.
         23    2    1    2    0    0  0.11560913461E+04  0.16411425656E+04 -0.21090073840E+03  0.20206428340E+04  0.92855910943E+02 0.  0.
         11    1    3    3    0    0  0.56678293533E+03  0.79762560375E+03 -0.14929781679E+03  0.98981783053E+03  0.00000000000E+00 0.  1.
        -11    1    3    3    0    0  0.58930841073E+03  0.84351696186E+03 -0.61602921606E+02  0.10308250035E+04  0.00000000000E+00 0. -1.
         22    1    1    2    0    0 -0.11560913461E+04 -0.16411425656E+04  0.10534452534E+04  0.22670780805E+04  0.00000000000E+00 0.  1.
<mgrwt>
<rscale>  0 0.42041253E+04</rscale>
<asrwt>0</asrwt>
<pdfrwt beam="1">  1        2 0.26501357E+00 0.42041253E+04</pdfrwt>
<pdfrwt beam="2">  1       -2 0.39463580E+00 0.42041253E+04</pdfrwt>
<totfact> 0.59470161E-02</totfact>
</mgrwt>
</event>
<event>
 6    1  0.2236204E-005  0.2726399E+04  0.7818608E-02  0.8326490E-01
          2   -1    0    0  501    0  0.00000000000E+00  0.00000000000E+00  0.17065298502E+04  0.17065298502E+04  0.00000000000E+00 0. -1.
         -2   -1    0    0    0  501 -0.00000000000E+00 -0.00000000000E+00 -0.10889428144E+04  0.10889428144E+04  0.00000000000E+00 0.  1.
         23    2    1    2    0    0  0.38730944565E+02  0.10636535750E+04  0.11799263223E+04  0.15916934128E+04  0.91666682931E+02 0.  0.
         11    1    3    3    0    0  0.26840364351E+02  0.51860056970E+03  0.64295055236E+03  0.82646982330E+03  0.00000000000E+00 0.  1.
        -11    1    3    3    0    0  0.11890580214E+02  0.54505300531E+03  0.53697576991E+03  0.76522358953E+03  0.00000000000E+00 0. -1.
         22    1    1    2    0    0 -0.38730944565E+02 -0.10636535750E+04 -0.56233928652E+03  0.12037792517E+04  0.00000000000E+00 0.  1.
<mgrwt>
<rscale>  0 0.27263994E+04</rscale>
<asrwt>0</asrwt>
<pdfrwt beam="1">  1        2 0.26254305E+00 0.27263994E+04</pdfrwt>
<pdfrwt beam="2">  1       -2 0.16752966E+00 0.27263994E+04</pdfrwt>
<totfact> 0.18901587E+00</totfact>
</mgrwt>
</event>
<event>
 6    1  0.2236204E-005  0.5277365E+03  0.7818608E-02  0.1006783E+00
          2   -1    0    0  501    0  0.00000000000E+00  0.00000000000E+00  0.18330800273E+04  0.18330800273E+04  0.00000000000E+00 0. -1.
         -2   -1    0    0    0  501 -0.00000000000E+00 -0.00000000000E+00 -0.37983309549E+02  0.37983309549E+02  0.00000000000E+00 0.  1.
         23    2    1    2    0    0  0.22043555942E+03  0.79237651064E+02  0.59077213373E+03  0.64416963938E+03  0.10522532542E+03 0.  0.
         11    1    3    3    0    0  0.75043212488E+02 -0.23595843529E+02  0.18658168906E+03  0.20248697308E+03  0.00000000000E+00 0. -1.
        -11    1    3    3    0    0  0.14539234693E+03  0.10283349459E+03  0.40419044466E+03  0.44168266630E+03  0.00000000000E+00 0.  1.
         22    1    1    2    0    0 -0.22043555942E+03 -0.79237651064E+02  0.12043245840E+04  0.12268936975E+04  0.00000000000E+00 0. -1.
<mgrwt>
<rscale>  0 0.52773647E+03</rscale>
<asrwt>0</asrwt>
<pdfrwt beam="1">  1        2 0.28201224E+00 0.52773647E+03</pdfrwt>
<pdfrwt beam="2">  1       -2 0.58435875E-02 0.52773647E+03</pdfrwt>
<totfact> 0.13790723E+03</totfact>
</mgrwt>
</event>
<event>
 6    1  0.2236204E-005  0.3049012E+04  0.7818608E-02  0.8229872E-01
         -2   -1    0    0    0  501 -0.00000000000E+00  0.00000000000E+00  0.16716402481E+04  0.16716402481E+04  0.00000000000E+00 0. -1.
          2   -1    0    0  501    0  0.00000000000E+00 -0.00000000000E+00 -0.13903223426E+04  0.13903223426E+04  0.00000000000E+00 0.  1.
         23    2    1    2    0    0 -0.78376676539E+03 -0.41004960154E+03 -0.11044318791E+04  0.14179633560E+04  0.91756662912E+02 0.  0.
         13    1    3    3    0    0 -0.30623997002E+03 -0.14854846765E+03 -0.49539873927E+03  0.60105696681E+03  0.00000000000E+00 0.  1.
        -13    1    3    3    0    0 -0.47752679536E+03 -0.26150113389E+03 -0.60903313981E+03  0.81690638919E+03  0.00000000000E+00 0. -1.
         22    1    1    2    0    0  0.78376676539E+03  0.41004960154E+03  0.13857497846E+04  0.16439992347E+04  0.00000000000E+00 0. -1.
<mgrwt>
<rscale>  0 0.30490122E+04</rscale>
<asrwt>0</asrwt>
<pdfrwt beam="1">  1        2 0.21389575E+00 0.30490122E+04</pdfrwt>
<pdfrwt beam="2">  1       -2 0.25717542E+00 0.30490122E+04</pdfrwt>
<totfact> 0.72552935E-01</totfact>
</mgrwt>
</event>
<event>
 6    1  0.2236204E-005  0.1328811E+04  0.7818608E-02  0.9007025E-01
         -2   -1    0    0    0  501 -0.00000000000E+00  0.00000000000E+00  0.36592005293E+03  0.36592005293E+03  0.00000000000E+00 0.  1.
          2   -1    0    0  501    0  0.00000000000E+00 -0.00000000000E+00 -0.12063685821E+04  0.12063685821E+04  0.00000000000E+00 0. -1.
         23    2    1    2    0    0  0.53819943759E+03  0.33199690873E+03 -0.65082579249E+03  0.91210883808E+03  0.92128922155E+02 0.  0.
         13    1    3    3    0    0  0.28000588118E+03  0.14266270825E+03 -0.26775079123E+03  0.41285158111E+03  0.00000000000E+00 0.  1.
        -13    1    3    3    0    0  0.25819355641E+03  0.18933420048E+03 -0.38307500126E+03  0.49925725697E+03  0.00000000000E+00 0. -1.
         22    1    1    2    0    0 -0.53819943759E+03 -0.33199690873E+03 -0.18962273667E+03  0.66017979694E+03  0.00000000000E+00 0. -1.
<mgrwt>
<rscale>  0 0.13288107E+04</rscale>
<asrwt>0</asrwt>
<pdfrwt beam="1">  1        2 0.18559517E+00 0.13288107E+04</pdfrwt>
<pdfrwt beam="2">  1       -2 0.56295392E-01 0.13288107E+04</pdfrwt>
<totfact> 0.54389509E+01</totfact>
</mgrwt>
</event>
<event>
 6    1  0.2236204E-005  0.3732453E+04  0.7818608E-02  0.8060808E-01
         -2   -1    0    0    0  501 -0.00000000000E+00  0.00000000000E+00  0.25101825171E+04  0.25101825171E+04  0.00000000000E+00 0.  1.
          2   -1    0    0  501    0  0.00000000000E+00 -0.00000000000E+00 -0.13874695315E+04  0.13874695315E+04  0.00000000000E+00 0. -1.
         23    2    1    2    0    0 -0.17676859941E+04 -0.56029662980E+03  0.35222454712E+03  0.18895936527E+04  0.88633817685E+02 0.  0.
         13    1    3    3    0    0 -0.12901572434E+04 -0.44449120520E+03  0.23908378750E+03  0.13853660894E+04  0.00000000000E+00 0.  1.
        -13    1    3    3    0    0 -0.47752875075E+03 -0.11580542460E+03  0.11314075962E+03  0.50422756335E+03  0.00000000000E+00 0. -1.
         22    1    1    2    0    0  0.17676859941E+04  0.56029662980E+03  0.77048843853E+03  0.20080583958E+04  0.00000000000E+00 0. -1.
<mgrwt>
<rscale>  0 0.37324532E+04</rscale>
<asrwt>0</asrwt>
<pdfrwt beam="1">  1        2 0.21345685E+00 0.37324532E+04</pdfrwt>
<pdfrwt beam="2">  1       -2 0.38618193E+00 0.37324532E+04</pdfrwt>
<totfact> 0.10824495E-01</totfact>
</mgrwt>
</event>
<event>
 6    1  0.2236204E-005  0.1744589E+04  0.7818608E-02  0.8736335E-01
          2   -1    0    0  501    0  0.00000000000E+00  0.00000000000E+00  0.49761702438E+03  0.49761702438E+03  0.00000000000E+00 0. -1.
         -2   -1    0    0    0  501 -0.00000000000E+00 -0.00000000000E+00 -0.15290820529E+04  0.15290820529E+04  0.00000000000E+00 0.  1.
         23    2    1    2    0    0  0.32260714899E+03  0.18046182044E+03 -0.14318022160E+04  0.14818030277E+04  0.95083046426E+02 0.  0.
         11    1    3    3    0    0  0.15457436562E+03  0.46951253495E+02 -0.49347152871E+03  0.51924156648E+03  0.00000000000E+00 0.  1.
        -11    1    3    3    0    0  0.16803278337E+03  0.13351056694E+03 -0.93833068734E+03  0.96256146119E+03  0.00000000000E+00 0. -1.
         22    1    1    2    0    0 -0.32260714899E+03 -0.18046182044E+03  0.40033718750E+03  0.54489604964E+03  0.00000000000E+00 0. -1.
<mgrwt>
<rscale>  0 0.17445885E+04</rscale>
<asrwt>0</asrwt>
<pdfrwt beam="1">  1        2 0.76556464E-01 0.17445885E+04</pdfrwt>
<pdfrwt beam="2">  1       -2 0.23524340E+00 0.17445885E+04</pdfrwt>
<totfact> 0.46537999E+00</totfact>
</mgrwt>
</event>
<event>
 6    1  0.2236204E-005  0.5607577E+04  0.7818608E-02  0.7741058E-01
          2   -1    0    0  501    0  0.00000000000E+00  0.00000000000E+00  0.32721747818E+04  0.32721747818E+04  0.00000000000E+00 0.  1.
         -2   -1    0    0    0  501 -0.00000000000E+00 -0.00000000000E+00 -0.24024479151E+04  0.24024479151E+04  0.00000000000E+00 0. -1.
         23    2    1    2    0    0 -0.13590150314E+04  0.22008783546E+04 -0.65800273881E+03  0.26705013387E+04  0.88444380584E+02 0.  0.
         11    1    3    3    0    0 -0.10933230503E+04  0.17802241532E+04 -0.49560728561E+03  0.21471329511E+04  0.00000000000E+00 0.  1.
        -11    1    3    3    0    0 -0.26569198111E+03  0.42065420133E+03 -0.16239545320E+03  0.52336838760E+03  0.00000000000E+00 0. -1.
         22    1    1    2    0    0  0.13590150314E+04 -0.22008783546E+04  0.15277296055E+04  0.30041213582E+04  0.00000000000E+00 0.  1.
<mgrwt>
<rscale>  0 0.56075768E+04</rscale>
<asrwt>0</asrwt>
<pdfrwt beam="1">  1        2 0.50341151E+00 0.56075768E+04</pdfrwt>
<pdfrwt beam="2">  1       -2 0.36960737E+00 0.56075768E+04</pdfrwt>
<totfact> 0.94108712E-03</totfact>
</mgrwt>
</event>
<event>
 6    1  0.2236204E-005  0.2451777E+04  0.7818608E-02  0.8420369E-01
          2   -1    0    0  501    0  0.00000000000E+00  0.00000000000E+00  0.10285620925E+04  0.10285620925E+04  0.00000000000E+00 0. -1.
         -2   -1    0    0    0  501 -0.00000000000E+00 -0.00000000000E+00 -0.14610716764E+04  0.14610716764E+04  0.00000000000E+00 0.  1.
         23    2    1    2    0    0  0.21831677394E+03  0.11115557280E+04 -0.68817059044E+03  0.13283496089E+04  0.87838327986E+02 0.  0.
         11    1    3    3    0    0  0.53836441369E+02  0.49666655981E+03 -0.31174699431E+03  0.58886519893E+03  0.00000000000E+00 0. -1.
        -11    1    3    3    0    0  0.16448033257E+03  0.61488916815E+03 -0.37642359612E+03  0.73948441000E+03  0.00000000000E+00 0.  1.
         22    1    1    2    0    0 -0.21831677394E+03 -0.11115557280E+04  0.25566100653E+03  0.11612841601E+04  0.00000000000E+00 0.  1.
<mgrwt>
<rscale>  0 0.24517773E+04</rscale>
<asrwt>0</asrwt>
<pdfrwt beam="1">  1        2 0.15824032E+00 0.24517773E+04</pdfrwt>
<pdfrwt beam="2">  1       -2 0.22478026E+00 0.24517773E+04</pdfrwt>
<totfact> 0.19934622E+00</totfact>
</mgrwt>
</event>
<event>
 6    1  0.2236204E-005  0.3509141E+04  0.7818608E-02  0.8111627E-01
          1   -1    0    0  501    0  0.00000000000E+00  0.00000000000E+00  0.16325463318E+04  0.16325463318E+04  0.00000000000E+00 0. -1.
         -1   -1    0    0    0  501 -0.00000000000E+00 -0.00000000000E+00 -0.18857148859E+04  0.18857148859E+04  0.00000000000E+00 0.  1.
         23    2    1    2    0    0  0.87954113155E+03  0.39250738462E+02  0.13933207545E+04  0.16511617918E+04  0.99294083394E+02 0.  0.
         11    1    3    3    0    0  0.71189240834E+03  0.23926514428E+02  0.10502326054E+04  0.12689963769E+04  0.00000000000E+00 0. -1.
        -11    1    3    3    0    0  0.16764872321E+03  0.15324224034E+02  0.34308814917E+03  0.38216541489E+03  0.00000000000E+00 0.  1.
         22    1    1    2    0    0 -0.87954113155E+03 -0.39250738462E+02 -0.16464893087E+04  0.18670994259E+04  0.00000000000E+00 0.  1.
<mgrwt>
<rscale>  0 0.35091406E+04</rscale>
<asrwt>0</asrwt>
<pdfrwt beam="1">  1        1 0.25116097E+00 0.35091406E+04</pdfrwt>
<pdfrwt beam="2">  1       -1 0.29010998E+00 0.35091406E+04</pdfrwt>
<totfact> 0.16538094E-01</totfact>
</mgrwt>
</event>
<event>
 6    1  0.2236204E-005  0.2447022E+04  0.7818608E-02  0.8422106E-01
         -2   -1    0    0    0  501 -0.00000000000E+00  0.00000000000E+00  0.87382265840E+03  0.87382265840E+03  0.00000000000E+00 0.  1.
          2   -1    0    0  501    0  0.00000000000E+00 -0.00000000000E+00 -0.17131389517E+04  0.17131389517E+04  0.00000000000E+00 0. -1.
         23    2    1    2    0    0  0.18475873938E+03 -0.11071128746E+04  0.89989200019E+02  0.11297576406E+04  0.91758168441E+02 0.  0.
         11    1    3    3    0    0  0.58839009946E+02 -0.48996080317E+03  0.79214215385E+02  0.49979846903E+03  0.00000000000E+00 0.  1.
        -11    1    3    3    0    0  0.12591972944E+03 -0.61715207143E+03  0.10774984634E+02  0.62995917156E+03  0.00000000000E+00 0. -1.
         22    1    1    2    0    0 -0.18475873938E+03  0.11071128746E+04 -0.92930549335E+03  0.14572039695E+04  0.00000000000E+00 0. -1.
<mgrwt>
<rscale>  0 0.24470224E+04</rscale>
<asrwt>0</asrwt>
<pdfrwt beam="1">  1        2 0.26355984E+00 0.24470224E+04</pdfrwt>
<pdfrwt beam="2">  1       -2 0.13443426E+00 0.24470224E+04</pdfrwt>
<totfact> 0.34450988E+00</totfact>
</mgrwt>
</event>
<event>
 6    1  0.2236204E-005  0.4961756E+04  0.7818608E-02  0.7834434E-01
         -2   -1    0    0    0  501 -0.00000000000E+00  0.00000000000E+00  0.15573551090E+04  0.15573551090E+04  0.00000000000E+00 0.  1.
          2   -1    0    0  501    0  0.00000000000E+00 -0.00000000000E+00 -0.39520559904E+04  0.39520559904E+04  0.00000000000E+00 0. -1.
         23    2    1    2    0    0 -0.17560239111E+04  0.98928308440E+03  0.40692668258E+03  0.20581188769E+04  0.89235582627E+02 0.  0.
         13    1    3    3    0    0 -0.12612893933E+04  0.75130665495E+03  0.27797176368E+03  0.14941823599E+04  0.00000000000E+00 0.  1.
        -13    1    3    3    0    0 -0.49473451779E+03  0.23797642945E+03  0.12895491890E+03  0.56393651697E+03  0.00000000000E+00 0. -1.
         22    1    1    2    0    0  0.17560239111E+04 -0.98928308440E+03 -0.28016275640E+04  0.34512922224E+04  0.00000000000E+00 0. -1.
<mgrwt>
<rscale>  0 0.49617556E+04</rscale>
<asrwt>0</asrwt>
<pdfrwt beam="1">  1        2 0.60800861E+00 0.49617556E+04</pdfrwt>
<pdfrwt beam="2">  1       -2 0.23959310E+00 0.49617556E+04</pdfrwt>
<totfact> 0.20254375E-02</totfact>
</mgrwt>
</event>
<event>
 6    1  0.2236204E-005  0.3757141E+03  0.7818608E-02  0.1052529E+00
          2   -1    0    0  501    0  0.00000000000E+00  0.00000000000E+00  0.13773409930E+04  0.13773409930E+04  0.00000000000E+00 0.  1.
         -2   -1    0    0    0  501 -0.00000000000E+00 -0.00000000000E+00 -0.25622035340E+02  0.25622035340E+02  0.00000000000E+00 0. -1.
         23    2    1    2    0    0  0.15004881981E+03 -0.81879934901E+02  0.89370384645E+03  0.91409002422E+03  0.87378688163E+02 0.  0.
         13    1    3    3    0    0  0.33212099511E+02 -0.55528296666E+02  0.20249317855E+03  0.21257921499E+03  0.00000000000E+00 0.  1.
        -13    1    3    3    0    0  0.11683672030E+03 -0.26351638235E+02  0.69121066790E+03  0.70151080923E+03  0.00000000000E+00 0. -1.
         22    1    1    2    0    0 -0.15004881981E+03  0.81879934901E+02  0.45801511121E+03  0.48887300413E+03  0.00000000000E+00 0. -1.
<mgrwt>
<rscale>  0 0.37571414E+03</rscale>
<asrwt>0</asrwt>
<pdfrwt beam="1">  1        2 0.21189856E+00 0.37571414E+03</pdfrwt>
<pdfrwt beam="2">  1       -2 0.39418527E-02 0.37571414E+03</pdfrwt>
<totfact> 0.44816903E+03</totfact>
</mgrwt>
</event>
<event>
 6    1  0.2236204E-005  0.4316561E+04  0.7818608E-02  0.7943563E-01
         -2   -1    0    0    0  501 -0.00000000000E+00  0.00000000000E+00  0.22404924463E+04  0.22404924463E+04  0.00000000000E+00 0.  1.
          2   -1    0    0  501    0  0.00000000000E+00 -0.00000000000E+00 -0.20790851173E+04  0.20790851173E+04  0.00000000000E+00 0. -1.
         23    2    1    2    0    0 -0.45202486057E+03  0.16415444657E+04  0.14065470504E+04  0.22102251433E+04  0.87896938233E+02 0.  0.
         11    1    3    3    0    0 -0.35837000114E+03  0.13918137293E+04  0.11585067397E+04  0.18459990197E+04  0.00000000000E+00 0.  1.
        -11    1    3    3    0    0 -0.93654859427E+02  0.24973073633E+03  0.24804031072E+03  0.36422612359E+03  0.00000000000E+00 0. -1.
         22    1    1    2    0    0  0.45202486057E+03 -0.16415444657E+04 -0.12451397214E+04  0.21093524203E+04  0.00000000000E+00 0.  1.
<mgrwt>
<rscale>  0 0.43165609E+04</rscale>
<asrwt>0</asrwt>
<pdfrwt beam="1">  1        2 0.31985925E+00 0.43165609E+04</pdfrwt>
<pdfrwt beam="2">  1       -2 0.34469115E+00 0.43165609E+04</pdfrwt>
<totfact> 0.77989562E-02</totfact>
</mgrwt>
</event>
<event>
 6    1  0.2236204E-005  0.1848946E+04  0.7818608E-02  0.8680695E-01
          2   -1    0    0  501    0  0.00000000000E+00  0.00000000000E+00  0.90297721737E+03  0.90297721737E+03  0.00000000000E+00 0.  1.
         -2   -1    0    0    0  501 -0.00000000000E+00 -0.00000000000E+00 -0.94648005230E+03  0.94648005230E+03  0.00000000000E+00 0. -1.
         23    2    1    2    0    0  0.16435075643E+02 -0.21732055851E+03 -0.91831699919E+03  0.94790407720E+03  0.87850393956E+02 0.  0.
         13    1    3    3    0    0  0.36755019777E+02 -0.10299986357E+03 -0.57989488514E+03  0.59011692162E+03  0.00000000000E+00 0.  1.
        -13    1    3    3    0    0 -0.20319944135E+02 -0.11432069494E+03 -0.33842211405E+03  0.35778715559E+03  0.00000000000E+00 0. -1.
         22    1    1    2    0    0 -0.16435075643E+02  0.21732055851E+03  0.87481416426E+03  0.90155319247E+03  0.00000000000E+00 0.  1.
<mgrwt>
<rscale>  0 0.18489456E+04</rscale>
<asrwt>0</asrwt>
<pdfrwt beam="1">  1        2 0.13891957E+00 0.18489456E+04</pdfrwt>
<pdfrwt beam="2">  1       -2 0.14561231E+00 0.18489456E+04</pdfrwt>
<totfact> 0.88925033E+00</totfact>
</mgrwt>
</event>
<event>
 6    1  0.2236204E-005  0.1101103E+04  0.7818608E-02  0.9204118E-01
         -1   -1    0    0    0  501 -0.00000000000E+00  0.00000000000E+00  0.34689203431E+03  0.34689203431E+03  0.00000000000E+00 0.  1.
          1   -1    0    0  501    0  0.00000000000E+00 -0.00000000000E+00 -0.87377837196E+03  0.87377837196E+03  0.00000000000E+00 0. -1.
         23    2    1    2    0    0  0.45039233156E+02  0.24874902451E+03 -0.80280081201E+03  0.84646002844E+03  0.90004590233E+02 0.  0.
         11    1    3    3    0    0  0.57734592357E+02  0.80472571508E+02 -0.27135022075E+03  0.28885993184E+03  0.00000000000E+00 0.  1.
        -11    1    3    3    0    0 -0.12695359200E+02  0.16827645301E+03 -0.53145059126E+03  0.55760009660E+03  0.00000000000E+00 0. -1.
         22    1    1    2    0    0 -0.45039233156E+02 -0.24874902451E+03  0.27591447435E+03  0.37421037783E+03  0.00000000000E+00 0.  1.
<mgrwt>
<rscale>  0 0.11011026E+04</rscale>
<asrwt>0</asrwt>
<pdfrwt beam="1">  1        1 0.13442744E+00 0.11011026E+04</pdfrwt>
<pdfrwt beam="2">  1       -1 0.53368006E-01 0.11011026E+04</pdfrwt>
<totfact> 0.67494802E+01</totfact>
</mgrwt>
</event>
<event>
 6    1  0.2236204E-005  0.8691609E+03  0.7818608E-02  0.9464975E-01
         -2   -1    0    0    0  501 -0.00000000000E+00  0.00000000000E+00  0.55343912808E+02  0.55343912808E+02  0.00000000000E+00 0.  1.
          2   -1    0    0  501    0  0.00000000000E+00 -0.00000000000E+00 -0.34124829669E+04  0.34124829669E+04  0.00000000000E+00 0. -1.
         23    2    1    2    0    0 -0.25462088443E+03  0.25536972280E+03 -0.26298149323E+04  0.26560104791E+04  0.91758362131E+02 0.  0.
         13    1    3    3    0    0 -0.13661849986E+03  0.12957302811E+03 -0.16940952911E+04  0.17045271014E+04  0.00000000000E+00 0. -1.
        -13    1    3    3    0    0 -0.11800238457E+03  0.12579669469E+03 -0.93571964120E+03  0.95148337772E+03  0.00000000000E+00 0.  1.
         22    1    1    2    0    0  0.25462088443E+03 -0.25536972280E+03 -0.72732412185E+03  0.81181640063E+03  0.00000000000E+00 0. -1.
<mgrwt>
<rscale>  0 0.86916088E+03</rscale>
<asrwt>0</asrwt>
<pdfrwt beam="1">  1        2 0.52499740E+00 0.86916088E+03</pdfrwt>
<pdfrwt beam="2">  1       -2 0.85144478E-02 0.86916088E+03</pdfrwt>
<totfact> 0.87859220E+01</totfact>
</mgrwt>
</event>
<event>
 6    1  0.2236204E-005  0.2725027E+04  0.7818608E-02  0.8326930E-01
         -2   -1    0    0    0  501 -0.00000000000E+00  0.00000000000E+00  0.66491169525E+03  0.66491169525E+03  0.00000000000E+00 0.  1.
          2   -1    0    0  501    0  0.00000000000E+00 -0.00000000000E+00 -0.27920139399E+04  0.27920139399E+04  0.00000000000E+00 0. -1.
         23    2    1    2    0    0  0.44118276209E+03  0.91803876602E+03 -0.22099082919E+04  0.24350184735E+04  0.90459395209E+02 0.  0.
         11    1    3    3    0    0  0.38476539763E+03  0.85081548284E+03 -0.20488019637E+04  0.22515596558E+04  0.00000000000E+00 0.  1.
        -11    1    3    3    0    0  0.56417364456E+02  0.67223283186E+02 -0.16110632822E+03  0.18345881774E+03  0.00000000000E+00 0. -1.
         22    1    1    2    0    0 -0.44118276209E+03 -0.91803876602E+03  0.82806047290E+02  0.10219071616E+04  0.00000000000E+00 0.  1.
<mgrwt>
<rscale>  0 0.27250268E+04</rscale>
<asrwt>0</asrwt>
<pdfrwt beam="1">  1        2 0.42954060E+00 0.27250268E+04</pdfrwt>
<pdfrwt beam="2">  1       -2 0.10229411E+00 0.27250268E+04</pdfrwt>
<totfact> 0.16014794E+00</totfact>
</mgrwt>
</event>
<event>
 6    1  0.2236204E-005  0.3238426E+04  0.7818608E-02  0.8178742E-01
         -2   -1    0    0    0  501 -0.00000000000E+00  0.00000000000E+00  0.10898021034E+04  0.10898021034E+04  0.00000000000E+00 0.  1.
          2   -1    0    0  501    0  0.00000000000E+00 -0.00000000000E+00 -0.24058037785E+04  0.24058037785E+04  0.00000000000E+00 0. -1.
         23    2    1    2    0    0 -0.30537795474E+03 -0.10113585478E+04  0.66419236138E+03  0.12512195003E+04  0.91087527916E+02 0.  0.
         13    1    3    3    0    0 -0.25118991593E+03 -0.82679129035E+03  0.58324766008E+03  0.10425248413E+04  0.00000000000E+00 0. -1.
        -13    1    3    3    0    0 -0.54188038809E+02 -0.18456725741E+03  0.80944701307E+02  0.20869465908E+03  0.00000000000E+00 0.  1.
         22    1    1    2    0    0  0.30537795474E+03  0.10113585478E+04 -0.19801940365E+04  0.22443863815E+04  0.00000000000E+00 0. -1.
<mgrwt>
<rscale>  0 0.32384256E+04</rscale>
<asrwt>0</asrwt>
<pdfrwt beam="1">  1        2 0.37012366E+00 0.32384256E+04</pdfrwt>
<pdfrwt beam="2">  1       -2 0.16766186E+00 0.32384256E+04</pdfrwt>
<totfact> 0.73342060E-01</totfact>
</mgrwt>
</event>
<event>
 6    1  0.2236204E-005  0.3723162E+04  0.7818608E-02  0.8062848E-01
         -2   -1    0    0    0  501 -0.00000000000E+00  0.00000000000E+00  0.31686268378E+04  0.31686268378E+04  0.00000000000E+00 0.  1.
          2   -1    0    0  501    0  0.00000000000E+00 -0.00000000000E+00 -0.10936860285E+04  0.10936860285E+04  0.00000000000E+00 0. -1.
         23    2    1    2    0    0  0.50844803592E+03 -0.15814870829E+04  0.19969670837E+04  0.25992732695E+04  0.93398057558E+02 0.  0.
         11    1    3    3    0    0  0.32234088923E+03 -0.85302018064E+03  0.11070240151E+04  0.14342416977E+04  0.00000000000E+00 0. -1.
        -11    1    3    3    0    0  0.18610714669E+03 -0.72846690230E+03  0.88994306863E+03  0.11650315718E+04  0.00000000000E+00 0.  1.
         22    1    1    2    0    0 -0.50844803592E+03  0.15814870829E+04  0.77973725527E+02  0.16630395968E+04  0.00000000000E+00 0. -1.
<mgrwt>
<rscale>  0 0.37231615E+04</rscale>
<asrwt>0</asrwt>
<pdfrwt beam="1">  1        2 0.16825939E+00 0.37231615E+04</pdfrwt>
<pdfrwt beam="2">  1       -2 0.48748105E+00 0.37231615E+04</pdfrwt>
<totfact> 0.35064885E-02</totfact>
</mgrwt>
</event>
<event>
 6    1  0.2236204E-005  0.4861526E+04  0.7818608E-02  0.7850230E-01
          2   -1    0    0  501    0  0.00000000000E+00  0.00000000000E+00  0.40783860506E+04  0.40783860506E+04  0.00000000000E+00 0. -1.
         -2   -1    0    0    0  501 -0.00000000000E+00 -0.00000000000E+00 -0.14487613357E+04  0.14487613357E+04  0.00000000000E+00 0.  1.
         23    2    1    2    0    0 -0.10383463936E+04 -0.15086024017E+04 -0.50038367870E+03  0.19007170501E+04  0.91088083680E+02 0.  0.
         11    1    3    3    0    0 -0.50267757933E+03 -0.76005155927E+03 -0.20507428044E+03  0.93403350155E+03  0.00000000000E+00 0.  1.
        -11    1    3    3    0    0 -0.53566881423E+03 -0.74855084247E+03 -0.29530939826E+03  0.96668354853E+03  0.00000000000E+00 0. -1.
         22    1    1    2    0    0  0.10383463936E+04  0.15086024017E+04  0.31300083935E+04  0.36264303362E+04  0.00000000000E+00 0. -1.
<mgrwt>
<rscale>  0 0.48615257E+04</rscale>
<asrwt>0</asrwt>
<pdfrwt beam="1">  1        2 0.62744400E+00 0.48615257E+04</pdfrwt>
<pdfrwt beam="2">  1       -2 0.22288636E+00 0.48615257E+04</pdfrwt>
<totfact> 0.20472470E-02</totfact>
</mgrwt>
</event>
<event>
 6    1  0.2236204E-005  0.7623602E+03  0.7818608E-02  0.9616156E-01
         -1   -1    0    0    0  501 -0.00000000000E+00  0.00000000000E+00  0.13218141485E+03  0.13218141485E+03  0.00000000000E+00 0.  1.
          1   -1    0    0  501    0  0.00000000000E+00 -0.00000000000E+00 -0.10992336918E+04  0.10992336918E+04  0.00000000000E+00 0. -1.
         23    2    1    2    0    0 -0.27551122799E+02 -0.15772065590E+03 -0.10397071684E+04  0.10555924604E+04  0.87461858935E+02 0.  0.
         11    1    3    3    0    0 -0.48652748312E+02 -0.40667586716E+02 -0.34596248505E+03  0.35172572210E+03  0.00000000000E+00 0. -1.
        -11    1    3    3    0    0  0.21101625513E+02 -0.11705306919E+03 -0.69374468335E+03  0.70386673830E+03  0.00000000000E+00 0.  1.
         22    1    1    2    0    0  0.27551122799E+02  0.15772065590E+03  0.72654891483E+02  0.17582264622E+03  0.00000000000E+00 0.  1.
<mgrwt>
<rscale>  0 0.76236019E+03</rscale>
<asrwt>0</asrwt>
<pdfrwt beam="1">  1        1 0.16911287E+00 0.76236019E+03</pdfrwt>
<pdfrwt beam="2">  1       -1 0.20335603E-01 0.76236019E+03</pdfrwt>
<totfact> 0.25546484E+02</totfact>
</mgrwt>
</event>
<event>
 6    1  0.2236204E-005  0.1833327E+04  0.7818608E-02  0.8688775E-01
          2   -1    0    0  501    0  0.00000000000E+00  0.00000000000E+00  0.87711356703E+03  0.87711356703E+03  0.00000000000E+00 0. -1.
         -2   -1    0    0    0  501 -0.00000000000E+00 -0.00000000000E+00 -0.95799656027E+03  0.95799656027E+03  0.00000000000E+00 0.  1.
         23    2    1    2    0    0  0.54455693105E+02 -0.79201616782E+03 -0.49432712075E+03  0.94001735045E+03  0.94964647345E+02 0.  0.
         11    1    3    3    0    0  0.55392461899E+02 -0.43866609530E+03 -0.22755018688E+03  0.49726789113E+03  0.00000000000E+00 0. -1.
        -11    1    3    3    0    0 -0.93676879377E+00 -0.35335007251E+03 -0.26677693387E+03  0.44274945932E+03  0.00000000000E+00 0.  1.
         22    1    1    2    0    0 -0.54455693105E+02  0.79201616782E+03  0.41344412751E+03  0.89509277685E+03  0.00000000000E+00 0. -1.
<mgrwt>
<rscale>  0 0.18333268E+04</rscale>
<asrwt>0</asrwt>
<pdfrwt beam="1">  1        2 0.13494055E+00 0.18333268E+04</pdfrwt>
<pdfrwt beam="2">  1       -2 0.14738409E+00 0.18333268E+04</pdfrwt>
<totfact> 0.89812003E+00</totfact>
</mgrwt>
</event>
<event>
 6    1  0.2236204E-005  0.2037660E+04  0.7818608E-02  0.8589213E-01
         -1   -1    0    0    0  501 -0.00000000000E+00  0.00000000000E+00  0.21149368537E+04  0.21149368537E+04  0.00000000000E+00 0.  1.
          1   -1    0    0  501    0  0.00000000000E+00 -0.00000000000E+00 -0.49080185558E+03  0.49080185558E+03  0.00000000000E+00 0. -1.
         23    2    1    2    0    0  0.39811520751E+03  0.93204618968E+03  0.70689861195E+03  0.12387974500E+04  0.87793259625E+02 0.  0.
         11    1    3    3    0    0  0.11108795694E+03  0.33686935757E+03  0.21197228388E+03  0.41322360458E+03  0.00000000000E+00 0.  1.
        -11    1    3    3    0    0  0.28702725057E+03  0.59517683211E+03  0.49492632808E+03  0.82557384544E+03  0.00000000000E+00 0. -1.
         22    1    1    2    0    0 -0.39811520751E+03 -0.93204618968E+03  0.91723638613E+03  0.13669412592E+04  0.00000000000E+00 0.  1.
<mgrwt>
<rscale>  0 0.20376604E+04</rscale>
<asrwt>0</asrwt>
<pdfrwt beam="1">  1        1 0.75507979E-01 0.20376604E+04</pdfrwt>
<pdfrwt beam="2">  1       -1 0.32537489E+00 0.20376604E+04</pdfrwt>
<totfact> 0.95011707E-01</totfact>
</mgrwt>
</event>
<event>
 6    1  0.2236204E-005  0.2548121E+04  0.7818608E-02  0.8386040E-01
          2   -1    0    0  501    0  0.00000000000E+00  0.00000000000E+00  0.13386161913E+04  0.13386161913E+04  0.00000000000E+00 0. -1.
         -2   -1    0    0    0  501 -0.00000000000E+00 -0.00000000000E+00 -0.12126184539E+04  0.12126184539E+04  0.00000000000E+00 0.  1.
         23    2    1    2    0    0  0.68207822576E+02  0.11582384997E+04 -0.45928122652E+03  0.12517269712E+04  0.98551692778E+02 0.  0.
         13    1    3    3    0    0 -0.18836655012E+02  0.35394024519E+03 -0.11634955377E+03  0.37304923991E+03  0.00000000000E+00 0.  1.
        -13    1    3    3    0    0  0.87044477587E+02  0.80429825454E+03 -0.34293167275E+03  0.87867773131E+03  0.00000000000E+00 0. -1.
         22    1    1    2    0    0 -0.68207822576E+02 -0.11582384997E+04  0.58527896390E+03  0.12995076740E+04  0.00000000000E+00 0. -1.
<mgrwt>
<rscale>  0 0.25481214E+04</rscale>
<asrwt>0</asrwt>
<pdfrwt beam="1">  1        2 0.20594095E+00 0.25481214E+04</pdfrwt>
<pdfrwt beam="2">  1       -2 0.18655669E+00 0.25481214E+04</pdfrwt>
<totfact> 0.22805511E+00</totfact>
</mgrwt>
</event>
<event>
 6    1  0.2236204E-005  0.1511800E+04  0.7818608E-02  0.8876644E-01
          2   -1    0    0  501    0  0.00000000000E+00  0.00000000000E+00  0.15780316489E+04  0.15780316489E+04  0.00000000000E+00 0. -1.
         -2   -1    0    0    0  501 -0.00000000000E+00 -0.00000000000E+00 -0.36208687993E+03  0.36208687993E+03  0.00000000000E+00 0.  1.
         23    2    1    2    0    0  0.10190738573E+03  0.28207738528E+03  0.14965611176E+04  0.15293895407E+04  0.96873226678E+02 0.  0.
         13    1    3    3    0    0  0.97566763034E+01  0.16157248627E+03  0.69513262556E+03  0.71372980053E+03  0.00000000000E+00 0.  1.
        -13    1    3    3    0    0  0.92150709425E+02  0.12050489901E+03  0.80142849204E+03  0.81565974020E+03  0.00000000000E+00 0. -1.
         22    1    1    2    0    0 -0.10190738573E+03 -0.28207738528E+03 -0.28061634862E+03  0.41072898810E+03  0.00000000000E+00 0.  1.
<mgrwt>
<rscale>  0 0.15117997E+04</rscale>
<asrwt>0</asrwt>
<pdfrwt beam="1">  1        2 0.24277410E+00 0.15117997E+04</pdfrwt>
<pdfrwt beam="2">  1       -2 0.55705674E-01 0.15117997E+04</pdfrwt>
<totfact> 0.33523475E+01</totfact>
</mgrwt>
</event>
<event>
 6    1  0.2236204E-005  0.1884720E+04  0.7818608E-02  0.8662500E-01
          2   -1    0    0  501    0  0.00000000000E+00  0.00000000000E+00  0.12821879506E+04  0.12821879506E+04  0.00000000000E+00 0. -1.
         -2   -1    0    0    0  501 -0.00000000000E+00 -0.00000000000E+00 -0.69259920991E+03  0.69259920991E+03  0.00000000000E+00 0.  1.
         23    2    1    2    0    0  0.40031068272E+03  0.39127084971E+03 -0.49582475038E+03  0.75353208186E+03  0.92881078621E+02 0.  0.
         11    1    3    3    0    0  0.28102333291E+03  0.21288958886E+03 -0.29678518957E+03  0.46084437659E+03  0.00000000000E+00 0. -1.
        -11    1    3    3    0    0  0.11928734980E+03  0.17838126086E+03 -0.19903956081E+03  0.29268770527E+03  0.00000000000E+00 0.  1.
         22    1    1    2    0    0 -0.40031068272E+03 -0.39127084971E+03  0.10854134911E+04  0.12212550787E+04  0.00000000000E+00 0. -1.
<mgrwt>
<rscale>  0 0.18847200E+04</rscale>
<asrwt>0</asrwt>
<pdfrwt beam="1">  1        2 0.19725969E+00 0.18847200E+04</pdfrwt>
<pdfrwt beam="2">  1       -2 0.10655372E+00 0.18847200E+04</pdfrwt>
<totfact> 0.11268392E+01</totfact>
</mgrwt>
</event>
<event>
 6    1  0.2236204E-005  0.2347085E+04  0.7818608E-02  0.8459584E-01
         -2   -1    0    0    0  501 -0.00000000000E+00  0.00000000000E+00  0.80952474555E+03  0.80952474555E+03  0.00000000000E+00 0.  1.
          2   -1    0    0  501    0  0.00000000000E+00 -0.00000000000E+00 -0.17012469878E+04  0.17012469878E+04  0.00000000000E+00 0. -1.
         23    2    1    2    0    0 -0.88716687883E+03  0.53753052634E+03 -0.10297935140E+04  0.14643168543E+04  0.88005856574E+02 0.  0.
         13    1    3    3    0    0 -0.53750145222E+02  0.14779141417E+02 -0.74298521174E+02  0.92885797521E+02  0.00000000000E+00 0.  1.
        -13    1    3    3    0    0 -0.83341673361E+03  0.52275138493E+03 -0.95549499282E+03  0.13714310568E+04  0.00000000000E+00 0. -1.
         22    1    1    2    0    0  0.88716687883E+03 -0.53753052634E+03  0.13807127177E+03  0.10464548790E+04  0.00000000000E+00 0. -1.
<mgrwt>
<rscale>  0 0.23470846E+04</rscale>
<asrwt>0</asrwt>
<pdfrwt beam="1">  1        2 0.26173030E+00 0.23470846E+04</pdfrwt>
<pdfrwt beam="2">  1       -2 0.12454227E+00 0.23470846E+04</pdfrwt>
<totfact> 0.42797302E+00</totfact>
</mgrwt>
</event>
<event>
 6    1  0.2236204E-005  0.4253128E+04  0.7818608E-02  0.7955342E-01
         -2   -1    0    0    0  501 -0.00000000000E+00  0.00000000000E+00  0.14184838482E+04  0.14184838482E+04  0.00000000000E+00 0.  1.
          2   -1    0    0  501    0  0.00000000000E+00 -0.00000000000E+00 -0.31881045093E+04  0.31881045093E+04  0.00000000000E+00 0. -1.
         23    2    1    2    0    0  0.80507060453E+03 -0.13173545217E+04  0.69716813290E+03  0.16965009760E+04  0.92252598056E+02 0.  0.
         11    1    3    3    0    0  0.42247380869E+03 -0.62175886044E+03  0.30785149439E+03  0.81230581813E+03  0.00000000000E+00 0.  1.
        -11    1    3    3    0    0  0.38259679584E+03 -0.69559566125E+03  0.38931663850E+03  0.88419515784E+03  0.00000000000E+00 0. -1.
         22    1    1    2    0    0 -0.80507060453E+03  0.13173545217E+04 -0.24667887940E+04  0.29100873815E+04  0.00000000000E+00 0. -1.
<mgrwt>
<rscale>  0 0.42531281E+04</rscale>
<asrwt>0</asrwt>
<pdfrwt beam="1">  1        2 0.49047762E+00 0.42531281E+04</pdfrwt>
<pdfrwt beam="2">  1       -2 0.21822828E+00 0.42531281E+04</pdfrwt>
<totfact> 0.10339813E-01</totfact>
</mgrwt>
</event>
<event>
 6    1  0.2236204E-005  0.4460272E+03  0.7818608E-02  0.1028913E+00
          2   -1    0    0  501    0  0.00000000000E+00  0.00000000000E+00  0.26862465307E+03  0.26862465307E+03  0.00000000000E+00 0. -1.
         -2   -1    0    0    0  501 -0.00000000000E+00 -0.00000000000E+00 -0.18514707146E+03  0.18514707146E+03  0.00000000000E+00 0.  1.
         23    2    1    2    0    0 -0.11888602934E+03 -0.59669107434E+02 -0.12660244515E+03  0.20511954176E+03  0.91386853217E+02 0.  0.
         11    1    3    3    0    0 -0.11465902724E+03 -0.15524681217E+02 -0.79248397679E+02  0.14024270672E+03  0.00000000000E+00 0. -1.
        -11    1    3    3    0    0 -0.42270020998E+01 -0.44144426218E+02 -0.47354047471E+02  0.64876835040E+02  0.00000000000E+00 0.  1.
         22    1    1    2    0    0  0.11888602934E+03  0.59669107434E+02  0.21008002676E+03  0.24865218277E+03  0.00000000000E+00 0. -1.
<mgrwt>
<rscale>  0 0.44602721E+03</rscale>
<asrwt>0</asrwt>
<pdfrwt beam="1">  1        2 0.41326870E-01 0.44602721E+03</pdfrwt>
<pdfrwt beam="2">  1       -2 0.28484165E-01 0.44602721E+03</pdfrwt>
<totfact> 0.13961754E+03</totfact>
</mgrwt>
</event>
<event>
 6    1  0.2236204E-005  0.2630403E+04  0.7818608E-02  0.8357947E-01
          2   -1    0    0  501    0  0.00000000000E+00  0.00000000000E+00  0.29333863363E+04  0.29333863363E+04  0.00000000000E+00 0. -1.
         -2   -1    0    0    0  501 -0.00000000000E+00 -0.00000000000E+00 -0.58967870346E+03  0.58967870346E+03  0.00000000000E+00 0.  1.
         23    2    1    2    0    0  0.17496772723E+03 -0.61015292975E+03  0.27135129321E+04  0.27884520379E+04  0.97015626583E+02 0.  0.
         11    1    3    3    0    0 -0.27380924155E+01 -0.12666547017E+03  0.50199259706E+03  0.51773372112E+03  0.00000000000E+00 0.  1.
        -11    1    3    3    0    0  0.17770581965E+03 -0.48348745958E+03  0.22115203350E+04  0.22707183167E+04  0.00000000000E+00 0. -1.
         22    1    1    2    0    0 -0.17496772723E+03  0.61015292975E+03 -0.36980529920E+03  0.73461300191E+03  0.00000000000E+00 0.  1.
<mgrwt>
<rscale>  0 0.26304034E+04</rscale>
<asrwt>0</asrwt>
<pdfrwt beam="1">  1        2 0.45129020E+00 0.26304034E+04</pdfrwt>
<pdfrwt beam="2">  1       -2 0.90719802E-01 0.26304034E+04</pdfrwt>
<totfact> 0.17535604E+00</totfact>
</mgrwt>
</event>
<event>
 6    1  0.2236204E-005  0.3723420E+04  0.7818608E-02  0.8062791E-01
         -2   -1    0    0    0  501 -0.00000000000E+00  0.00000000000E+00  0.10796383843E+04  0.10796383843E+04  0.00000000000E+00 0.  1.
          2   -1    0    0  501    0  0.00000000000E+00 -0.00000000000E+00 -0.32103003182E+04  0.32103003182E+04  0.00000000000E+00 0. -1.
         23    2    1    2    0    0  0.23966472516E+03  0.49614694138E+03  0.98133825466E+03  0.11295358577E+04  0.96049548914E+02 0.  0.
         13    1    3    3    0    0  0.48115867728E+02  0.18376194266E+03  0.39130910851E+03  0.43497862787E+03  0.00000000000E+00 0. -1.
        -13    1    3    3    0    0  0.19154885744E+03  0.31238499873E+03  0.59002914615E+03  0.69455722984E+03  0.00000000000E+00 0.  1.
         22    1    1    2    0    0 -0.23966472516E+03 -0.49614694138E+03 -0.31120001886E+04  0.31604028448E+04  0.00000000000E+00 0. -1.
<mgrwt>
<rscale>  0 0.37234196E+04</rscale>
<asrwt>0</asrwt>
<pdfrwt beam="1">  1        2 0.49389236E+00 0.37234196E+04</pdfrwt>
<pdfrwt beam="2">  1       -2 0.16609821E+00 0.37234196E+04</pdfrwt>
<totfact> 0.23393268E-01</totfact>
</mgrwt>
</event>
<event>
 6    1  0.2236204E-005  0.2358694E+04  0.7818608E-02  0.8455132E-01
          2   -1    0    0  501    0  0.00000000000E+00  0.00000000000E+00  0.20962947131E+04  0.20962947131E+04  0.00000000000E+00 0. -1.
         -2   -1    0    0    0  501 -0.00000000000E+00 -0.00000000000E+00 -0.66348442048E+03  0.66348442048E+03  0.00000000000E+00 0.  1.
         23    2    1    2    0    0  0.54038002442E+03 -0.29025512406E+03 -0.45873877754E+03  0.77125795122E+03  0.90216148600E+02 0.  0.
         11    1    3    3    0    0  0.15271580843E+03 -0.39997554934E+02 -0.10114329222E+03  0.18748836792E+03  0.00000000000E+00 0. -1.
        -11    1    3    3    0    0  0.38766421599E+03 -0.25025756913E+03 -0.35759548532E+03  0.58376958330E+03  0.00000000000E+00 0.  1.
         22    1    1    2    0    0 -0.54038002442E+03  0.29025512406E+03  0.18915490702E+04  0.19885211824E+04  0.00000000000E+00 0. -1.
<mgrwt>
<rscale>  0 0.23586936E+04</rscale>
<asrwt>0</asrwt>
<pdfrwt beam="1">  1        2 0.32250688E+00 0.23586936E+04</pdfrwt>
<pdfrwt beam="2">  1       -2 0.10207453E+00 0.23586936E+04</pdfrwt>
<totfact> 0.41896795E+00</totfact>
</mgrwt>
</event>
<event>
 6    1  0.2236204E-005  0.2479908E+04  0.7818608E-02  0.8410178E-01
         -2   -1    0    0    0  501 -0.00000000000E+00  0.00000000000E+00  0.57860611934E+03  0.57860611934E+03  0.00000000000E+00 0.  1.
          2   -1    0    0  501    0  0.00000000000E+00 -0.00000000000E+00 -0.26572246938E+04  0.26572246938E+04  0.00000000000E+00 0. -1.
         23    2    1    2    0    0  0.34189704761E+03  0.42472712979E+03  0.41007005464E+03  0.68811461651E+03  0.89763855765E+02 0.  0.
         13    1    3    3    0    0  0.22077425669E+03  0.23709362290E+03  0.28867804857E+03  0.43392358102E+03  0.00000000000E+00 0.  1.
        -13    1    3    3    0    0  0.12112279092E+03  0.18763350689E+03  0.12139200606E+03  0.25419103549E+03  0.00000000000E+00 0. -1.
         22    1    1    2    0    0 -0.34189704761E+03 -0.42472712979E+03 -0.24886886291E+04  0.25477161966E+04  0.00000000000E+00 0. -1.
<mgrwt>
<rscale>  0 0.24799084E+04</rscale>
<asrwt>0</asrwt>
<pdfrwt beam="1">  1        2 0.40880380E+00 0.24799084E+04</pdfrwt>
<pdfrwt beam="2">  1       -2 0.89016326E-01 0.24799084E+04</pdfrwt>
<totfact> 0.27261544E+00</totfact>
</mgrwt>
</event>
<event>
 6    1  0.2236204E-005  0.4202017E+04  0.7818608E-02  0.7964989E-01
         -2   -1    0    0    0  501 -0.00000000000E+00  0.00000000000E+00  0.10626860328E+04  0.10626860328E+04  0.00000000000E+00 0.  1.
          2   -1    0    0  501    0  0.00000000000E+00 -0.00000000000E+00 -0.41538482434E+04  0.41538482434E+04  0.00000000000E+00 0. -1.
         23    2    1    2    0    0  0.99207758883E+03  0.18451754306E+04 -0.13658240360E+04  0.25025552548E+04  0.91745268412E+02 0.  0.
         13    1    3    3    0    0  0.14191925148E+03  0.23895511835E+03 -0.14761194273E+03  0.31469017806E+03  0.00000000000E+00 0. -1.
        -13    1    3    3    0    0  0.85015833735E+03  0.16062203123E+04 -0.12182120932E+04  0.21878650768E+04  0.00000000000E+00 0.  1.
         22    1    1    2    0    0 -0.99207758883E+03 -0.18451754306E+04 -0.17253381746E+04  0.27139790214E+04  0.00000000000E+00 0.  1.
<mgrwt>
<rscale>  0 0.42020169E+04</rscale>
<asrwt>0</asrwt>
<pdfrwt beam="1">  1        2 0.63905357E+00 0.42020169E+04</pdfrwt>
<pdfrwt beam="2">  1       -2 0.16349016E+00 0.42020169E+04</pdfrwt>
<totfact> 0.46733026E-02</totfact>
</mgrwt>
</event>
<event>
 6    1  0.2236204E-005  0.3158797E+04  0.7818608E-02  0.8199784E-01
         -2   -1    0    0    0  501 -0.00000000000E+00  0.00000000000E+00  0.13284534949E+04  0.13284534949E+04  0.00000000000E+00 0.  1.
          2   -1    0    0  501    0  0.00000000000E+00 -0.00000000000E+00 -0.18777467292E+04  0.18777467292E+04  0.00000000000E+00 0. -1.
         23    2    1    2    0    0 -0.89147740445E+03  0.12998560740E+04 -0.19700338615E+03  0.15911256398E+04  0.92264250266E+02 0.  0.
         11    1    3    3    0    0 -0.16775940541E+03  0.31213744171E+03 -0.48824020519E+02  0.35771047734E+03  0.00000000000E+00 0. -1.
        -11    1    3    3    0    0 -0.72371799904E+03  0.98771863227E+03 -0.14817936563E+03  0.12334151625E+04  0.00000000000E+00 0.  1.
         22    1    1    2    0    0  0.89147740445E+03 -0.12998560740E+04 -0.35228984809E+03  0.16150745843E+04  0.00000000000E+00 0.  1.
<mgrwt>
<rscale>  0 0.31587967E+04</rscale>
<asrwt>0</asrwt>
<pdfrwt beam="1">  1        2 0.28888411E+00 0.31587967E+04</pdfrwt>
<pdfrwt beam="2">  1       -2 0.20437746E+00 0.31587967E+04</pdfrwt>
<totfact> 0.82200490E-01</totfact>
</mgrwt>
</event>
<event>
 6    1  0.2236204E-005  0.2533808E+04  0.7818608E-02  0.8391039E-01
          1   -1    0    0  501    0  0.00000000000E+00  0.00000000000E+00  0.15445739793E+04  0.15445739793E+04  0.00000000000E+00 0. -1.
         -1   -1    0    0    0  501 -0.00000000000E+00 -0.00000000000E+00 -0.10391514786E+04  0.10391514786E+04  0.00000000000E+00 0.  1.
         23    2    1    2    0    0 -0.59674697264E+03  0.10090635645E+04  0.73823552138E+03  0.13885191456E+04  0.93153132276E+02 0.  0.
         13    1    3    3    0    0 -0.29328925782E+03  0.42049379850E+03  0.35255266222E+03  0.62219530935E+03  0.00000000000E+00 0.  1.
        -13    1    3    3    0    0 -0.30345771482E+03  0.58856976599E+03  0.38568285915E+03  0.76632383623E+03  0.00000000000E+00 0. -1.
         22    1    1    2    0    0  0.59674697264E+03 -0.10090635645E+04 -0.23281302063E+03  0.11952063124E+04  0.00000000000E+00 0.  1.
<mgrwt>
<rscale>  0 0.25338085E+04</rscale>
<asrwt>0</asrwt>
<pdfrwt beam="1">  1        1 0.23762676E+00 0.25338085E+04</pdfrwt>
<pdfrwt beam="2">  1       -1 0.15986946E+00 0.25338085E+04</pdfrwt>
<totfact> 0.15809465E+00</totfact>
</mgrwt>
</event>
<event>
 6    1  0.2236204E-005  0.1617014E+04  0.7818608E-02  0.8810164E-01
         -2   -1    0    0    0  501 -0.00000000000E+00  0.00000000000E+00  0.26864196715E+03  0.26864196715E+03  0.00000000000E+00 0.  1.
          2   -1    0    0  501    0  0.00000000000E+00 -0.00000000000E+00 -0.24332878576E+04  0.24332878576E+04  0.00000000000E+00 0. -1.
         23    2    1    2    0    0 -0.74707186428E+03 -0.41700787257E+02 -0.15860799372E+04  0.17561000894E+04  0.91556707637E+02 0.  0.
         11    1    3    3    0    0 -0.10868894542E+03 -0.37571865309E+02 -0.22163400643E+03  0.24969294088E+03  0.00000000000E+00 0. -1.
        -11    1    3    3    0    0 -0.63838291885E+03 -0.41289219480E+01 -0.13644459307E+04  0.15064071485E+04  0.00000000000E+00 0.  1.
         22    1    1    2    0    0  0.74707186428E+03  0.41700787257E+02 -0.57856595328E+03  0.94582973539E+03  0.00000000000E+00 0.  1.
<mgrwt>
<rscale>  0 0.16170136E+04</rscale>
<asrwt>0</asrwt>
<pdfrwt beam="1">  1        2 0.37435196E+00 0.16170136E+04</pdfrwt>
<pdfrwt beam="2">  1       -2 0.41329535E-01 0.16170136E+04</pdfrwt>
<totfact> 0.20239843E+01</totfact>
</mgrwt>
</event>
<event>
 6    1  0.2236204E-005  0.6784112E+04  0.7818608E-02  0.7600119E-01
          1   -1    0    0  501    0  0.00000000000E+00  0.00000000000E+00  0.31133980497E+04  0.31133980497E+04  0.00000000000E+00 0. -1.
         -1   -1    0    0    0  501 -0.00000000000E+00 -0.00000000000E+00 -0.36956542496E+04  0.36956542496E+04  0.00000000000E+00 0.  1.
         23    2    1    2    0    0  0.16384126991E+04 -0.27169930683E+04  0.91136132902E+03  0.33022958452E+04  0.90171343007E+02 0.  0.
         11    1    3    3    0    0  0.15030749590E+04 -0.24489901748E+04  0.83939293238E+03  0.29935543596E+04  0.00000000000E+00 0.  1.
        -11    1    3    3    0    0  0.13533774017E+03 -0.26800289349E+03  0.71968396639E+02  0.30874148563E+03  0.00000000000E+00 0. -1.
         22    1    1    2    0    0 -0.16384126991E+04  0.27169930683E+04 -0.14936175289E+04  0.35067564541E+04  0.00000000000E+00 0.  1.
<mgrwt>
<rscale>  0 0.67841117E+04</rscale>
<asrwt>0</asrwt>
<pdfrwt beam="1">  1        1 0.47898432E+00 0.67841117E+04</pdfrwt>
<pdfrwt beam="2">  1       -1 0.56856219E+00 0.67841117E+04</pdfrwt>
<totfact> 0.19251986E-04</totfact>
</mgrwt>
</event>
<event>
 6    1  0.2236204E-005  0.1479938E+04  0.7818608E-02  0.8897905E-01
         -2   -1    0    0    0  501 -0.00000000000E+00  0.00000000000E+00  0.11310669511E+04  0.11310669511E+04  0.00000000000E+00 0.  1.
          2   -1    0    0  501    0  0.00000000000E+00 -0.00000000000E+00 -0.48410390227E+03  0.48410390227E+03  0.00000000000E+00 0. -1.
         23    2    1    2    0    0 -0.19853362224E+03  0.76687820297E+02 -0.44555961680E+03  0.50211092872E+03  0.91079040827E+02 0.  0.
         13    1    3    3    0    0 -0.14129570835E+03  0.17989467014E+02 -0.21970937361E+03  0.26184023177E+03  0.00000000000E+00 0. -1.
        -13    1    3    3    0    0 -0.57237913889E+02  0.58698353283E+02 -0.22585024319E+03  0.24027069695E+03  0.00000000000E+00 0.  1.
         22    1    1    2    0    0  0.19853362224E+03 -0.76687820297E+02  0.10925226657E+04  0.11130599247E+04  0.00000000000E+00 0.  1.
<mgrwt>
<rscale>  0 0.14799377E+04</rscale>
<asrwt>0</asrwt>
<pdfrwt beam="1">  1        2 0.74477524E-01 0.14799377E+04</pdfrwt>
<pdfrwt beam="2">  1       -2 0.17401030E+00 0.14799377E+04</pdfrwt>
<totfact> 0.12338191E+01</totfact>
</mgrwt>
</event>
<event>
 6    1  0.2236204E-005  0.1653121E+04  0.7818608E-02  0.8788562E-01
          1   -1    0    0  501    0  0.00000000000E+00  0.00000000000E+00  0.22290207646E+04  0.22290207646E+04  0.00000000000E+00 0. -1.
         -1   -1    0    0    0  501 -0.00000000000E+00 -0.00000000000E+00 -0.30650335551E+03  0.30650335551E+03  0.00000000000E+00 0.  1.
         23    2    1    2    0    0 -0.51739946902E+03 -0.36565444132E+03  0.17723831285E+04  0.18844130058E+04  0.90912272624E+02 0.  0.
         13    1    3    3    0    0 -0.21287477026E+03 -0.13695433321E+03  0.83810716674E+03  0.87549744724E+03  0.00000000000E+00 0. -1.
        -13    1    3    3    0    0 -0.30452469876E+03 -0.22870010811E+03  0.93427596175E+03  0.10089155586E+04  0.00000000000E+00 0.  1.
         22    1    1    2    0    0  0.51739946902E+03  0.36565444132E+03  0.15013428065E+03  0.65111111434E+03  0.00000000000E+00 0.  1.
<mgrwt>
<rscale>  0 0.16531211E+04</rscale>
<asrwt>0</asrwt>
<pdfrwt beam="1">  1        1 0.34292626E+00 0.16531211E+04</pdfrwt>
<pdfrwt beam="2">  1       -1 0.47154364E-01 0.16531211E+04</pdfrwt>
<totfact> 0.89269194E+00</totfact>
</mgrwt>
</event>
<event>
 6    1  0.2236204E-005  0.1191607E+04  0.7818608E-02  0.9120235E-01
          2   -1    0    0  501    0  0.00000000000E+00  0.00000000000E+00  0.13351931407E+04  0.13351931407E+04  0.00000000000E+00 0. -1.
         -2   -1    0    0    0  501 -0.00000000000E+00 -0.00000000000E+00 -0.26586546753E+03  0.26586546753E+03  0.00000000000E+00 0.  1.
         23    2    1    2    0    0  0.67192107582E+01  0.53527648244E+03  0.87840315188E+03  0.10327116779E+04  0.91297601041E+02 0.  0.
         11    1    3    3    0    0  0.40471569507E+02  0.39441566123E+03  0.67839657846E+03  0.78576305553E+03  0.00000000000E+00 0. -1.
        -11    1    3    3    0    0 -0.33752358749E+02  0.14086082120E+03  0.20000657341E+03  0.24694862235E+03  0.00000000000E+00 0.  1.
         22    1    1    2    0    0 -0.67192107582E+01 -0.53527648244E+03  0.19092452134E+03  0.56834693040E+03  0.00000000000E+00 0.  1.
<mgrwt>
<rscale>  0 0.11916069E+04</rscale>
<asrwt>0</asrwt>
<pdfrwt beam="1">  1        2 0.20541433E+00 0.11916069E+04</pdfrwt>
<pdfrwt beam="2">  1       -2 0.40902380E-01 0.11916069E+04</pdfrwt>
<totfact> 0.88079561E+01</totfact>
</mgrwt>
</event>
<event>
 6    1  0.2236204E-005  0.7766429E+03  0.7818608E-02  0.9594455E-01
         -2   -1    0    0    0  501 -0.00000000000E+00  0.00000000000E+00  0.10228542885E+03  0.10228542885E+03  0.00000000000E+00 0.  1.
          2   -1    0    0  501    0  0.00000000000E+00 -0.00000000000E+00 -0.14742428555E+04  0.14742428555E+04  0.00000000000E+00 0. -1.
         23    2    1    2    0    0  0.20992991238E+03  0.19634384855E+02 -0.13442417922E+04  0.13638683832E+04  0.93246413257E+02 0.  0.
         11    1    3    3    0    0  0.15782166402E+03  0.22446296790E+02 -0.71933481099E+03  0.73678632192E+03  0.00000000000E+00 0. -1.
        -11    1    3    3    0    0  0.52108248369E+02 -0.28119119350E+01 -0.62490698118E+03  0.62708206124E+03  0.00000000000E+00 0.  1.
         22    1    1    2    0    0 -0.20992991238E+03 -0.19634384855E+02 -0.27715634480E+02  0.21265990120E+03  0.00000000000E+00 0.  1.
<mgrwt>
<rscale>  0 0.77664294E+03</rscale>
<asrwt>0</asrwt>
<pdfrwt beam="1">  1        2 0.22680658E+00 0.77664294E+03</pdfrwt>
<pdfrwt beam="2">  1       -2 0.15736221E-01 0.77664294E+03</pdfrwt>
<totfact> 0.42846389E+02</totfact>
</mgrwt>
</event>
<event>
 6    1  0.2236204E-005  0.5788527E+03  0.7818608E-02  0.9950278E-01
         -2   -1    0    0    0  501 -0.00000000000E+00  0.00000000000E+00  0.62940416718E+02  0.62940416718E+02  0.00000000000E+00 0.  1.
          2   -1    0    0  501    0  0.00000000000E+00 -0.00000000000E+00 -0.13309034652E+04  0.13309034652E+04  0.00000000000E+00 0. -1.
         23    2    1    2    0    0  0.83614113510E+02  0.55476260760E+02 -0.12848232720E+04  0.12920931933E+04  0.93086220184E+02 0.  0.
         11    1    3    3    0    0  0.10917459102E+02 -0.23242894023E+02 -0.14609537970E+03  0.14833503634E+03  0.00000000000E+00 0.  1.
        -11    1    3    3    0    0  0.72696654408E+02  0.78719154783E+02 -0.11387278923E+04  0.11437581570E+04  0.00000000000E+00 0. -1.
         22    1    1    2    0    0 -0.83614113510E+02 -0.55476260760E+02  0.16860223574E+02  0.10175068857E+03  0.00000000000E+00 0.  1.
<mgrwt>
<rscale>  0 0.57885272E+03</rscale>
<asrwt>0</asrwt>
<pdfrwt beam="1">  1        2 0.20475436E+00 0.57885272E+03</pdfrwt>
<pdfrwt beam="2">  1       -2 0.96831417E-02 0.57885272E+03</pdfrwt>
<totfact> 0.11642952E+03</totfact>
</mgrwt>
</event>
<event>
 6    1  0.2236204E-005  0.1130202E+04  0.7818608E-02  0.9176245E-01
         -2   -1    0    0    0  501 -0.00000000000E+00  0.00000000000E+00  0.13307665750E+04  0.13307665750E+04  0.00000000000E+00 0.  1.
          2   -1    0    0  501    0  0.00000000000E+00 -0.00000000000E+00 -0.23996636196E+03  0.23996636196E+03  0.00000000000E+00 0. -1.
         23    2    1    2    0    0 -0.14221845895E+03  0.37948887912E+03  0.10882882530E+04  0.11654623984E+04  0.98454969349E+02 0.  0.
         13    1    3    3    0    0 -0.15676884406E+02  0.17859694393E+03  0.44496171533E+03  0.47972237930E+03  0.00000000000E+00 0.  1.
        -13    1    3    3    0    0 -0.12654157455E+03  0.20089193519E+03  0.64332653769E+03  0.68574001911E+03  0.00000000000E+00 0. -1.
         22    1    1    2    0    0  0.14221845895E+03 -0.37948887912E+03  0.25119599830E+01  0.40527053851E+03  0.00000000000E+00 0. -1.
<mgrwt>
<rscale>  0 0.11302021E+04</rscale>
<asrwt>0</asrwt>
<pdfrwt beam="1">  1        2 0.36917902E-01 0.11302021E+04</pdfrwt>
<pdfrwt beam="2">  1       -2 0.20473332E+00 0.11302021E+04</pdfrwt>
<totfact> 0.17297860E+01</totfact>
</mgrwt>
</event>
<event>
 6    1  0.2236204E-005  0.1193670E+04  0.7818608E-02  0.9118416E-01
          2   -1    0    0  501    0  0.00000000000E+00  0.00000000000E+00  0.39591393739E+04  0.39591393739E+04  0.00000000000E+00 0. -1.
         -2   -1    0    0    0  501 -0.00000000000E+00 -0.00000000000E+00 -0.89972024507E+02  0.89972024507E+02  0.00000000000E+00 0.  1.
         23    2    1    2    0    0 -0.37917811199E+03 -0.33299049435E+03  0.88646782277E+03  0.10240237673E+04  0.90226189034E+02 0.  0.
         13    1    3    3    0    0 -0.48893125394E+02 -0.96815177823E+01  0.72301885262E+02  0.87817037697E+02  0.00000000000E+00 0. -1.
        -13    1    3    3    0    0 -0.33028498659E+03 -0.32330897657E+03  0.81416593751E+03  0.93620672958E+03  0.00000000000E+00 0.  1.
         22    1    1    2    0    0  0.37917811199E+03  0.33299049435E+03  0.29826995266E+04  0.30250876311E+04  0.00000000000E+00 0. -1.
<mgrwt>
<rscale>  0 0.11936696E+04</rscale>
<asrwt>0</asrwt>
<pdfrwt beam="1">  1        2 0.60909823E+00 0.11936696E+04</pdfrwt>
<pdfrwt beam="2">  1       -2 0.13841853E-01 0.11936696E+04</pdfrwt>
<totfact> 0.15237332E+01</totfact>
</mgrwt>
</event>
<event>
 6    1  0.2236204E-005  0.1496591E+04  0.7818608E-02  0.8886723E-01
         -2   -1    0    0    0  501 -0.00000000000E+00  0.00000000000E+00  0.56048177735E+03  0.56048177735E+03  0.00000000000E+00 0.  1.
          2   -1    0    0  501    0  0.00000000000E+00 -0.00000000000E+00 -0.99904437301E+03  0.99904437301E+03  0.00000000000E+00 0. -1.
         23    2    1    2    0    0 -0.69594538464E+03 -0.88347931453E+02 -0.48310496893E+03  0.85658279674E+03  0.90544692156E+02 0.  0.
         11    1    3    3    0    0 -0.27081942931E+03 -0.11339054017E+02 -0.23254804897E+03  0.35714189409E+03  0.00000000000E+00 0.  1.
        -11    1    3    3    0    0 -0.42512595533E+03 -0.77008877435E+02 -0.25055691996E+03  0.49944090265E+03  0.00000000000E+00 0. -1.
         22    1    1    2    0    0  0.69594538464E+03  0.88347931453E+02  0.44542373267E+02  0.70294335363E+03  0.00000000000E+00 0.  1.
<mgrwt>
<rscale>  0 0.14965910E+04</rscale>
<asrwt>0</asrwt>
<pdfrwt beam="1">  1        2 0.15369913E+00 0.14965910E+04</pdfrwt>
<pdfrwt beam="2">  1       -2 0.86227967E-01 0.14965910E+04</pdfrwt>
<totfact> 0.28433467E+01</totfact>
</mgrwt>
</event>
<event>
 6    1  0.2617323E-005  0.4631554E+04  0.7818608E-02  0.7888002E-01
          2   -1    0    0  501    0  0.00000000000E+00  0.00000000000E+00  0.27693456179E+04  0.27693456179E+04  0.00000000000E+00 0. -1.
         -2   -1    0    0    0  501 -0.00000000000E+00 -0.00000000000E+00 -0.19364946179E+04  0.19364946179E+04  0.00000000000E+00 0.  1.
         23    2    1    2    0    0 -0.89103614760E+02  0.47015044391E+03  0.27178329759E+04  0.27610682842E+04  0.88888081181E+02 0.  0.
         11    1    3    3    0    0 -0.63822575158E+02  0.16699909376E+03  0.84674287708E+03  0.86541060677E+03  0.00000000000E+00 0. -1.
        -11    1    3    3    0    0 -0.25281039602E+02  0.30315135015E+03  0.18710900988E+04  0.18956576774E+04  0.00000000000E+00 0.  1.
         22    1    1    2    0    0  0.89103614760E+02 -0.47015044391E+03 -0.18849819760E+04  0.19447719516E+04  0.00000000000E+00 0.  1.
<mgrwt>
<rscale>  0 0.46315539E+04</rscale>
<asrwt>0</asrwt>
<pdfrwt beam="1">  1        2 0.42605317E+00 0.46315539E+04</pdfrwt>
<pdfrwt beam="2">  1       -2 0.29792225E+00 0.46315539E+04</pdfrwt>
<totfact> 0.59199976E-02</totfact>
</mgrwt>
</event>
<event>
 6    1  0.2236204E-005  0.7055998E+03  0.7818608E-02  0.9707703E-01
          2   -1    0    0  501    0  0.00000000000E+00  0.00000000000E+00  0.12888052197E+04  0.12888052197E+04  0.00000000000E+00 0. -1.
         -2   -1    0    0    0  501 -0.00000000000E+00 -0.00000000000E+00 -0.96576096571E+02  0.96576096571E+02  0.00000000000E+00 0.  1.
         23    2    1    2    0    0 -0.25388029469E+03 -0.22356263324E+03  0.45357642632E+03  0.57295085062E+03  0.90031370651E+02 0.  0.
         11    1    3    3    0    0 -0.11589487880E+03 -0.11832875150E+03  0.15093156684E+03  0.22408403386E+03  0.00000000000E+00 0. -1.
        -11    1    3    3    0    0 -0.13798541588E+03 -0.10523388174E+03  0.30264485949E+03  0.34886681676E+03  0.00000000000E+00 0.  1.
         22    1    1    2    0    0  0.25388029469E+03  0.22356263324E+03  0.73865269680E+03  0.81243046564E+03  0.00000000000E+00 0.  1.
<mgrwt>
<rscale>  0 0.70559982E+03</rscale>
<asrwt>0</asrwt>
<pdfrwt beam="1">  1        2 0.19827771E+00 0.70559982E+03</pdfrwt>
<pdfrwt beam="2">  1       -2 0.14857862E-01 0.70559982E+03</pdfrwt>
<totfact> 0.60391323E+02</totfact>
</mgrwt>
</event>
<event>
 6    1  0.2236204E-005  0.4286725E+04  0.7818608E-02  0.7949077E-01
          2   -1    0    0  501    0  0.00000000000E+00  0.00000000000E+00  0.40963253152E+04  0.40963253152E+04  0.00000000000E+00 0. -1.
         -2   -1    0    0    0  501 -0.00000000000E+00 -0.00000000000E+00 -0.11214938649E+04  0.11214938649E+04  0.00000000000E+00 0.  1.
         23    2    1    2    0    0  0.92630700712E+02  0.13880270251E+04  0.34712696560E+04  0.37407780970E+04  0.92240325417E+02 0.  0.
         13    1    3    3    0    0  0.83761578649E+02  0.88521741273E+03  0.23146363108E+04  0.24795497820E+04  0.00000000000E+00 0.  1.
        -13    1    3    3    0    0  0.88691220628E+01  0.50280961234E+03  0.11566333451E+04  0.12612283151E+04  0.00000000000E+00 0. -1.
         22    1    1    2    0    0 -0.92630700712E+02 -0.13880270251E+04 -0.49643820566E+03  0.14770410831E+04  0.00000000000E+00 0.  1.
<mgrwt>
<rscale>  0 0.42867254E+04</rscale>
<asrwt>0</asrwt>
<pdfrwt beam="1">  1        2 0.63020389E+00 0.42867254E+04</pdfrwt>
<pdfrwt beam="2">  1       -2 0.17253752E+00 0.42867254E+04</pdfrwt>
<totfact> 0.44720090E-02</totfact>
</mgrwt>
</event>
<event>
 6    1  0.2236204E-005  0.3904510E+04  0.7818608E-02  0.8024092E-01
          2   -1    0    0  501    0  0.00000000000E+00  0.00000000000E+00  0.35406951497E+04  0.35406951497E+04  0.00000000000E+00 0. -1.
         -2   -1    0    0    0  501 -0.00000000000E+00 -0.00000000000E+00 -0.10764269639E+04  0.10764269639E+04  0.00000000000E+00 0.  1.
         23    2    1    2    0    0 -0.80031084635E+03  0.11248450588E+04  0.28632200288E+04  0.31801334463E+04  0.97190255175E+02 0.  0.
         11    1    3    3    0    0 -0.28657603619E+03  0.45497135844E+03  0.10312170308E+04  0.11629846629E+04  0.00000000000E+00 0. -1.
        -11    1    3    3    0    0 -0.51373481016E+03  0.66987370036E+03  0.18320029980E+04  0.20171487834E+04  0.00000000000E+00 0.  1.
         22    1    1    2    0    0  0.80031084635E+03 -0.11248450588E+04 -0.39895184292E+03  0.14369886673E+04  0.00000000000E+00 0.  1.
<mgrwt>
<rscale>  0 0.39045101E+04</rscale>
<asrwt>0</asrwt>
<pdfrwt beam="1">  1        2 0.54472232E+00 0.39045101E+04</pdfrwt>
<pdfrwt beam="2">  1       -2 0.16560415E+00 0.39045101E+04</pdfrwt>
<totfact> 0.13840097E-01</totfact>
</mgrwt>
</event>
<event>
 6    1  0.2236204E-005  0.1836242E+04  0.7818608E-02  0.8687261E-01
          2   -1    0    0  501    0  0.00000000000E+00  0.00000000000E+00  0.36346902121E+04  0.36346902121E+04  0.00000000000E+00 0. -1.
         -2   -1    0    0    0  501 -0.00000000000E+00 -0.00000000000E+00 -0.23191681653E+03  0.23191681653E+03  0.00000000000E+00 0.  1.
         23    2    1    2    0    0  0.72853178431E+03 -0.55449857396E+03  0.16478390453E+04  0.18872076745E+04  0.89174314221E+02 0.  0.
         13    1    3    3    0    0  0.68548976199E+03 -0.51550274327E+03  0.14928978283E+04  0.17217384290E+04  0.00000000000E+00 0.  1.
        -13    1    3    3    0    0  0.43042022322E+02 -0.38995830684E+02  0.15494121692E+03  0.16546924547E+03  0.00000000000E+00 0. -1.
         22    1    1    2    0    0 -0.72853178431E+03  0.55449857396E+03  0.17549343503E+04  0.19793993542E+04  0.00000000000E+00 0. -1.
<mgrwt>
<rscale>  0 0.18362416E+04</rscale>
<asrwt>0</asrwt>
<pdfrwt beam="1">  1        2 0.55918307E+00 0.18362416E+04</pdfrwt>
<pdfrwt beam="2">  1       -2 0.35679513E-01 0.18362416E+04</pdfrwt>
<totfact> 0.45707741E+00</totfact>
</mgrwt>
</event>
<event>
 6    1  0.2236204E-005  0.2883207E+04  0.7818608E-02  0.8277891E-01
         -1   -1    0    0    0  501 -0.00000000000E+00  0.00000000000E+00  0.15546458481E+04  0.15546458481E+04  0.00000000000E+00 0.  1.
          1   -1    0    0  501    0  0.00000000000E+00 -0.00000000000E+00 -0.13367812055E+04  0.13367812055E+04  0.00000000000E+00 0. -1.
         23    2    1    2    0    0  0.10745681253E+04 -0.91879148862E+03 -0.16497341721E+03  0.14266951889E+04  0.96790899909E+02 0.  0.
         13    1    3    3    0    0  0.10662871630E+03 -0.13096653044E+03 -0.27682807693E+02  0.17113811111E+03  0.00000000000E+00 0. -1.
        -13    1    3    3    0    0  0.96793940895E+03 -0.78782495818E+03 -0.13729060951E+03  0.12555570778E+04  0.00000000000E+00 0.  1.
         22    1    1    2    0    0 -0.10745681253E+04  0.91879148862E+03  0.38283805981E+03  0.14647318647E+04  0.00000000000E+00 0.  1.
<mgrwt>
<rscale>  0 0.28832075E+04</rscale>
<asrwt>0</asrwt>
<pdfrwt beam="1">  1        1 0.20565865E+00 0.28832075E+04</pdfrwt>
<pdfrwt beam="2">  1       -1 0.23917628E+00 0.28832075E+04</pdfrwt>
<totfact> 0.60089316E-01</totfact>
</mgrwt>
</event>
<event>
 6    1  0.2236204E-005  0.1752423E+04  0.7818608E-02  0.8732018E-01
          1   -1    0    0  501    0  0.00000000000E+00  0.00000000000E+00  0.20156621339E+04  0.20156621339E+04  0.00000000000E+00 0. -1.
         -1   -1    0    0    0  501 -0.00000000000E+00 -0.00000000000E+00 -0.38089053116E+03  0.38089053116E+03  0.00000000000E+00 0.  1.
         23    2    1    2    0    0 -0.41175270325E+03 -0.46935505005E+03  0.16555836985E+04  0.17718386545E+04  0.92846018686E+02 0.  0.
         13    1    3    3    0    0 -0.31784534592E+03 -0.30326834558E+03  0.12016383775E+04  0.12794264901E+04  0.00000000000E+00 0. -1.
        -13    1    3    3    0    0 -0.93907357330E+02 -0.16608670447E+03  0.45394532099E+03  0.49241216436E+03  0.00000000000E+00 0.  1.
         22    1    1    2    0    0  0.41175270325E+03  0.46935505005E+03 -0.20812095786E+02  0.62471401054E+03  0.00000000000E+00 0.  1.
<mgrwt>
<rscale>  0 0.17524230E+04</rscale>
<asrwt>0</asrwt>
<pdfrwt beam="1">  1        1 0.31010186E+00 0.17524230E+04</pdfrwt>
<pdfrwt beam="2">  1       -1 0.58598544E-01 0.17524230E+04</pdfrwt>
<totfact> 0.81325492E+00</totfact>
</mgrwt>
</event>
<event>
 6    1  0.2236204E-005  0.3906054E+04  0.7818608E-02  0.8023771E-01
          2   -1    0    0  501    0  0.00000000000E+00  0.00000000000E+00  0.35533046461E+04  0.35533046461E+04  0.00000000000E+00 0. -1.
         -2   -1    0    0    0  501 -0.00000000000E+00 -0.00000000000E+00 -0.10734555686E+04  0.10734555686E+04  0.00000000000E+00 0.  1.
         23    2    1    2    0    0 -0.11835601642E+04 -0.13547311984E+03 -0.59087680150E+03  0.13330502924E+04  0.93381256515E+02 0.  0.
         11    1    3    3    0    0 -0.47200953894E+03 -0.97904181599E+02 -0.25417401835E+03  0.54496115938E+03  0.00000000000E+00 0. -1.
        -11    1    3    3    0    0 -0.71155062522E+03 -0.37568938245E+02 -0.33670278315E+03  0.78808913300E+03  0.00000000000E+00 0.  1.
         22    1    1    2    0    0  0.11835601642E+04  0.13547311984E+03  0.30707258790E+04  0.32937099223E+04  0.00000000000E+00 0. -1.
<mgrwt>
<rscale>  0 0.39060541E+04</rscale>
<asrwt>0</asrwt>
<pdfrwt beam="1">  1        2 0.54666225E+00 0.39060541E+04</pdfrwt>
<pdfrwt beam="2">  1       -2 0.16514701E+00 0.39060541E+04</pdfrwt>
<totfact> 0.13659553E-01</totfact>
</mgrwt>
</event>
<event>
 6    1  0.2236204E-005  0.2841339E+04  0.7818608E-02  0.8290548E-01
         -2   -1    0    0    0  501 -0.00000000000E+00  0.00000000000E+00  0.65371977950E+03  0.65371977950E+03  0.00000000000E+00 0.  1.
          2   -1    0    0  501    0  0.00000000000E+00 -0.00000000000E+00 -0.30874117412E+04  0.30874117412E+04  0.00000000000E+00 0. -1.
         23    2    1    2    0    0  0.33956409889E+03 -0.64870138360E+03  0.38270820243E+03  0.83110967424E+03  0.90335264812E+02 0.  0.
         11    1    3    3    0    0  0.16183510965E+03 -0.38167074499E+03  0.18225337446E+03  0.45285698935E+03  0.00000000000E+00 0. -1.
        -11    1    3    3    0    0  0.17772898925E+03 -0.26703063860E+03  0.20045482797E+03  0.37825268489E+03  0.00000000000E+00 0.  1.
         22    1    1    2    0    0 -0.33956409889E+03  0.64870138360E+03 -0.28164001641E+04  0.29100218464E+04  0.00000000000E+00 0. -1.
<mgrwt>
<rscale>  0 0.28413392E+04</rscale>
<asrwt>0</asrwt>
<pdfrwt beam="1">  1        2 0.47498643E+00 0.28413392E+04</pdfrwt>
<pdfrwt beam="2">  1       -2 0.10057227E+00 0.28413392E+04</pdfrwt>
<totfact> 0.10828201E+00</totfact>
</mgrwt>
</event>
<event>
 6    1  0.2236204E-005  0.3876776E+04  0.7818608E-02  0.8029877E-01
          2   -1    0    0  501    0  0.00000000000E+00  0.00000000000E+00  0.16853016502E+04  0.16853016502E+04  0.00000000000E+00 0. -1.
         -2   -1    0    0    0  501 -0.00000000000E+00 -0.00000000000E+00 -0.22294809741E+04  0.22294809741E+04  0.00000000000E+00 0.  1.
         23    2    1    2    0    0  0.91403846510E+03 -0.99843621672E+03 -0.16719461117E+04  0.21529088710E+04  0.85273745907E+02 0.  0.
         11    1    3    3    0    0  0.69013785007E+03 -0.71261136864E+03 -0.12637510125E+04  0.16066025757E+04  0.00000000000E+00 0. -1.
        -11    1    3    3    0    0  0.22390061503E+03 -0.28582484808E+03 -0.40819509929E+03  0.54630629529E+03  0.00000000000E+00 0.  1.
         22    1    1    2    0    0 -0.91403846510E+03  0.99843621672E+03  0.11277667879E+04  0.17618737533E+04  0.00000000000E+00 0. -1.
<mgrwt>
<rscale>  0 0.38767760E+04</rscale>
<asrwt>0</asrwt>
<pdfrwt beam="1">  1        2 0.25927718E+00 0.38767760E+04</pdfrwt>
<pdfrwt beam="2">  1       -2 0.34299707E+00 0.38767760E+04</pdfrwt>
<totfact> 0.13707787E-01</totfact>
</mgrwt>
</event>
<event>
 6    1  0.2236204E-005  0.2259772E+04  0.7818608E-02  0.8493953E-01
         -2   -1    0    0    0  501 -0.00000000000E+00  0.00000000000E+00  0.17578677758E+04  0.17578677758E+04  0.00000000000E+00 0.  1.
          2   -1    0    0  501    0  0.00000000000E+00 -0.00000000000E+00 -0.72624504501E+03  0.72624504501E+03  0.00000000000E+00 0. -1.
         23    2    1    2    0    0 -0.31449851416E+03 -0.10051788501E+04  0.72387599703E+02  0.10595336293E+04  0.89876087469E+02 0.  0.
         11    1    3    3    0    0 -0.18851876606E+03 -0.49320313241E+03  0.52655390385E+01  0.52803066282E+03  0.00000000000E+00 0. -1.
        -11    1    3    3    0    0 -0.12597974810E+03 -0.51197571765E+03  0.67122060665E+02  0.53150296652E+03  0.00000000000E+00 0.  1.
         22    1    1    2    0    0  0.31449851416E+03  0.10051788501E+04  0.95923513107E+03  0.14245791914E+04  0.00000000000E+00 0.  1.
<mgrwt>
<rscale>  0 0.22597723E+04</rscale>
<asrwt>0</asrwt>
<pdfrwt beam="1">  1        2 0.11173001E+00 0.22597723E+04</pdfrwt>
<pdfrwt beam="2">  1       -2 0.27044120E+00 0.22597723E+04</pdfrwt>
<totfact> 0.17127643E+00</totfact>
</mgrwt>
</event>
<event>
 6    1  0.2236204E-005  0.3573166E+04  0.7818608E-02  0.8096666E-01
          2   -1    0    0  501    0  0.00000000000E+00  0.00000000000E+00  0.35371176902E+04  0.35371176902E+04  0.00000000000E+00 0. -1.
         -2   -1    0    0    0  501 -0.00000000000E+00 -0.00000000000E+00 -0.90239534570E+03  0.90239534570E+03  0.00000000000E+00 0.  1.
         23    2    1    2    0    0  0.11879175611E+04  0.60356749496E+03 -0.15718454203E+03  0.13459413273E+04  0.10681396690E+03 0.  0.
         13    1    3    3    0    0  0.88349598295E+03  0.48247709006E+03 -0.83303409224E+02  0.10100934374E+04  0.00000000000E+00 0.  1.
        -13    1    3    3    0    0  0.30442157813E+03  0.12109040490E+03 -0.73881132805E+02  0.33584788993E+03  0.00000000000E+00 0. -1.
         22    1    1    2    0    0 -0.11879175611E+04 -0.60356749496E+03  0.27919068865E+04  0.30935717085E+04  0.00000000000E+00 0. -1.
<mgrwt>
<rscale>  0 0.35731658E+04</rscale>
<asrwt>0</asrwt>
<pdfrwt beam="1">  1        2 0.54417195E+00 0.35731658E+04</pdfrwt>
<pdfrwt beam="2">  1       -2 0.13883005E+00 0.35731658E+04</pdfrwt>
<totfact> 0.22912736E-01</totfact>
</mgrwt>
</event>
<event>
 6    1  0.2236204E-005  0.1296207E+04  0.7818608E-02  0.9032579E-01
          1   -1    0    0  501    0  0.00000000000E+00  0.00000000000E+00  0.46000559337E+03  0.46000559337E+03  0.00000000000E+00 0. -1.
         -1   -1    0    0    0  501 -0.00000000000E+00 -0.00000000000E+00 -0.91311474005E+03  0.91311474005E+03  0.00000000000E+00 0.  1.
         23    2    1    2    0    0 -0.44149930217E+03  0.32066936246E+03  0.13642801440E+03  0.56981183842E+03  0.91227486287E+02 0.  0.
         13    1    3    3    0    0 -0.23268011334E+03  0.22400782925E+03  0.73190314667E+02  0.33117422133E+03  0.00000000000E+00 0.  1.
        -13    1    3    3    0    0 -0.20881918883E+03  0.96661533210E+02  0.63237699733E+02  0.23863761709E+03  0.00000000000E+00 0. -1.
         22    1    1    2    0    0  0.44149930217E+03 -0.32066936246E+03 -0.58953716108E+03  0.80330849499E+03  0.00000000000E+00 0.  1.
<mgrwt>
<rscale>  0 0.12962066E+04</rscale>
<asrwt>0</asrwt>
<pdfrwt beam="1">  1        1 0.70770092E-01 0.12962066E+04</pdfrwt>
<pdfrwt beam="2">  1       -1 0.14047919E+00 0.12962066E+04</pdfrwt>
<totfact> 0.20293060E+01</totfact>
</mgrwt>
</event>
<event>
 6    1  0.2236204E-005  0.1864213E+04  0.7818608E-02  0.8672878E-01
          1   -1    0    0  501    0  0.00000000000E+00  0.00000000000E+00  0.81301892436E+03  0.81301892436E+03  0.00000000000E+00 0. -1.
         -1   -1    0    0    0  501 -0.00000000000E+00 -0.00000000000E+00 -0.10686372208E+04  0.10686372208E+04  0.00000000000E+00 0.  1.
         23    2    1    2    0    0 -0.16567343372E+03  0.12727257118E+03 -0.10426487204E+04  0.10673694129E+04  0.92277383924E+02 0.  0.
         11    1    3    3    0    0 -0.14967402119E+03  0.67645181087E+02 -0.68389335544E+03  0.70334081693E+03  0.00000000000E+00 0. -1.
        -11    1    3    3    0    0 -0.15999412528E+02  0.59627390090E+02 -0.35875536492E+03  0.36402859600E+03  0.00000000000E+00 0.  1.
         22    1    1    2    0    0  0.16567343372E+03 -0.12727257118E+03  0.78703042395E+03  0.81428673220E+03  0.00000000000E+00 0. -1.
<mgrwt>
<rscale>  0 0.18642127E+04</rscale>
<asrwt>0</asrwt>
<pdfrwt beam="1">  1        1 0.12507984E+00 0.18642127E+04</pdfrwt>
<pdfrwt beam="2">  1       -1 0.16440573E+00 0.18642127E+04</pdfrwt>
<totfact> 0.54731126E+00</totfact>
</mgrwt>
</event>
<event>
 6    1  0.2236204E-005  0.2421331E+04  0.7818608E-02  0.8431561E-01
         -2   -1    0    0    0  501 -0.00000000000E+00  0.00000000000E+00  0.30864004628E+04  0.30864004628E+04  0.00000000000E+00 0.  1.
          2   -1    0    0  501    0  0.00000000000E+00 -0.00000000000E+00 -0.47489315524E+03  0.47489315524E+03  0.00000000000E+00 0. -1.
         23    2    1    2    0    0 -0.22730630332E+03 -0.27412034849E+03  0.30068469461E+04  0.30292188575E+04  0.90709472758E+02 0.  0.
         13    1    3    3    0    0 -0.14684843500E+03 -0.23698555490E+03  0.22566872843E+04  0.22738434676E+04  0.00000000000E+00 0.  1.
        -13    1    3    3    0    0 -0.80457868323E+02 -0.37134793587E+02  0.75015966183E+03  0.75537538992E+03  0.00000000000E+00 0. -1.
         22    1    1    2    0    0  0.22730630332E+03  0.27412034849E+03 -0.39533963854E+03  0.53207476052E+03  0.00000000000E+00 0. -1.
<mgrwt>
<rscale>  0 0.24213306E+04</rscale>
<asrwt>0</asrwt>
<pdfrwt beam="1">  1        2 0.73060487E-01 0.24213306E+04</pdfrwt>
<pdfrwt beam="2">  1       -2 0.47483083E+00 0.24213306E+04</pdfrwt>
<totfact> 0.13967370E-01</totfact>
</mgrwt>
</event>
<event>
 6    1  0.2236204E-005  0.3325832E+04  0.7818608E-02  0.8156353E-01
          2   -1    0    0  501    0  0.00000000000E+00  0.00000000000E+00  0.45917455246E+04  0.45917455246E+04  0.00000000000E+00 0. -1.
         -2   -1    0    0    0  501 -0.00000000000E+00 -0.00000000000E+00 -0.60223064220E+03  0.60223064220E+03  0.00000000000E+00 0.  1.
         23    2    1    2    0    0  0.52183967757E+03 -0.92123093425E+03 -0.36632788724E+01  0.10628195599E+04  0.92676393512E+02 0.  0.
         13    1    3    3    0    0  0.26495561664E+03 -0.54998760225E+03 -0.23449218193E+02  0.61093183519E+03  0.00000000000E+00 0.  1.
        -13    1    3    3    0    0  0.25688406094E+03 -0.37124333200E+03  0.19785939321E+02  0.45188772467E+03  0.00000000000E+00 0. -1.
         22    1    1    2    0    0 -0.52183967757E+03  0.92123093425E+03  0.39931781613E+04  0.41311566070E+04  0.00000000000E+00 0. -1.
<mgrwt>
<rscale>  0 0.33258321E+04</rscale>
<asrwt>0</asrwt>
<pdfrwt beam="1">  1        2 0.70642236E+00 0.33258321E+04</pdfrwt>
<pdfrwt beam="2">  1       -2 0.92650871E-01 0.33258321E+04</pdfrwt>
<totfact> 0.81727625E-02</totfact>
</mgrwt>
</event>
<event>
 6    1  0.2236204E-005  0.1269446E+04  0.7818608E-02  0.9054152E-01
         -2   -1    0    0    0  501 -0.00000000000E+00  0.00000000000E+00  0.12528972766E+04  0.12528972766E+04  0.00000000000E+00 0.  1.
          2   -1    0    0  501    0  0.00000000000E+00 -0.00000000000E+00 -0.32155314566E+03  0.32155314566E+03  0.00000000000E+00 0. -1.
         23    2    1    2    0    0 -0.29730346163E+03 -0.35925336726E+02  0.11575698849E+04  0.11991397910E+04  0.91039671914E+02 0.  0.
         13    1    3    3    0    0 -0.12548661803E+03 -0.29031924634E+02  0.33764706687E+03  0.36137969743E+03  0.00000000000E+00 0.  1.
        -13    1    3    3    0    0 -0.17181684360E+03 -0.68934120920E+01  0.81992281804E+03  0.83776009359E+03  0.00000000000E+00 0. -1.
         22    1    1    2    0    0  0.29730346163E+03  0.35925336726E+02 -0.22622575400E+03  0.37531063120E+03  0.00000000000E+00 0. -1.
<mgrwt>
<rscale>  0 0.12694456E+04</rscale>
<asrwt>0</asrwt>
<pdfrwt beam="1">  1        2 0.49469715E-01 0.12694456E+04</pdfrwt>
<pdfrwt beam="2">  1       -2 0.19275342E+00 0.12694456E+04</pdfrwt>
<totfact> 0.14811290E+01</totfact>
</mgrwt>
</event>
<event>
 6    1  0.2236204E-005  0.1100531E+04  0.7818608E-02  0.9204674E-01
         -2   -1    0    0    0  501 -0.00000000000E+00  0.00000000000E+00  0.27303177864E+03  0.27303177864E+03  0.00000000000E+00 0.  1.
          2   -1    0    0  501    0  0.00000000000E+00 -0.00000000000E+00 -0.11089997113E+04  0.11089997113E+04  0.00000000000E+00 0. -1.
         23    2    1    2    0    0 -0.40755670027E+03  0.36216943675E+03 -0.37351424049E+03  0.66709612067E+03  0.90747900849E+02 0.  0.
         13    1    3    3    0    0 -0.27867714925E+03  0.25690832928E+03 -0.30750160300E+03  0.48807794358E+03  0.00000000000E+00 0. -1.
        -13    1    3    3    0    0 -0.12887955102E+03  0.10526110747E+03 -0.66012637490E+02  0.17901817708E+03  0.00000000000E+00 0.  1.
         22    1    1    2    0    0  0.40755670027E+03 -0.36216943675E+03 -0.46245369220E+03  0.71493536930E+03  0.00000000000E+00 0. -1.
<mgrwt>
<rscale>  0 0.11005311E+04</rscale>
<asrwt>0</asrwt>
<pdfrwt beam="1">  1        2 0.17061534E+00 0.11005311E+04</pdfrwt>
<pdfrwt beam="2">  1       -2 0.42004890E-01 0.11005311E+04</pdfrwt>
<totfact> 0.11462725E+02</totfact>
</mgrwt>
</event>
<event>
 6    1  0.2236204E-005  0.1220341E+04  0.7818608E-02  0.9095236E-01
         -2   -1    0    0    0  501 -0.00000000000E+00  0.00000000000E+00  0.11819473717E+03  0.11819473717E+03  0.00000000000E+00 0. -1.
          2   -1    0    0  501    0  0.00000000000E+00 -0.00000000000E+00 -0.31499540805E+04  0.31499540805E+04  0.00000000000E+00 0.  1.
         23    2    1    2    0    0 -0.60249239784E+03 -0.63634039508E+02 -0.16172819545E+04  0.17293854623E+04  0.90148634238E+02 0.  0.
         13    1    3    3    0    0 -0.22714346585E+03 -0.34052587230E+02 -0.49651945089E+03  0.54706973768E+03  0.00000000000E+00 0. -1.
        -13    1    3    3    0    0 -0.37534893199E+03 -0.29581452278E+02 -0.11207625036E+04  0.11823157246E+04  0.00000000000E+00 0.  1.
         22    1    1    2    0    0  0.60249239784E+03  0.63634039508E+02 -0.14144773888E+04  0.15387633554E+04  0.00000000000E+00 0. -1.
<mgrwt>
<rscale>  0 0.12203409E+04</rscale>
<asrwt>0</asrwt>
<pdfrwt beam="1">  1        2 0.48460826E+00 0.12203409E+04</pdfrwt>
<pdfrwt beam="2">  1       -2 0.18183808E-01 0.12203409E+04</pdfrwt>
<totfact> 0.35353568E+01</totfact>
</mgrwt>
</event>
<event>
 6    1  0.2236204E-005  0.3695481E+04  0.7818608E-02  0.8068964E-01
          2   -1    0    0  501    0  0.00000000000E+00  0.00000000000E+00  0.20088019583E+04  0.20088019583E+04  0.00000000000E+00 0. -1.
         -2   -1    0    0    0  501 -0.00000000000E+00 -0.00000000000E+00 -0.16995928656E+04  0.16995928656E+04  0.00000000000E+00 0.  1.
         23    2    1    2    0    0  0.72465412469E+03  0.11014055037E+04  0.14521734021E+04  0.19635208753E+04  0.91591233423E+02 0.  0.
         11    1    3    3    0    0  0.58189093636E+03  0.81919139564E+03  0.11272686238E+04  0.15101013723E+04  0.00000000000E+00 0.  1.
        -11    1    3    3    0    0  0.14276318833E+03  0.28221410804E+03  0.32490477829E+03  0.45341950297E+03  0.00000000000E+00 0. -1.
         22    1    1    2    0    0 -0.72465412469E+03 -0.11014055037E+04 -0.11429643094E+04  0.17448739486E+04  0.00000000000E+00 0.  1.
<mgrwt>
<rscale>  0 0.36954813E+04</rscale>
<asrwt>0</asrwt>
<pdfrwt beam="1">  1        2 0.30904646E+00 0.36954813E+04</pdfrwt>
<pdfrwt beam="2">  1       -2 0.26147582E+00 0.36954813E+04</pdfrwt>
<totfact> 0.29195658E-01</totfact>
</mgrwt>
</event>
<event>
 6    1  0.2236204E-005  0.2926440E+04  0.7818608E-02  0.8265054E-01
          2   -1    0    0  501    0  0.00000000000E+00  0.00000000000E+00  0.19389580986E+04  0.19389580986E+04  0.00000000000E+00 0. -1.
         -2   -1    0    0    0  501 -0.00000000000E+00 -0.00000000000E+00 -0.11042077202E+04  0.11042077202E+04  0.00000000000E+00 0.  1.
         23    2    1    2    0    0  0.13050810480E+04  0.62990197449E+03  0.61719562364E+03  0.15777842608E+04  0.91976608438E+02 0.  0.
         11    1    3    3    0    0  0.93983194292E+03  0.48777927410E+03  0.42104207480E+03  0.11395126721E+04  0.00000000000E+00 0. -1.
        -11    1    3    3    0    0  0.36524910507E+03  0.14212270039E+03  0.19615354884E+03  0.43827158868E+03  0.00000000000E+00 0.  1.
         22    1    1    2    0    0 -0.13050810480E+04 -0.62990197449E+03  0.21755475473E+03  0.14653815580E+04  0.00000000000E+00 0.  1.
<mgrwt>
<rscale>  0 0.29264398E+04</rscale>
<asrwt>0</asrwt>
<pdfrwt beam="1">  1        2 0.29830125E+00 0.29264398E+04</pdfrwt>
<pdfrwt beam="2">  1       -2 0.16987811E+00 0.29264398E+04</pdfrwt>
<totfact> 0.13288229E+00</totfact>
</mgrwt>
</event>
<event>
 6    1  0.2236204E-005  0.1864131E+04  0.7818608E-02  0.8672920E-01
          2   -1    0    0  501    0  0.00000000000E+00  0.00000000000E+00  0.62099028431E+03  0.62099028431E+03  0.00000000000E+00 0. -1.
         -2   -1    0    0    0  501 -0.00000000000E+00 -0.00000000000E+00 -0.13989685345E+04  0.13989685345E+04  0.00000000000E+00 0.  1.
         23    2    1    2    0    0 -0.76672936863E+03  0.41195525526E+03 -0.35286640543E+02  0.87576832588E+03  0.90243872698E+02 0.  0.
         11    1    3    3    0    0 -0.24180238264E+03  0.14192053281E+03  0.29456327152E+02  0.28191755016E+03  0.00000000000E+00 0. -1.
        -11    1    3    3    0    0 -0.52492698599E+03  0.27003472245E+03 -0.64742967695E+02  0.59385077571E+03  0.00000000000E+00 0.  1.
         22    1    1    2    0    0  0.76672936863E+03 -0.41195525526E+03 -0.74269160965E+03  0.11441904929E+04  0.00000000000E+00 0.  1.
<mgrwt>
<rscale>  0 0.18641308E+04</rscale>
<asrwt>0</asrwt>
<pdfrwt beam="1">  1        2 0.95536968E-01 0.18641308E+04</pdfrwt>
<pdfrwt beam="2">  1       -2 0.21522593E+00 0.18641308E+04</pdfrwt>
<totfact> 0.47319998E+00</totfact>
</mgrwt>
</event>
<event>
 6    1  0.2236204E-005  0.2121597E+04  0.7818608E-02  0.8551789E-01
          2   -1    0    0  501    0  0.00000000000E+00  0.00000000000E+00  0.24344057777E+04  0.24344057777E+04  0.00000000000E+00 0.  1.
         -2   -1    0    0    0  501 -0.00000000000E+00 -0.00000000000E+00 -0.46224560650E+03  0.46224560650E+03  0.00000000000E+00 0. -1.
         23    2    1    2    0    0 -0.29889510566E+03 -0.15065158985E+03  0.23594661077E+04  0.23847528843E+04  0.89060767563E+02 0.  0.
         13    1    3    3    0    0 -0.14022122758E+03 -0.39941927728E+02  0.12582805842E+04  0.12666994035E+04  0.00000000000E+00 0. -1.
        -13    1    3    3    0    0 -0.15867387808E+03 -0.11070966212E+03  0.11011855234E+04  0.11180534808E+04  0.00000000000E+00 0.  1.
         22    1    1    2    0    0  0.29889510566E+03  0.15065158985E+03 -0.38730593649E+03  0.51189849986E+03  0.00000000000E+00 0. -1.
<mgrwt>
<rscale>  0 0.21215969E+04</rscale>
<asrwt>0</asrwt>
<pdfrwt beam="1">  1        2 0.37452396E+00 0.21215969E+04</pdfrwt>
<pdfrwt beam="2">  1       -2 0.71114710E-01 0.21215969E+04</pdfrwt>
<totfact> 0.62758831E+00</totfact>
</mgrwt>
</event>
<event>
 6    1  0.2236204E-005  0.4502449E+04  0.7818608E-02  0.7910208E-01
          2   -1    0    0  501    0  0.00000000000E+00  0.00000000000E+00  0.15852792541E+04  0.15852792541E+04  0.00000000000E+00 0. -1.
         -2   -1    0    0    0  501 -0.00000000000E+00 -0.00000000000E+00 -0.31969199703E+04  0.31969199703E+04  0.00000000000E+00 0.  1.
         23    2    1    2    0    0 -0.12735149499E+04 -0.61954664104E+03  0.10514938593E+04  0.17659160588E+04  0.84509304185E+02 0.  0.
         13    1    3    3    0    0 -0.75558875592E+03 -0.39686919043E+03  0.59329057345E+03  0.10394292794E+04  0.00000000000E+00 0. -1.
        -13    1    3    3    0    0 -0.51792619401E+03 -0.22267745060E+03  0.45820328586E+03  0.72648677939E+03  0.00000000000E+00 0.  1.
         22    1    1    2    0    0  0.12735149499E+04  0.61954664104E+03 -0.26631345755E+04  0.30162831657E+04  0.00000000000E+00 0.  1.
<mgrwt>
<rscale>  0 0.45024486E+04</rscale>
<asrwt>0</asrwt>
<pdfrwt beam="1">  1        2 0.24388912E+00 0.45024486E+04</pdfrwt>
<pdfrwt beam="2">  1       -2 0.49183384E+00 0.45024486E+04</pdfrwt>
<totfact> 0.16033447E-02</totfact>
</mgrwt>
</event>
<event>
 6    1  0.2236204E-005  0.1238544E+04  0.7818608E-02  0.9079772E-01
          2   -1    0    0  501    0  0.00000000000E+00  0.00000000000E+00  0.83955827267E+03  0.83955827267E+03  0.00000000000E+00 0. -1.
         -2   -1    0    0    0  501 -0.00000000000E+00 -0.00000000000E+00 -0.45678552428E+03  0.45678552428E+03  0.00000000000E+00 0.  1.
         23    2    1    2    0    0  0.78937158761E+02  0.20075952111E+03 -0.40991655658E+03  0.47482581507E+03  0.10436719289E+03 0.  0.
         13    1    3    3    0    0  0.45826162953E+02  0.13794187894E+03 -0.16533527950E+03  0.22014484737E+03  0.00000000000E+00 0. -1.
        -13    1    3    3    0    0  0.33110995808E+02  0.62817642167E+02 -0.24458127708E+03  0.25468096770E+03  0.00000000000E+00 0.  1.
         22    1    1    2    0    0 -0.78937158761E+02 -0.20075952111E+03  0.79268930497E+03  0.82151798189E+03  0.00000000000E+00 0. -1.
<mgrwt>
<rscale>  0 0.12385444E+04</rscale>
<asrwt>0</asrwt>
<pdfrwt beam="1">  1        2 0.12916281E+00 0.12385444E+04</pdfrwt>
<pdfrwt beam="2">  1       -2 0.70274696E-01 0.12385444E+04</pdfrwt>
<totfact> 0.58577737E+01</totfact>
</mgrwt>
</event>
<event>
 6    1  0.2236204E-005  0.2276354E+04  0.7818608E-02  0.8487303E-01
         -2   -1    0    0    0  501 -0.00000000000E+00  0.00000000000E+00  0.30226421582E+03  0.30226421582E+03  0.00000000000E+00 0.  1.
          2   -1    0    0  501    0  0.00000000000E+00 -0.00000000000E+00 -0.42858097527E+04  0.42858097527E+04  0.00000000000E+00 0. -1.
         23    2    1    2    0    0  0.89008872802E+02 -0.64856572443E+03 -0.38670734420E+04  0.39231485387E+04  0.90980067957E+02 0.  0.
         13    1    3    3    0    0  0.10290354200E+03 -0.50598012834E+03 -0.31257115599E+04  0.31680716193E+04  0.00000000000E+00 0. -1.
        -13    1    3    3    0    0 -0.13894669199E+02 -0.14258559609E+03 -0.74136188205E+03  0.75507691940E+03  0.00000000000E+00 0.  1.
         22    1    1    2    0    0 -0.89008872802E+02  0.64856572443E+03 -0.11647209491E+03  0.66492542983E+03  0.00000000000E+00 0.  1.
<mgrwt>
<rscale>  0 0.22763540E+04</rscale>
<asrwt>0</asrwt>
<pdfrwt beam="1">  1        2 0.65935529E+00 0.22763540E+04</pdfrwt>
<pdfrwt beam="2">  1       -2 0.46502191E-01 0.22763540E+04</pdfrwt>
<totfact> 0.78434853E-01</totfact>
</mgrwt>
</event>
<event>
 6    1  0.2236204E-005  0.3260112E+04  0.7818608E-02  0.8173120E-01
          4   -1    0    0  501    0  0.00000000000E+00  0.00000000000E+00  0.18223189104E+04  0.18223189104E+04  0.00000000000E+00 0. -1.
         -4   -1    0    0    0  501 -0.00000000000E+00 -0.00000000000E+00 -0.14580773939E+04  0.14580773939E+04  0.00000000000E+00 0.  1.
         23    2    1    2    0    0  0.99750008135E+03 -0.27354637885E+03 -0.10839372654E+04  0.15007739235E+04  0.86996210221E+02 0.  0.
         11    1    3    3    0    0  0.87334885059E+03 -0.25854919199E+03 -0.92016303004E+03  0.12947146023E+04  0.00000000000E+00 0. -1.
        -11    1    3    3    0    0  0.12415123076E+03 -0.14997186862E+02 -0.16377423533E+03  0.20605932124E+03  0.00000000000E+00 0.  1.
         22    1    1    2    0    0 -0.99750008135E+03  0.27354637885E+03  0.14481787819E+04  0.17796223807E+04  0.00000000000E+00 0. -1.
<mgrwt>
<rscale>  0 0.32601117E+04</rscale>
<asrwt>0</asrwt>
<pdfrwt beam="1">  1        4 0.28035675E+00 0.32601117E+04</pdfrwt>
<pdfrwt beam="2">  1       -4 0.22431960E+00 0.32601117E+04</pdfrwt>
<totfact> 0.62112549E-03</totfact>
</mgrwt>
</event>
<event>
 6    1  0.2236204E-005  0.1512320E+04  0.7818608E-02  0.8876302E-01
         -1   -1    0    0    0  501 -0.00000000000E+00  0.00000000000E+00  0.17492001476E+03  0.17492001476E+03  0.00000000000E+00 0.  1.
          1   -1    0    0  501    0  0.00000000000E+00 -0.00000000000E+00 -0.32687949851E+04  0.32687949851E+04  0.00000000000E+00 0. -1.
         23    2    1    2    0    0  0.43153716431E+02  0.57564187328E+03 -0.26542707411E+04  0.27181271776E+04  0.99178509248E+02 0.  0.
         11    1    3    3    0    0 -0.24398373996E+02  0.18715789372E+03 -0.98460892093E+03  0.10025358273E+04  0.00000000000E+00 0.  1.
        -11    1    3    3    0    0  0.67552090427E+02  0.38848397956E+03 -0.16696618202E+04  0.17155913503E+04  0.00000000000E+00 0. -1.
         22    1    1    2    0    0 -0.43153716431E+02 -0.57564187328E+03 -0.43960422923E+03  0.72558782231E+03  0.00000000000E+00 0.  1.
<mgrwt>
<rscale>  0 0.15123196E+04</rscale>
<asrwt>0</asrwt>
<pdfrwt beam="1">  1        1 0.50289152E+00 0.15123196E+04</pdfrwt>
<pdfrwt beam="2">  1       -1 0.26910772E-01 0.15123196E+04</pdfrwt>
<totfact> 0.45356128E+00</totfact>
</mgrwt>
</event>
<event>
 6    1  0.2236204E-005  0.2438987E+04  0.7818608E-02  0.8425050E-01
         -1   -1    0    0    0  501 -0.00000000000E+00  0.00000000000E+00  0.14356733093E+04  0.14356733093E+04  0.00000000000E+00 0.  1.
          1   -1    0    0  501    0  0.00000000000E+00 -0.00000000000E+00 -0.10358658448E+04  0.10358658448E+04  0.00000000000E+00 0. -1.
         23    2    1    2    0    0  0.18485942275E+03  0.10534122620E+04 -0.38995432621E+03  0.11420377116E+04  0.91298183413E+02 0.  0.
         11    1    3    3    0    0  0.11685365876E+03  0.64690528251E+03 -0.28651393952E+03  0.71709933736E+03  0.00000000000E+00 0.  1.
        -11    1    3    3    0    0  0.68005763991E+02  0.40650697945E+03 -0.10344038669E+03  0.42493837421E+03  0.00000000000E+00 0. -1.
         22    1    1    2    0    0 -0.18485942275E+03 -0.10534122620E+04  0.78976179069E+03  0.13295014426E+04  0.00000000000E+00 0.  1.
<mgrwt>
<rscale>  0 0.24389875E+04</rscale>
<asrwt>0</asrwt>
<pdfrwt beam="1">  1        1 0.15936398E+00 0.24389875E+04</pdfrwt>
<pdfrwt beam="2">  1       -1 0.22087282E+00 0.24389875E+04</pdfrwt>
<totfact> 0.13760077E+00</totfact>
</mgrwt>
</event>
<event>
 6    1  0.2236204E-005  0.6076019E+04  0.7818608E-02  0.7681047E-01
          2   -1    0    0  501    0  0.00000000000E+00  0.00000000000E+00  0.28477707177E+04  0.28477707177E+04  0.00000000000E+00 0. -1.
         -2   -1    0    0    0  501 -0.00000000000E+00 -0.00000000000E+00 -0.32409565406E+04  0.32409565406E+04  0.00000000000E+00 0.  1.
         23    2    1    2    0    0  0.22085592513E+04 -0.10240995667E+03  0.18903066429E+04  0.29102748666E+04  0.90657758496E+02 0.  0.
         13    1    3    3    0    0  0.46512486671E+03 -0.47028867782E+02  0.36465716024E+03  0.59289771508E+03  0.00000000000E+00 0. -1.
        -13    1    3    3    0    0  0.17434343846E+04 -0.55381088886E+02  0.15256494826E+04  0.23173771515E+04  0.00000000000E+00 0.  1.
         22    1    1    2    0    0 -0.22085592513E+04  0.10240995667E+03 -0.22834924658E+04  0.31784523918E+04  0.00000000000E+00 0.  1.
<mgrwt>
<rscale>  0 0.60760188E+04</rscale>
<asrwt>0</asrwt>
<pdfrwt beam="1">  1        2 0.43811857E+00 0.60760188E+04</pdfrwt>
<pdfrwt beam="2">  1       -2 0.49860870E+00 0.60760188E+04</pdfrwt>
<totfact> 0.24631726E-03</totfact>
</mgrwt>
</event>
<event>
 6    1  0.2236204E-005  0.5045070E+04  0.7818608E-02  0.7821592E-01
         -2   -1    0    0    0  501 -0.00000000000E+00  0.00000000000E+00  0.24218111739E+04  0.24218111739E+04  0.00000000000E+00 0.  1.
          2   -1    0    0  501    0  0.00000000000E+00 -0.00000000000E+00 -0.26274478626E+04  0.26274478626E+04  0.00000000000E+00 0. -1.
         23    2    1    2    0    0 -0.18160323913E+04  0.20099513879E+03  0.16366259567E+04  0.24545905901E+04  0.89987503459E+02 0.  0.
         13    1    3    3    0    0 -0.47321525718E+03  0.75529714205E+02  0.47290109246E+03  0.67325542003E+03  0.00000000000E+00 0.  1.
        -13    1    3    3    0    0 -0.13428171341E+04  0.12546542459E+03  0.11637248643E+04  0.17813351701E+04  0.00000000000E+00 0. -1.
         22    1    1    2    0    0  0.18160323913E+04 -0.20099513879E+03 -0.18422626455E+04  0.25946684464E+04  0.00000000000E+00 0. -1.
<mgrwt>
<rscale>  0 0.50450699E+04</rscale>
<asrwt>0</asrwt>
<pdfrwt beam="1">  1        2 0.40422275E+00 0.50450699E+04</pdfrwt>
<pdfrwt beam="2">  1       -2 0.37258634E+00 0.50450699E+04</pdfrwt>
<totfact> 0.23774902E-02</totfact>
</mgrwt>
</event>
<event>
 6    1  0.2236204E-005  0.3170888E+04  0.7818608E-02  0.8196548E-01
          2   -1    0    0  501    0  0.00000000000E+00  0.00000000000E+00  0.20522260847E+04  0.20522260847E+04  0.00000000000E+00 0. -1.
         -2   -1    0    0    0  501 -0.00000000000E+00 -0.00000000000E+00 -0.12248323807E+04  0.12248323807E+04  0.00000000000E+00 0.  1.
         23    2    1    2    0    0  0.44618746178E+03 -0.82340650723E+03 -0.90636999799E+03  0.13065209495E+04  0.91700005440E+02 0.  0.
         11    1    3    3    0    0  0.27469923956E+03 -0.52991466283E+03 -0.51706237699E+03  0.78969786868E+03  0.00000000000E+00 0.  1.
        -11    1    3    3    0    0  0.17148822221E+03 -0.29349184440E+03 -0.38930762099E+03  0.51682308080E+03  0.00000000000E+00 0. -1.
         22    1    1    2    0    0 -0.44618746178E+03  0.82340650723E+03  0.17337637020E+04  0.19705375159E+04  0.00000000000E+00 0. -1.
<mgrwt>
<rscale>  0 0.31708882E+04</rscale>
<asrwt>0</asrwt>
<pdfrwt beam="1">  1        2 0.31572709E+00 0.31708882E+04</pdfrwt>
<pdfrwt beam="2">  1       -2 0.18843575E+00 0.31708882E+04</pdfrwt>
<totfact> 0.83758549E-01</totfact>
</mgrwt>
</event>
<event>
 6    1  0.2236204E-005  0.1602117E+04  0.7818608E-02  0.8819248E-01
         -2   -1    0    0    0  501 -0.00000000000E+00  0.00000000000E+00  0.67485958264E+03  0.67485958264E+03  0.00000000000E+00 0.  1.
          2   -1    0    0  501    0  0.00000000000E+00 -0.00000000000E+00 -0.95085698367E+03  0.95085698367E+03  0.00000000000E+00 0. -1.
         23    2    1    2    0    0  0.52016565500E+03  0.54018070445E+03 -0.41665797705E+03  0.86272711701E+03  0.91250788889E+02 0.  0.
         11    1    3    3    0    0  0.49632936922E+03  0.48697925804E+03 -0.36754311993E+03  0.78649830611E+03  0.00000000000E+00 0.  1.
        -11    1    3    3    0    0  0.23836285781E+02  0.53201446415E+02 -0.49114857116E+02  0.76228810892E+02  0.00000000000E+00 0. -1.
         22    1    1    2    0    0 -0.52016565500E+03 -0.54018070445E+03  0.14066057601E+03  0.76298944931E+03  0.00000000000E+00 0.  1.
<mgrwt>
<rscale>  0 0.16021173E+04</rscale>
<asrwt>0</asrwt>
<pdfrwt beam="1">  1        2 0.14628569E+00 0.16021173E+04</pdfrwt>
<pdfrwt beam="2">  1       -2 0.10382455E+00 0.16021173E+04</pdfrwt>
<totfact> 0.19636599E+01</totfact>
</mgrwt>
</event>
<event>
 6    1  0.2236204E-005  0.2037812E+04  0.7818608E-02  0.8589144E-01
         -2   -1    0    0    0  501 -0.00000000000E+00  0.00000000000E+00  0.46882709592E+03  0.46882709592E+03  0.00000000000E+00 0.  1.
          2   -1    0    0  501    0  0.00000000000E+00 -0.00000000000E+00 -0.22143973196E+04  0.22143973196E+04  0.00000000000E+00 0. -1.
         23    2    1    2    0    0 -0.99822800756E+03 -0.18554384246E+03 -0.77379928882E+03  0.12777976396E+04  0.55819315015E+02 0.  0.
         13    1    3    3    0    0 -0.48416589443E+03 -0.63362597335E+02 -0.38371655917E+03  0.62102321200E+03  0.00000000000E+00 0.  1.
        -13    1    3    3    0    0 -0.51406211313E+03 -0.12218124513E+03 -0.39008272965E+03  0.65677442763E+03  0.00000000000E+00 0. -1.
         22    1    1    2    0    0  0.99822800756E+03  0.18554384246E+03 -0.97177093486E+03  0.14054267759E+04  0.00000000000E+00 0. -1.
<mgrwt>
<rscale>  0 0.20378120E+04</rscale>
<asrwt>0</asrwt>
<pdfrwt beam="1">  1        2 0.34067652E+00 0.20378120E+04</pdfrwt>
<pdfrwt beam="2">  1       -2 0.72127244E-01 0.20378120E+04</pdfrwt>
<totfact> 0.81718040E+00</totfact>
</mgrwt>
</event>
<event>
 6    1  0.2236204E-005  0.3119848E+04  0.7818608E-02  0.8210312E-01
         -2   -1    0    0    0  501 -0.00000000000E+00  0.00000000000E+00  0.93375556909E+03  0.93375556909E+03  0.00000000000E+00 0.  1.
          2   -1    0    0  501    0  0.00000000000E+00 -0.00000000000E+00 -0.26059947772E+04  0.26059947772E+04  0.00000000000E+00 0. -1.
         23    2    1    2    0    0 -0.26693721895E+03 -0.87680637040E+03 -0.22671248388E+04  0.24470775666E+04  0.91042253494E+02 0.  0.
         13    1    3    3    0    0 -0.11963378711E+03 -0.48697154889E+03 -0.11415254387E+04  0.12468094721E+04  0.00000000000E+00 0. -1.
        -13    1    3    3    0    0 -0.14730343184E+03 -0.38983482150E+03 -0.11255994001E+04  0.12002680945E+04  0.00000000000E+00 0.  1.
         22    1    1    2    0    0  0.26693721895E+03  0.87680637040E+03  0.59488563068E+03  0.10926727798E+04  0.00000000000E+00 0.  1.
<mgrwt>
<rscale>  0 0.31198475E+04</rscale>
<asrwt>0</asrwt>
<pdfrwt beam="1">  1        2 0.40092227E+00 0.31198475E+04</pdfrwt>
<pdfrwt beam="2">  1       -2 0.14365471E+00 0.31198475E+04</pdfrwt>
<totfact> 0.85893519E-01</totfact>
</mgrwt>
</event>
<event>
 6    1  0.2236204E-005  0.3137494E+04  0.7818608E-02  0.8205523E-01
          2   -1    0    0  501    0  0.00000000000E+00  0.00000000000E+00  0.85065273252E+03  0.85065273252E+03  0.00000000000E+00 0.  1.
         -2   -1    0    0    0  501 -0.00000000000E+00 -0.00000000000E+00 -0.28930331586E+04  0.28930331586E+04  0.00000000000E+00 0. -1.
         23    2    1    2    0    0 -0.13583681521E+04 -0.49630819105E+03 -0.30068943080E+03  0.14798454860E+04  0.89680942736E+02 0.  0.
         11    1    3    3    0    0 -0.38583864314E+03 -0.98390292868E+02 -0.83847640800E+02  0.40691833964E+03  0.00000000000E+00 0. -1.
        -11    1    3    3    0    0 -0.97252950891E+03 -0.39791789818E+03 -0.21684179000E+03  0.10729271463E+04  0.00000000000E+00 0.  1.
         22    1    1    2    0    0  0.13583681521E+04  0.49630819105E+03 -0.17416909953E+04  0.22638404051E+04  0.00000000000E+00 0. -1.
<mgrwt>
<rscale>  0 0.31374936E+04</rscale>
<asrwt>0</asrwt>
<pdfrwt beam="1">  1        2 0.13086965E+00 0.31374936E+04</pdfrwt>
<pdfrwt beam="2">  1       -2 0.44508203E+00 0.31374936E+04</pdfrwt>
<totfact> 0.10024660E-01</totfact>
</mgrwt>
</event>
<event>
 6    1  0.2236204E-005  0.2835550E+04  0.7818608E-02  0.8292316E-01
         -2   -1    0    0    0  501 -0.00000000000E+00  0.00000000000E+00  0.85421692697E+03  0.85421692697E+03  0.00000000000E+00 0.  1.
          2   -1    0    0  501    0  0.00000000000E+00 -0.00000000000E+00 -0.23531323285E+04  0.23531323285E+04  0.00000000000E+00 0. -1.
         23    2    1    2    0    0 -0.53624109183E+03  0.12409647133E+04 -0.12281093488E+04  0.18286238127E+04  0.89802827019E+02 0.  0.
         13    1    3    3    0    0 -0.50504419097E+03  0.11234624222E+04 -0.10919032151E+04  0.16460528789E+04  0.00000000000E+00 0.  1.
        -13    1    3    3    0    0 -0.31196900864E+02  0.11750229104E+03 -0.13620613371E+03  0.18257093384E+03  0.00000000000E+00 0. -1.
         22    1    1    2    0    0  0.53624109183E+03 -0.12409647133E+04 -0.27080605266E+03  0.13787254427E+04  0.00000000000E+00 0.  1.
<mgrwt>
<rscale>  0 0.28355497E+04</rscale>
<asrwt>0</asrwt>
<pdfrwt beam="1">  1        2 0.36202035E+00 0.28355497E+04</pdfrwt>
<pdfrwt beam="2">  1       -2 0.13141799E+00 0.28355497E+04</pdfrwt>
<totfact> 0.15499249E+00</totfact>
</mgrwt>
</event>
<event>
 6    1  0.2236204E-005  0.2735028E+04  0.7818608E-02  0.8323728E-01
          1   -1    0    0  501    0  0.00000000000E+00  0.00000000000E+00  0.16370322417E+04  0.16370322417E+04  0.00000000000E+00 0. -1.
         -1   -1    0    0    0  501 -0.00000000000E+00 -0.00000000000E+00 -0.11423684452E+04  0.11423684452E+04  0.00000000000E+00 0.  1.
         23    2    1    2    0    0 -0.39051349343E+03 -0.88848847694E+03 -0.72923487072E+03  0.12174018042E+04  0.91493682210E+02 0.  0.
         13    1    3    3    0    0 -0.18440062733E+03 -0.40820499485E+03 -0.28011532114E+03  0.52829868665E+03  0.00000000000E+00 0.  1.
        -13    1    3    3    0    0 -0.20611286611E+03 -0.48028348209E+03 -0.44911954958E+03  0.68910311751E+03  0.00000000000E+00 0. -1.
         22    1    1    2    0    0  0.39051349343E+03  0.88848847694E+03  0.12238986672E+04  0.15619988827E+04  0.00000000000E+00 0. -1.
<mgrwt>
<rscale>  0 0.27350276E+04</rscale>
<asrwt>0</asrwt>
<pdfrwt beam="1">  1        1 0.25185112E+00 0.27350276E+04</pdfrwt>
<pdfrwt beam="2">  1       -1 0.17574899E+00 0.27350276E+04</pdfrwt>
<totfact> 0.10234308E+00</totfact>
</mgrwt>
</event>
<event>
 6    1  0.2236204E-005  0.2542590E+04  0.7818608E-02  0.8387968E-01
          2   -1    0    0  501    0  0.00000000000E+00  0.00000000000E+00  0.20681529406E+04  0.20681529406E+04  0.00000000000E+00 0. -1.
         -2   -1    0    0    0  501 -0.00000000000E+00 -0.00000000000E+00 -0.78146571323E+03  0.78146571323E+03  0.00000000000E+00 0.  1.
         23    2    1    2    0    0  0.59742909252E+02 -0.12678555779E+04  0.59998590041E+03  0.14065019939E+04  0.85075240113E+02 0.  0.
         13    1    3    3    0    0  0.43878920540E+02 -0.75461625706E+03  0.31178924899E+03  0.81766960985E+03  0.00000000000E+00 0. -1.
        -13    1    3    3    0    0  0.15863988712E+02 -0.51323932088E+03  0.28819665142E+03  0.58883238406E+03  0.00000000000E+00 0.  1.
         22    1    1    2    0    0 -0.59742909252E+02  0.12678555779E+04  0.68670132696E+03  0.14431166599E+04  0.00000000000E+00 0. -1.
<mgrwt>
<rscale>  0 0.25425897E+04</rscale>
<asrwt>0</asrwt>
<pdfrwt beam="1">  1        2 0.31817738E+00 0.25425897E+04</pdfrwt>
<pdfrwt beam="2">  1       -2 0.12022549E+00 0.25425897E+04</pdfrwt>
<totfact> 0.28754472E+00</totfact>
</mgrwt>
</event>
<event>
 6    1  0.2236204E-005  0.1719750E+04  0.7818608E-02  0.8750180E-01
          1   -1    0    0  501    0  0.00000000000E+00  0.00000000000E+00  0.17913571009E+04  0.17913571009E+04  0.00000000000E+00 0. -1.
         -1   -1    0    0    0  501 -0.00000000000E+00 -0.00000000000E+00 -0.41275133893E+03  0.41275133893E+03  0.00000000000E+00 0.  1.
         23    2    1    2    0    0 -0.79584537048E+03  0.17768842196E+03  0.10309158049E+04  0.13176371570E+04  0.91854513715E+02 0.  0.
         13    1    3    3    0    0 -0.14865426270E+03  0.69117105208E+00  0.16289241734E+03  0.22052779227E+03  0.00000000000E+00 0. -1.
        -13    1    3    3    0    0 -0.64719110778E+03  0.17699725091E+03  0.86802338761E+03  0.10971093648E+04  0.00000000000E+00 0.  1.
         22    1    1    2    0    0  0.79584537048E+03 -0.17768842196E+03  0.34768995701E+03  0.88647128279E+03  0.00000000000E+00 0.  1.
<mgrwt>
<rscale>  0 0.17197500E+04</rscale>
<asrwt>0</asrwt>
<pdfrwt beam="1">  1        1 0.27559340E+00 0.17197500E+04</pdfrwt>
<pdfrwt beam="2">  1       -1 0.63500207E-01 0.17197500E+04</pdfrwt>
<totfact> 0.98679159E+00</totfact>
</mgrwt>
</event>
<event>
 6    1  0.2236204E-005  0.2784070E+04  0.7818608E-02  0.8308231E-01
          2   -1    0    0  501    0  0.00000000000E+00  0.00000000000E+00  0.87255047030E+03  0.87255047030E+03  0.00000000000E+00 0. -1.
         -2   -1    0    0    0  501 -0.00000000000E+00 -0.00000000000E+00 -0.22208022602E+04  0.22208022602E+04  0.00000000000E+00 0.  1.
         23    2    1    2    0    0  0.84680596220E+01  0.10496264387E+04  0.33851282115E+03  0.11066564221E+04  0.91159956591E+02 0.  0.
         11    1    3    3    0    0 -0.21758955885E+02  0.79514780022E+02  0.36630814787E+02  0.90210137984E+02  0.00000000000E+00 0. -1.
        -11    1    3    3    0    0  0.30227015507E+02  0.97011165865E+03  0.30188200637E+03  0.10164462841E+04  0.00000000000E+00 0.  1.
         22    1    1    2    0    0 -0.84680596220E+01 -0.10496264387E+04 -0.16867646111E+04  0.19866963085E+04  0.00000000000E+00 0.  1.
<mgrwt>
<rscale>  0 0.27840704E+04</rscale>
<asrwt>0</asrwt>
<pdfrwt beam="1">  1        2 0.13423853E+00 0.27840704E+04</pdfrwt>
<pdfrwt beam="2">  1       -2 0.34166189E+00 0.27840704E+04</pdfrwt>
<totfact> 0.46827267E-01</totfact>
</mgrwt>
</event>
<event>
 6    1  0.2236204E-005  0.2391541E+04  0.7818608E-02  0.8442677E-01
         -2   -1    0    0    0  501 -0.00000000000E+00  0.00000000000E+00  0.72198145964E+03  0.72198145964E+03  0.00000000000E+00 0.  1.
          2   -1    0    0  501    0  0.00000000000E+00 -0.00000000000E+00 -0.19804765692E+04  0.19804765692E+04  0.00000000000E+00 0. -1.
         23    2    1    2    0    0 -0.56178010750E+03  0.94513959586E+03 -0.11563158380E+04  0.15982269170E+04  0.91527134059E+02 0.  0.
         13    1    3    3    0    0 -0.31217154961E+03  0.60688242020E+03 -0.69330458304E+03  0.97284561632E+03  0.00000000000E+00 0. -1.
        -13    1    3    3    0    0 -0.24960855789E+03  0.33825717566E+03 -0.46301125493E+03  0.62538130069E+03  0.00000000000E+00 0.  1.
         22    1    1    2    0    0  0.56178010750E+03 -0.94513959586E+03 -0.10217927163E+03  0.11042311119E+04  0.00000000000E+00 0.  1.
<mgrwt>
<rscale>  0 0.23915412E+04</rscale>
<asrwt>0</asrwt>
<pdfrwt beam="1">  1        2 0.30468870E+00 0.23915412E+04</pdfrwt>
<pdfrwt beam="2">  1       -2 0.11107407E+00 0.23915412E+04</pdfrwt>
<totfact> 0.39556780E+00</totfact>
</mgrwt>
</event>
<event>
 6    1  0.2236204E-005  0.1840699E+04  0.7818608E-02  0.8684951E-01
          2   -1    0    0  501    0  0.00000000000E+00  0.00000000000E+00  0.30076966230E+04  0.30076966230E+04  0.00000000000E+00 0. -1.
         -2   -1    0    0    0  501 -0.00000000000E+00 -0.00000000000E+00 -0.28162529332E+03  0.28162529332E+03  0.00000000000E+00 0.  1.
         23    2    1    2    0    0 -0.30756675727E+03  0.86488665133E+03  0.13937269456E+04  0.16713701903E+04  0.91527506300E+02 0.  0.
         13    1    3    3    0    0 -0.58307961747E+02  0.19183080499E+03  0.37448061335E+03  0.42477594791E+03  0.00000000000E+00 0. -1.
        -13    1    3    3    0    0 -0.24925879553E+03  0.67305584634E+03  0.10192463322E+04  0.12465942424E+04  0.00000000000E+00 0.  1.
         22    1    1    2    0    0  0.30756675727E+03 -0.86488665133E+03  0.13323443841E+04  0.16179517260E+04  0.00000000000E+00 0. -1.
<mgrwt>
<rscale>  0 0.18406993E+04</rscale>
<asrwt>0</asrwt>
<pdfrwt beam="1">  1        2 0.46272254E+00 0.18406993E+04</pdfrwt>
<pdfrwt beam="2">  1       -2 0.43326970E-01 0.18406993E+04</pdfrwt>
<totfact> 0.82132881E+00</totfact>
</mgrwt>
</event>
<event>
 6    1  0.4717435E-005  0.4699908E+04  0.7818608E-02  0.7876544E-01
         -2   -1    0    0    0  501 -0.00000000000E+00  0.00000000000E+00  0.25266109287E+04  0.25266109287E+04  0.00000000000E+00 0.  1.
          2   -1    0    0  501    0  0.00000000000E+00 -0.00000000000E+00 -0.21856482203E+04  0.21856482203E+04  0.00000000000E+00 0. -1.
         23    2    1    2    0    0 -0.14058135487E+04  0.17820939582E+04 -0.43596636282E+03  0.23131365196E+04  0.91450966827E+02 0.  0.
         11    1    3    3    0    0 -0.11585230842E+04  0.14117785022E+04 -0.34150584187E+03  0.18579344757E+04  0.00000000000E+00 0.  1.
        -11    1    3    3    0    0 -0.24729046442E+03  0.37031545594E+03 -0.94460520945E+02  0.45520204385E+03  0.00000000000E+00 0. -1.
         22    1    1    2    0    0  0.14058135487E+04 -0.17820939582E+04  0.77692907119E+03  0.23991226294E+04  0.00000000000E+00 0.  1.
<mgrwt>
<rscale>  0 0.46999075E+04</rscale>
<asrwt>0</asrwt>
<pdfrwt beam="1">  1        2 0.33625357E+00 0.46999075E+04</pdfrwt>
<pdfrwt beam="2">  1       -2 0.38870937E+00 0.46999075E+04</pdfrwt>
<totfact> 0.34497398E-02</totfact>
</mgrwt>
</event>
<event>
 6    1  0.2236204E-005  0.1731349E+04  0.7818608E-02  0.8743684E-01
         -2   -1    0    0    0  501 -0.00000000000E+00  0.00000000000E+00  0.11515167354E+04  0.11515167354E+04  0.00000000000E+00 0.  1.
          2   -1    0    0  501    0  0.00000000000E+00 -0.00000000000E+00 -0.65078745686E+03  0.65078745686E+03  0.00000000000E+00 0. -1.
         23    2    1    2    0    0 -0.33765191160E+03 -0.18631417925E+02  0.10778915058E+04  0.11333705784E+04  0.91229527264E+02 0.  0.
         13    1    3    3    0    0 -0.29582982130E+03 -0.47143907864E+02  0.93021827155E+03  0.97726345677E+03  0.00000000000E+00 0. -1.
        -13    1    3    3    0    0 -0.41822090300E+02  0.28512489939E+02  0.14767323425E+03  0.15610712167E+03  0.00000000000E+00 0.  1.
         22    1    1    2    0    0  0.33765191160E+03  0.18631417925E+02 -0.57716222726E+03  0.66893361383E+03  0.00000000000E+00 0. -1.
<mgrwt>
<rscale>  0 0.17313494E+04</rscale>
<asrwt>0</asrwt>
<pdfrwt beam="1">  1        2 0.10012115E+00 0.17313494E+04</pdfrwt>
<pdfrwt beam="2">  1       -2 0.17715642E+00 0.17313494E+04</pdfrwt>
<totfact> 0.80802547E+00</totfact>
</mgrwt>
</event>
<event>
 6    1  0.2236204E-005  0.9546221E+03  0.7818608E-02  0.9359764E-01
          2   -1    0    0  501    0  0.00000000000E+00  0.00000000000E+00  0.49114037115E+03  0.49114037115E+03  0.00000000000E+00 0. -1.
         -2   -1    0    0    0  501 -0.00000000000E+00 -0.00000000000E+00 -0.46387115974E+03  0.46387115974E+03  0.00000000000E+00 0.  1.
         23    2    1    2    0    0 -0.25569113659E+03  0.26930550964E+03 -0.28046626554E+03  0.47272060352E+03  0.83066407335E+02 0.  0.
         11    1    3    3    0    0 -0.17456395103E+03  0.16481585931E+03 -0.13239146848E+03  0.27416115955E+03  0.00000000000E+00 0.  1.
        -11    1    3    3    0    0 -0.81127185565E+02  0.10448965033E+03 -0.14807479707E+03  0.19855944397E+03  0.00000000000E+00 0. -1.
         22    1    1    2    0    0  0.25569113659E+03 -0.26930550964E+03  0.30773547695E+03  0.48229092737E+03  0.00000000000E+00 0. -1.
<mgrwt>
<rscale>  0 0.95462213E+03</rscale>
<asrwt>0</asrwt>
<pdfrwt beam="1">  1        2 0.75560057E-01 0.95462213E+03</pdfrwt>
<pdfrwt beam="2">  1       -2 0.71364794E-01 0.95462213E+03</pdfrwt>
<totfact> 0.11220365E+02</totfact>
</mgrwt>
</event>
<event>
 6    1  0.2236204E-005  0.6195836E+03  0.7818608E-02  0.9865589E-01
          1   -1    0    0  501    0  0.00000000000E+00  0.00000000000E+00  0.25513672842E+03  0.25513672842E+03  0.00000000000E+00 0. -1.
         -1   -1    0    0    0  501 -0.00000000000E+00 -0.00000000000E+00 -0.37615506287E+03  0.37615506287E+03  0.00000000000E+00 0.  1.
         23    2    1    2    0    0  0.17221534672E+02  0.18637867547E+03  0.18076088092E+03  0.27618013736E+03  0.92560144095E+02 0.  0.
         11    1    3    3    0    0  0.33320152917E+01  0.51758166302E+02  0.19154699012E+01  0.51900665986E+02  0.00000000000E+00 0.  1.
        -11    1    3    3    0    0  0.13889519380E+02  0.13462050917E+03  0.17884541102E+03  0.22427947137E+03  0.00000000000E+00 0. -1.
         22    1    1    2    0    0 -0.17221534672E+02 -0.18637867547E+03 -0.30177921538E+03  0.35511165393E+03  0.00000000000E+00 0.  1.
<mgrwt>
<rscale>  0 0.61958364E+03</rscale>
<asrwt>0</asrwt>
<pdfrwt beam="1">  1        1 0.39251805E-01 0.61958364E+03</pdfrwt>
<pdfrwt beam="2">  1       -1 0.57870009E-01 0.61958364E+03</pdfrwt>
<totfact> 0.33218172E+02</totfact>
</mgrwt>
</event>
<event>
 6    1  0.2236204E-005  0.3218531E+04  0.7818608E-02  0.8183940E-01
          2   -1    0    0  501    0  0.00000000000E+00  0.00000000000E+00  0.27247655648E+04  0.27247655648E+04  0.00000000000E+00 0. -1.
         -2   -1    0    0    0  501 -0.00000000000E+00 -0.00000000000E+00 -0.95044311622E+03  0.95044311622E+03  0.00000000000E+00 0.  1.
         23    2    1    2    0    0  0.88070869700E+03 -0.89322897175E+03 -0.26082611223E+03  0.12845319004E+04  0.92120232867E+02 0.  0.
         13    1    3    3    0    0  0.44001445787E+03 -0.41747268841E+03 -0.16830874434E+03  0.62946326511E+03  0.00000000000E+00 0.  1.
        -13    1    3    3    0    0  0.44069423913E+03 -0.47575628334E+03 -0.92517367894E+02  0.65506863526E+03  0.00000000000E+00 0. -1.
         22    1    1    2    0    0 -0.88070869700E+03  0.89322897175E+03  0.20351485608E+04  0.23906767806E+04  0.00000000000E+00 0. -1.
<mgrwt>
<rscale>  0 0.32185305E+04</rscale>
<asrwt>0</asrwt>
<pdfrwt beam="1">  1        2 0.41919470E+00 0.32185305E+04</pdfrwt>
<pdfrwt beam="2">  1       -2 0.14622202E+00 0.32185305E+04</pdfrwt>
<totfact> 0.69138173E-01</totfact>
</mgrwt>
</event>
<event>
 6    1  0.2236204E-005  0.1412963E+04  0.7818608E-02  0.8944489E-01
          3   -1    0    0  501    0  0.00000000000E+00  0.00000000000E+00  0.37847395976E+03  0.37847395976E+03  0.00000000000E+00 0. -1.
         -3   -1    0    0    0  501 -0.00000000000E+00 -0.00000000000E+00 -0.13187589922E+04  0.13187589922E+04  0.00000000000E+00 0.  1.
         23    2    1    2    0    0 -0.36201868057E+03  0.26888253318E+03  0.17673214147E+03  0.49262400772E+03  0.89937875360E+02 0.  0.
         13    1    3    3    0    0 -0.12359116967E+03  0.66966157845E+02  0.95041475135E+02  0.16968242547E+03  0.00000000000E+00 0. -1.
        -13    1    3    3    0    0 -0.23842751090E+03  0.20191637533E+03  0.81690666336E+02  0.32294158225E+03  0.00000000000E+00 0.  1.
         22    1    1    2    0    0  0.36201868057E+03 -0.26888253318E+03 -0.11170171739E+04  0.12046089442E+04  0.00000000000E+00 0.  1.
<mgrwt>
<rscale>  0 0.14129628E+04</rscale>
<asrwt>0</asrwt>
<pdfrwt beam="1">  1        3 0.58226762E-01 0.14129628E+04</pdfrwt>
<pdfrwt beam="2">  1       -3 0.20288600E+00 0.14129628E+04</pdfrwt>
<totfact> 0.10352942E+00</totfact>
</mgrwt>
</event>
<event>
 6    1  0.2236204E-005  0.4022740E+04  0.7818608E-02  0.7999975E-01
         -1   -1    0    0    0  501 -0.00000000000E+00  0.00000000000E+00  0.14336323401E+04  0.14336323401E+04  0.00000000000E+00 0.  1.
          1   -1    0    0  501    0  0.00000000000E+00 -0.00000000000E+00 -0.28219290256E+04  0.28219290256E+04  0.00000000000E+00 0. -1.
         23    2    1    2    0    0 -0.14856437672E+04  0.46969334796E+03  0.64934380353E+03  0.16904633156E+04  0.90937353296E+02 0.  0.
         11    1    3    3    0    0 -0.67213837499E+03  0.16532121713E+03  0.29248689086E+03  0.75143175424E+03  0.00000000000E+00 0.  1.
        -11    1    3    3    0    0 -0.81350539220E+03  0.30437213083E+03  0.35685691268E+03  0.93903156139E+03  0.00000000000E+00 0. -1.
         22    1    1    2    0    0  0.14856437672E+04 -0.46969334796E+03 -0.20376404891E+04  0.25650980501E+04  0.00000000000E+00 0. -1.
<mgrwt>
<rscale>  0 0.40227397E+04</rscale>
<asrwt>0</asrwt>
<pdfrwt beam="1">  1        1 0.43414292E+00 0.40227397E+04</pdfrwt>
<pdfrwt beam="2">  1       -1 0.22055882E+00 0.40227397E+04</pdfrwt>
<totfact> 0.68498250E-02</totfact>
</mgrwt>
</event>
<event>
 6    1  0.2236204E-005  0.1256550E+04  0.7818608E-02  0.9064750E-01
         -2   -1    0    0    0  501 -0.00000000000E+00  0.00000000000E+00  0.42172556190E+03  0.42172556190E+03  0.00000000000E+00 0.  1.
          2   -1    0    0  501    0  0.00000000000E+00 -0.00000000000E+00 -0.93598595657E+03  0.93598595657E+03  0.00000000000E+00 0. -1.
         23    2    1    2    0    0 -0.57200287912E+03 -0.21926921585E+03 -0.39185347047E+03  0.73301180034E+03  0.92145940606E+02 0.  0.
         13    1    3    3    0    0 -0.45665375891E+03 -0.15113812801E+03 -0.26836976464E+03  0.55081550435E+03  0.00000000000E+00 0.  1.
        -13    1    3    3    0    0 -0.11534912021E+03 -0.68131087846E+02 -0.12348370583E+03  0.18219629598E+03  0.00000000000E+00 0. -1.
         22    1    1    2    0    0  0.57200287912E+03  0.21926921585E+03 -0.12240692420E+03  0.62469971813E+03  0.00000000000E+00 0.  1.
<mgrwt>
<rscale>  0 0.12565496E+04</rscale>
<asrwt>0</asrwt>
<pdfrwt beam="1">  1        2 0.14399784E+00 0.12565496E+04</pdfrwt>
<pdfrwt beam="2">  1       -2 0.64880856E-01 0.12565496E+04</pdfrwt>
<totfact> 0.59777423E+01</totfact>
</mgrwt>
</event>
<event>
 6    1  0.2236204E-005  0.1567762E+04  0.7818608E-02  0.8840601E-01
          2   -1    0    0  501    0  0.00000000000E+00  0.00000000000E+00  0.20555037975E+04  0.20555037975E+04  0.00000000000E+00 0. -1.
         -2   -1    0    0    0  501 -0.00000000000E+00 -0.00000000000E+00 -0.29893876861E+03  0.29893876861E+03  0.00000000000E+00 0.  1.
         23    2    1    2    0    0  0.61770108729E+03  0.17822611627E+03  0.15478184208E+04  0.16785029770E+04  0.91165772457E+02 0.  0.
         13    1    3    3    0    0  0.25443371131E+03  0.98979722405E+02  0.75458189920E+03  0.80245083432E+03  0.00000000000E+00 0.  1.
        -13    1    3    3    0    0  0.36326737598E+03  0.79246393861E+02  0.79323652164E+03  0.87605214266E+03  0.00000000000E+00 0. -1.
         22    1    1    2    0    0 -0.61770108729E+03 -0.17822611627E+03  0.20874660801E+03  0.67593958910E+03  0.00000000000E+00 0.  1.
<mgrwt>
<rscale>  0 0.15677624E+04</rscale>
<asrwt>0</asrwt>
<pdfrwt beam="1">  1        2 0.31623134E+00 0.15677624E+04</pdfrwt>
<pdfrwt beam="2">  1       -2 0.45990581E-01 0.15677624E+04</pdfrwt>
<totfact> 0.26823488E+01</totfact>
</mgrwt>
</event>
<event>
 6    1  0.2236204E-005  0.1847349E+04  0.7818608E-02  0.8681517E-01
          2   -1    0    0  501    0  0.00000000000E+00  0.00000000000E+00  0.64914206845E+03  0.64914206845E+03  0.00000000000E+00 0. -1.
         -2   -1    0    0    0  501 -0.00000000000E+00 -0.00000000000E+00 -0.13143107166E+04  0.13143107166E+04  0.00000000000E+00 0.  1.
         23    2    1    2    0    0  0.15254669784E+03  0.60053142517E+03 -0.10581371173E+04  0.12297411896E+04  0.93277793170E+02 0.  0.
         11    1    3    3    0    0  0.12591662834E+03  0.41293922947E+03 -0.65754065593E+03  0.78659615987E+03  0.00000000000E+00 0.  1.
        -11    1    3    3    0    0  0.26630069505E+02  0.18759219570E+03 -0.40059646139E+03  0.44314502972E+03  0.00000000000E+00 0. -1.
         22    1    1    2    0    0 -0.15254669784E+03 -0.60053142517E+03  0.39296846913E+03  0.73371159550E+03  0.00000000000E+00 0. -1.
<mgrwt>
<rscale>  0 0.18473488E+04</rscale>
<asrwt>0</asrwt>
<pdfrwt beam="1">  1        2 0.99868011E-01 0.18473488E+04</pdfrwt>
<pdfrwt beam="2">  1       -2 0.20220165E+00 0.18473488E+04</pdfrwt>
<totfact> 0.54451715E+00</totfact>
</mgrwt>
</event>
<event>
 6    1  0.2236204E-005  0.3381256E+04  0.7818608E-02  0.8142522E-01
         -1   -1    0    0    0  501 -0.00000000000E+00  0.00000000000E+00  0.86711217617E+03  0.86711217617E+03  0.00000000000E+00 0.  1.
          1   -1    0    0  501    0  0.00000000000E+00 -0.00000000000E+00 -0.32962546814E+04  0.32962546814E+04  0.00000000000E+00 0. -1.
         23    2    1    2    0    0 -0.88772353928E+02  0.16668439034E+04 -0.15359046468E+04  0.22701888414E+04  0.92223438957E+02 0.  0.
         13    1    3    3    0    0 -0.62271238306E+02  0.55000552088E+03 -0.54760343787E+03  0.77862269764E+03  0.00000000000E+00 0. -1.
        -13    1    3    3    0    0 -0.26501115623E+02  0.11168383825E+04 -0.98830120891E+03  0.14915661438E+04  0.00000000000E+00 0.  1.
         22    1    1    2    0    0  0.88772353928E+02 -0.16668439034E+04 -0.89323785847E+03  0.18931780162E+04  0.00000000000E+00 0. -1.
<mgrwt>
<rscale>  0 0.33812557E+04</rscale>
<asrwt>0</asrwt>
<pdfrwt beam="1">  1        1 0.50711611E+00 0.33812557E+04</pdfrwt>
<pdfrwt beam="2">  1       -1 0.13340187E+00 0.33812557E+04</pdfrwt>
<totfact> 0.14050542E-01</totfact>
</mgrwt>
</event>
<event>
 6    1  0.2236204E-005  0.3688619E+04  0.7818608E-02  0.8070489E-01
         -2   -1    0    0    0  501 -0.00000000000E+00  0.00000000000E+00  0.16734567351E+04  0.16734567351E+04  0.00000000000E+00 0.  1.
          2   -1    0    0  501    0  0.00000000000E+00 -0.00000000000E+00 -0.20326060215E+04  0.20326060215E+04  0.00000000000E+00 0. -1.
         23    2    1    2    0    0 -0.10980159069E+04 -0.12990449622E+04 -0.89339650455E+03  0.19232063866E+04  0.86074069237E+02 0.  0.
         11    1    3    3    0    0 -0.99000392696E+03 -0.11476438372E+04 -0.77015412116E+03  0.17000975039E+04  0.00000000000E+00 0.  1.
        -11    1    3    3    0    0 -0.10801197998E+03 -0.15140112501E+03 -0.12324238339E+03  0.22310888269E+03  0.00000000000E+00 0. -1.
         22    1    1    2    0    0  0.10980159069E+04  0.12990449622E+04  0.53424721819E+03  0.17828563700E+04  0.00000000000E+00 0.  1.
<mgrwt>
<rscale>  0 0.36886194E+04</rscale>
<asrwt>0</asrwt>
<pdfrwt beam="1">  1        2 0.31270862E+00 0.36886194E+04</pdfrwt>
<pdfrwt beam="2">  1       -2 0.25745488E+00 0.36886194E+04</pdfrwt>
<totfact> 0.29986179E-01</totfact>
</mgrwt>
</event>
<event>
 6    1  0.2236204E-005  0.2040795E+04  0.7818608E-02  0.8587781E-01
          2   -1    0    0  501    0  0.00000000000E+00  0.00000000000E+00  0.92338501700E+03  0.92338501700E+03  0.00000000000E+00 0. -1.
         -2   -1    0    0    0  501 -0.00000000000E+00 -0.00000000000E+00 -0.11276028116E+04  0.11276028116E+04  0.00000000000E+00 0.  1.
         23    2    1    2    0    0 -0.67480254186E+03 -0.61115859701E+03 -0.56038471167E+03  0.10733743191E+04  0.96063013494E+02 0.  0.
         13    1    3    3    0    0 -0.10845398251E+03 -0.14591144972E+03 -0.12878342680E+03  0.22279494721E+03  0.00000000000E+00 0.  1.
        -13    1    3    3    0    0 -0.56634855935E+03 -0.46524714729E+03 -0.43160128487E+03  0.85057937186E+03  0.00000000000E+00 0. -1.
         22    1    1    2    0    0  0.67480254186E+03  0.61115859701E+03  0.35616691707E+03  0.97761350953E+03  0.00000000000E+00 0. -1.
<mgrwt>
<rscale>  0 0.20407955E+04</rscale>
<asrwt>0</asrwt>
<pdfrwt beam="1">  1        2 0.14205923E+00 0.20407955E+04</pdfrwt>
<pdfrwt beam="2">  1       -2 0.17347736E+00 0.20407955E+04</pdfrwt>
<totfact> 0.52718203E+00</totfact>
</mgrwt>
</event>
<event>
 6    1  0.2236204E-005  0.2755855E+04  0.7818608E-02  0.8317106E-01
          2   -1    0    0  501    0  0.00000000000E+00  0.00000000000E+00  0.13903208889E+04  0.13903208889E+04  0.00000000000E+00 0. -1.
         -2   -1    0    0    0  501 -0.00000000000E+00 -0.00000000000E+00 -0.13656447007E+04  0.13656447007E+04  0.00000000000E+00 0.  1.
         23    2    1    2    0    0 -0.85539655687E+03 -0.57723507580E+03  0.92315938595E+03  0.13876908880E+04  0.92515656106E+02 0.  0.
         11    1    3    3    0    0 -0.54477190915E+03 -0.31409462157E+03  0.54895021264E+03  0.83473241237E+03  0.00000000000E+00 0.  1.
        -11    1    3    3    0    0 -0.31062464772E+03 -0.26314045422E+03  0.37420917331E+03  0.55295847566E+03  0.00000000000E+00 0. -1.
         22    1    1    2    0    0  0.85539655687E+03  0.57723507580E+03 -0.89848319781E+03  0.13682747016E+04  0.00000000000E+00 0.  1.
<mgrwt>
<rscale>  0 0.27558551E+04</rscale>
<asrwt>0</asrwt>
<pdfrwt beam="1">  1        2 0.21389552E+00 0.27558551E+04</pdfrwt>
<pdfrwt beam="2">  1       -2 0.21009918E+00 0.27558551E+04</pdfrwt>
<totfact> 0.14636438E+00</totfact>
</mgrwt>
</event>
<event>
 6    1  0.2236204E-005  0.2012378E+04  0.7818608E-02  0.8600855E-01
          2   -1    0    0  501    0  0.00000000000E+00  0.00000000000E+00  0.27836212611E+04  0.27836212611E+04  0.00000000000E+00 0. -1.
         -2   -1    0    0    0  501 -0.00000000000E+00 -0.00000000000E+00 -0.36370491607E+03  0.36370491607E+03  0.00000000000E+00 0.  1.
         23    2    1    2    0    0 -0.36336133262E+03  0.49573123183E+03 -0.29257621756E+02  0.62220557969E+03  0.92210968510E+02 0.  0.
         11    1    3    3    0    0 -0.13406688716E+03  0.24669441478E+03  0.12927744738E+02  0.28106794748E+03  0.00000000000E+00 0. -1.
        -11    1    3    3    0    0 -0.22929444546E+03  0.24903681705E+03 -0.42185366494E+02  0.34113763221E+03  0.00000000000E+00 0.  1.
         22    1    1    2    0    0  0.36336133262E+03 -0.49573123183E+03  0.24491739668E+04  0.25251205975E+04  0.00000000000E+00 0. -1.
<mgrwt>
<rscale>  0 0.20123784E+04</rscale>
<asrwt>0</asrwt>
<pdfrwt beam="1">  1        2 0.42824941E+00 0.20123784E+04</pdfrwt>
<pdfrwt beam="2">  1       -2 0.55954604E-01 0.20123784E+04</pdfrwt>
<totfact> 0.65950278E+00</totfact>
</mgrwt>
</event>
<event>
 6    1  0.2236204E-005  0.2197662E+04  0.7818608E-02  0.8519402E-01
          1   -1    0    0  501    0  0.00000000000E+00  0.00000000000E+00  0.12524044350E+04  0.12524044350E+04  0.00000000000E+00 0. -1.
         -1   -1    0    0    0  501 -0.00000000000E+00 -0.00000000000E+00 -0.96408937034E+03  0.96408937034E+03  0.00000000000E+00 0.  1.
         23    2    1    2    0    0  0.15424068578E+03 -0.84834579214E+03 -0.53947853045E+03  0.10212017873E+04  0.91297499637E+02 0.  0.
         11    1    3    3    0    0  0.22300045772E+02 -0.34967449047E+02 -0.40056658648E+02  0.57658914630E+02  0.00000000000E+00 0.  1.
        -11    1    3    3    0    0  0.13194064001E+03 -0.81337834310E+03 -0.49942187180E+03  0.96354287270E+03  0.00000000000E+00 0. -1.
         22    1    1    2    0    0 -0.15424068578E+03  0.84834579214E+03  0.82779359507E+03  0.11952920180E+04  0.00000000000E+00 0. -1.
<mgrwt>
<rscale>  0 0.21976622E+04</rscale>
<asrwt>0</asrwt>
<pdfrwt beam="1">  1        1 0.19267761E+00 0.21976622E+04</pdfrwt>
<pdfrwt beam="2">  1       -1 0.14832144E+00 0.21976622E+04</pdfrwt>
<totfact> 0.32101414E+00</totfact>
</mgrwt>
</event>
<event>
 6    1  0.2236204E-005  0.2484005E+04  0.7818608E-02  0.8408706E-01
         -2   -1    0    0    0  501 -0.00000000000E+00  0.00000000000E+00  0.79313809552E+03  0.79313809552E+03  0.00000000000E+00 0.  1.
          2   -1    0    0  501    0  0.00000000000E+00 -0.00000000000E+00 -0.19448950120E+04  0.19448950120E+04  0.00000000000E+00 0. -1.
         23    2    1    2    0    0 -0.96008630514E+03 -0.69043953747E+03 -0.98851581387E+03  0.15442491548E+04  0.95233762539E+02 0.  0.
         13    1    3    3    0    0 -0.55126465448E+03 -0.39842228915E+03 -0.62932177761E+03  0.92664930775E+03  0.00000000000E+00 0. -1.
        -13    1    3    3    0    0 -0.40882165066E+03 -0.29201724831E+03 -0.35919403626E+03  0.61759984702E+03  0.00000000000E+00 0.  1.
         22    1    1    2    0    0  0.96008630514E+03  0.69043953747E+03 -0.16324110260E+03  0.11937839527E+04  0.00000000000E+00 0.  1.
<mgrwt>
<rscale>  0 0.24840051E+04</rscale>
<asrwt>0</asrwt>
<pdfrwt beam="1">  1        2 0.29921462E+00 0.24840051E+04</pdfrwt>
<pdfrwt beam="2">  1       -2 0.12202125E+00 0.24840051E+04</pdfrwt>
<totfact> 0.32613968E+00</totfact>
</mgrwt>
</event>
<event>
 6    1  0.2236204E-005  0.8938989E+03  0.7818608E-02  0.9433240E-01
         -2   -1    0    0    0  501 -0.00000000000E+00  0.00000000000E+00  0.26770673675E+03  0.26770673675E+03  0.00000000000E+00 0.  1.
          2   -1    0    0  501    0  0.00000000000E+00 -0.00000000000E+00 -0.74620393019E+03  0.74620393019E+03  0.00000000000E+00 0. -1.
         23    2    1    2    0    0 -0.35605065069E+03 -0.98862180626E+02  0.33556177106E+02  0.38244851376E+03  0.92709503516E+02 0.  0.
         11    1    3    3    0    0 -0.28565626294E+03 -0.53138966503E+02  0.55220376941E+02  0.29575757023E+03  0.00000000000E+00 0.  1.
        -11    1    3    3    0    0 -0.70394387752E+02 -0.45723214123E+02 -0.21664199835E+02  0.86690943536E+02  0.00000000000E+00 0. -1.
         22    1    1    2    0    0  0.35605065069E+03  0.98862180626E+02 -0.51205337054E+03  0.63146215318E+03  0.00000000000E+00 0. -1.
<mgrwt>
<rscale>  0 0.89389892E+03</rscale>
<asrwt>0</asrwt>
<pdfrwt beam="1">  1        2 0.11480061E+00 0.89389892E+03</pdfrwt>
<pdfrwt beam="2">  1       -2 0.41185651E-01 0.89389892E+03</pdfrwt>
<totfact> 0.21135772E+02</totfact>
</mgrwt>
</event>
<event>
 6    1  0.2236204E-005  0.1495516E+04  0.7818608E-02  0.8887440E-01
          2   -1    0    0  501    0  0.00000000000E+00  0.00000000000E+00  0.64079140547E+03  0.64079140547E+03  0.00000000000E+00 0.  1.
         -2   -1    0    0    0  501 -0.00000000000E+00 -0.00000000000E+00 -0.87258068185E+03  0.87258068185E+03  0.00000000000E+00 0. -1.
         23    2    1    2    0    0  0.26101911884E+03  0.43933059889E+03  0.43211488498E+03  0.67557074393E+03  0.92359085743E+02 0.  0.
         13    1    3    3    0    0  0.20485825356E+03  0.32678694488E+03  0.37316172598E+03  0.53666217039E+03  0.00000000000E+00 0. -1.
        -13    1    3    3    0    0  0.56160865276E+02  0.11254365401E+03  0.58953158994E+02  0.13890857353E+03  0.00000000000E+00 0.  1.
         22    1    1    2    0    0 -0.26101911884E+03 -0.43933059889E+03 -0.66390416136E+03  0.83780134339E+03  0.00000000000E+00 0. -1.
<mgrwt>
<rscale>  0 0.14955162E+04</rscale>
<asrwt>0</asrwt>
<pdfrwt beam="1">  1        2 0.98583293E-01 0.14955162E+04</pdfrwt>
<pdfrwt beam="2">  1       -2 0.13424318E+00 0.14955162E+04</pdfrwt>
<totfact> 0.17694444E+01</totfact>
</mgrwt>
</event>
<event>
 6    1  0.6094511E-005  0.2877123E+04  0.7818608E-02  0.8279717E-01
          2   -1    0    0  501    0  0.00000000000E+00  0.00000000000E+00  0.21844838136E+04  0.21844838136E+04  0.00000000000E+00 0.  1.
         -2   -1    0    0    0  501 -0.00000000000E+00 -0.00000000000E+00 -0.94734438465E+03  0.94734438465E+03  0.00000000000E+00 0. -1.
         23    2    1    2    0    0 -0.10259425011E+04 -0.21534544632E+03  0.16892442679E+04  0.19901932031E+04  0.91603013535E+02 0.  0.
         13    1    3    3    0    0 -0.36169911964E+03 -0.38753442102E+02  0.53986247779E+03  0.65098354615E+03  0.00000000000E+00 0.  1.
        -13    1    3    3    0    0 -0.66424338150E+03 -0.17659200422E+03  0.11493817901E+04  0.13392096569E+04  0.00000000000E+00 0. -1.
         22    1    1    2    0    0  0.10259425011E+04  0.21534544632E+03 -0.45210483891E+03  0.11416349952E+04  0.00000000000E+00 0. -1.
<mgrwt>
<rscale>  0 0.28771225E+04</rscale>
<asrwt>0</asrwt>
<pdfrwt beam="1">  1        2 0.33607443E+00 0.28771225E+04</pdfrwt>
<pdfrwt beam="2">  1       -2 0.14574529E+00 0.28771225E+04</pdfrwt>
<totfact> 0.14727785E+00</totfact>
</mgrwt>
</event>
<event>
 6    1  0.2236204E-005  0.9777987E+03  0.7818608E-02  0.9333236E-01
         -1   -1    0    0    0  501 -0.00000000000E+00  0.00000000000E+00  0.33514933293E+03  0.33514933293E+03  0.00000000000E+00 0.  1.
          1   -1    0    0  501    0  0.00000000000E+00 -0.00000000000E+00 -0.71318232585E+03  0.71318232585E+03  0.00000000000E+00 0. -1.
         23    2    1    2    0    0  0.24708638993E+03  0.26374907061E+03 -0.53705414350E+03  0.65348614131E+03  0.89452375565E+02 0.  0.
         13    1    3    3    0    0  0.20723714557E+03  0.19260123360E+03 -0.46683207227E+03  0.54587054637E+03  0.00000000000E+00 0. -1.
        -13    1    3    3    0    0  0.39849244366E+02  0.71147837007E+02 -0.70222071228E+02  0.10761559494E+03  0.00000000000E+00 0.  1.
         22    1    1    2    0    0 -0.24708638993E+03 -0.26374907061E+03  0.15902115057E+03  0.39484551747E+03  0.00000000000E+00 0.  1.
<mgrwt>
<rscale>  0 0.97779871E+03</rscale>
<asrwt>0</asrwt>
<pdfrwt beam="1">  1        1 0.10972036E+00 0.97779871E+03</pdfrwt>
<pdfrwt beam="2">  1       -1 0.51561436E-01 0.97779871E+03</pdfrwt>
<totfact> 0.10057239E+02</totfact>
</mgrwt>
</event>
<event>
 6    1  0.2236204E-005  0.4441805E+04  0.7818608E-02  0.7920905E-01
          2   -1    0    0  501    0  0.00000000000E+00  0.00000000000E+00  0.40448423006E+04  0.40448423006E+04  0.00000000000E+00 0. -1.
         -2   -1    0    0    0  501 -0.00000000000E+00 -0.00000000000E+00 -0.12194316288E+04  0.12194316288E+04  0.00000000000E+00 0.  1.
         23    2    1    2    0    0 -0.23390847906E+03  0.22075868093E+04  0.14276400678E+04  0.26409334333E+04  0.90667186605E+02 0.  0.
         13    1    3    3    0    0 -0.85492381673E+02  0.10514626441E+04  0.72252994104E+03  0.12786446554E+04  0.00000000000E+00 0.  1.
        -13    1    3    3    0    0 -0.14841609739E+03  0.11561241652E+04  0.70511012677E+03  0.13622887779E+04  0.00000000000E+00 0. -1.
         22    1    1    2    0    0  0.23390847906E+03 -0.22075868093E+04  0.13977706040E+04  0.26233404961E+04  0.00000000000E+00 0.  1.
<mgrwt>
<rscale>  0 0.44418053E+04</rscale>
<asrwt>0</asrwt>
<pdfrwt beam="1">  1        2 0.62228342E+00 0.44418053E+04</pdfrwt>
<pdfrwt beam="2">  1       -2 0.18760487E+00 0.44418053E+04</pdfrwt>
<totfact> 0.38340450E-02</totfact>
</mgrwt>
</event>
<event>
 6    1  0.2236204E-005  0.2067440E+04  0.7818608E-02  0.8575724E-01
          2   -1    0    0  501    0  0.00000000000E+00  0.00000000000E+00  0.17520042881E+04  0.17520042881E+04  0.00000000000E+00 0. -1.
         -2   -1    0    0    0  501 -0.00000000000E+00 -0.00000000000E+00 -0.60991682367E+03  0.60991682367E+03  0.00000000000E+00 0.  1.
         23    2    1    2    0    0  0.89865646722E+03  0.38811852342E+03  0.94443308243E+03  0.13632786888E+04  0.91408434340E+02 0.  0.
         13    1    3    3    0    0  0.39614078651E+03  0.18164982362E+03  0.35926388134E+03  0.56479617350E+03  0.00000000000E+00 0.  1.
        -13    1    3    3    0    0  0.50251568071E+03  0.20646869980E+03  0.58516920108E+03  0.79848251531E+03  0.00000000000E+00 0. -1.
         22    1    1    2    0    0 -0.89865646722E+03 -0.38811852342E+03  0.19765438205E+03  0.99864242301E+03  0.00000000000E+00 0.  1.
<mgrwt>
<rscale>  0 0.20674399E+04</rscale>
<asrwt>0</asrwt>
<pdfrwt beam="1">  1        2 0.26953912E+00 0.20674399E+04</pdfrwt>
<pdfrwt beam="2">  1       -2 0.93833358E-01 0.20674399E+04</pdfrwt>
<totfact> 0.81326280E+00</totfact>
</mgrwt>
</event>
<event>
 6    1  0.2236204E-005  0.4685574E+04  0.7818608E-02  0.7878930E-01
          2   -1    0    0  501    0  0.00000000000E+00  0.00000000000E+00  0.47024272252E+04  0.47024272252E+04  0.00000000000E+00 0. -1.
         -2   -1    0    0    0  501 -0.00000000000E+00 -0.00000000000E+00 -0.11671950977E+04  0.11671950977E+04  0.00000000000E+00 0.  1.
         23    2    1    2    0    0 -0.99892183722E+03 -0.92513346960E+03  0.41552541256E+04  0.43735795255E+04  0.91346832383E+02 0.  0.
         13    1    3    3    0    0 -0.35322274125E+03 -0.26890068520E+03  0.13445811163E+04  0.14159704311E+04  0.00000000000E+00 0.  1.
        -13    1    3    3    0    0 -0.64569909598E+03 -0.65623278440E+03  0.28106730093E+04  0.29576090944E+04  0.00000000000E+00 0. -1.
         22    1    1    2    0    0  0.99892183722E+03  0.92513346960E+03 -0.62002199820E+03  0.14960427974E+04  0.00000000000E+00 0.  1.
<mgrwt>
<rscale>  0 0.46855736E+04</rscale>
<asrwt>0</asrwt>
<pdfrwt beam="1">  1        2 0.72345033E+00 0.46855736E+04</pdfrwt>
<pdfrwt beam="2">  1       -2 0.17956848E+00 0.46855736E+04</pdfrwt>
<totfact> 0.10275761E-02</totfact>
</mgrwt>
</event>
<event>
 6    1  0.2417139E-005  0.4610147E+04  0.7818608E-02  0.7891632E-01
          1   -1    0    0  501    0  0.00000000000E+00  0.00000000000E+00  0.24174393112E+04  0.24174393112E+04  0.00000000000E+00 0. -1.
         -1   -1    0    0    0  501 -0.00000000000E+00 -0.00000000000E+00 -0.21979301864E+04  0.21979301864E+04  0.00000000000E+00 0.  1.
         23    2    1    2    0    0 -0.14464711415E+04 -0.62646623901E+03  0.17923260049E+04  0.23886024128E+04  0.90830978777E+02 0.  0.
         13    1    3    3    0    0 -0.62566842904E+03 -0.28774170562E+03  0.84727680467E+03  0.10918490079E+04  0.00000000000E+00 0.  1.
        -13    1    3    3    0    0 -0.82080271250E+03 -0.33872453338E+03  0.94504920020E+03  0.12967534049E+04  0.00000000000E+00 0. -1.
         22    1    1    2    0    0  0.14464711415E+04  0.62646623901E+03 -0.15728168801E+04  0.22267670849E+04  0.00000000000E+00 0.  1.
<mgrwt>
<rscale>  0 0.46101466E+04</rscale>
<asrwt>0</asrwt>
<pdfrwt beam="1">  1        1 0.37191374E+00 0.46101466E+04</pdfrwt>
<pdfrwt beam="2">  1       -1 0.33814311E+00 0.46101466E+04</pdfrwt>
<totfact> 0.21419277E-02</totfact>
</mgrwt>
</event>
<event>
 6    1  0.2236204E-005  0.1928760E+04  0.7818608E-02  0.8640672E-01
         -2   -1    0    0    0  501 -0.00000000000E+00  0.00000000000E+00  0.50740614096E+03  0.50740614096E+03  0.00000000000E+00 0.  1.
          2   -1    0    0  501    0  0.00000000000E+00 -0.00000000000E+00 -0.18329081943E+04  0.18329081943E+04  0.00000000000E+00 0. -1.
         23    2    1    2    0    0  0.29543939372E+02  0.34081244447E+03  0.42670673607E+03  0.55502399239E+03  0.94588724798E+02 0.  0.
         11    1    3    3    0    0 -0.16551576058E+02  0.15984990410E+03  0.25455686558E+03  0.30104010418E+03  0.00000000000E+00 0. -1.
        -11    1    3    3    0    0  0.46095515430E+02  0.18096254036E+03  0.17214987050E+03  0.25398388821E+03  0.00000000000E+00 0.  1.
         22    1    1    2    0    0 -0.29543939372E+02 -0.34081244447E+03 -0.17522087894E+04  0.17852903429E+04  0.00000000000E+00 0. -1.
<mgrwt>
<rscale>  0 0.19287601E+04</rscale>
<asrwt>0</asrwt>
<pdfrwt beam="1">  1        2 0.28198587E+00 0.19287601E+04</pdfrwt>
<pdfrwt beam="2">  1       -2 0.78062484E-01 0.19287601E+04</pdfrwt>
<totfact> 0.11289794E+01</totfact>
</mgrwt>
</event>
<event>
 6    1  0.2236204E-005  0.1917487E+04  0.7818608E-02  0.8646201E-01
         -2   -1    0    0    0  501 -0.00000000000E+00  0.00000000000E+00  0.39473309217E+03  0.39473309217E+03  0.00000000000E+00 0.  1.
          2   -1    0    0  501    0  0.00000000000E+00 -0.00000000000E+00 -0.23286333309E+04  0.23286333309E+04  0.00000000000E+00 0. -1.
         23    2    1    2    0    0 -0.74435402509E+03  0.32774628793E+03 -0.16841779932E+04  0.18725775281E+04  0.92793006056E+02 0.  0.
         11    1    3    3    0    0 -0.42059245154E+03  0.23199548438E+03 -0.95250068655E+03  0.10667602697E+04  0.00000000000E+00 0.  1.
        -11    1    3    3    0    0 -0.32376157356E+03  0.95750803550E+02 -0.73167730663E+03  0.80581725840E+03  0.00000000000E+00 0. -1.
         22    1    1    2    0    0  0.74435402509E+03 -0.32774628793E+03 -0.24972224553E+03  0.85078889499E+03  0.00000000000E+00 0.  1.
<mgrwt>
<rscale>  0 0.19174865E+04</rscale>
<asrwt>0</asrwt>
<pdfrwt beam="1">  1        2 0.35825128E+00 0.19174865E+04</pdfrwt>
<pdfrwt beam="2">  1       -2 0.60728168E-01 0.19174865E+04</pdfrwt>
<totfact> 0.10314010E+01</totfact>
</mgrwt>
</event>
<event>
 6    1  0.2236204E-005  0.3237045E+04  0.7818608E-02  0.8179102E-01
         -2   -1    0    0    0  501 -0.00000000000E+00  0.00000000000E+00  0.10651829105E+04  0.10651829105E+04  0.00000000000E+00 0.  1.
          2   -1    0    0  501    0  0.00000000000E+00 -0.00000000000E+00 -0.24593097694E+04  0.24593097694E+04  0.00000000000E+00 0. -1.
         23    2    1    2    0    0 -0.16047044934E+04  0.19874769331E+03 -0.72073924906E+03  0.17729139549E+04  0.95821029392E+02 0.  0.
         11    1    3    3    0    0 -0.16008453783E+03  0.48771198664E+02 -0.69511819997E+02  0.18121142952E+03  0.00000000000E+00 0.  1.
        -11    1    3    3    0    0 -0.14446199556E+04  0.14997649465E+03 -0.65122742907E+03  0.15917025254E+04  0.00000000000E+00 0. -1.
         22    1    1    2    0    0  0.16047044934E+04 -0.19874769331E+03 -0.67338760987E+03  0.17515787250E+04  0.00000000000E+00 0. -1.
<mgrwt>
<rscale>  0 0.32370448E+04</rscale>
<asrwt>0</asrwt>
<pdfrwt beam="1">  1        2 0.37835535E+00 0.32370448E+04</pdfrwt>
<pdfrwt beam="2">  1       -2 0.16387429E+00 0.32370448E+04</pdfrwt>
<totfact> 0.72775724E-01</totfact>
</mgrwt>
</event>
<event>
 6    1  0.2236204E-005  0.2177868E+04  0.7818608E-02  0.8527697E-01
         -1   -1    0    0    0  501 -0.00000000000E+00  0.00000000000E+00  0.48006645395E+03  0.48006645395E+03  0.00000000000E+00 0.  1.
          1   -1    0    0  501    0  0.00000000000E+00 -0.00000000000E+00 -0.24700282394E+04  0.24700282394E+04  0.00000000000E+00 0. -1.
         23    2    1    2    0    0  0.85190820291E+03 -0.59381430608E+03 -0.56162904186E+03  0.11841678991E+04  0.91996827668E+02 0.  0.
         11    1    3    3    0    0  0.35513338901E+03 -0.30106321832E+03 -0.23637269125E+03  0.52214062721E+03  0.00000000000E+00 0.  1.
        -11    1    3    3    0    0  0.49677481390E+03 -0.29275108776E+03 -0.32525635061E+03  0.66202727188E+03  0.00000000000E+00 0. -1.
         22    1    1    2    0    0 -0.85190820291E+03  0.59381430608E+03 -0.14283327436E+04  0.17659267943E+04  0.00000000000E+00 0.  1.
<mgrwt>
<rscale>  0 0.21778684E+04</rscale>
<asrwt>0</asrwt>
<pdfrwt beam="1">  1        1 0.38000435E+00 0.21778684E+04</pdfrwt>
<pdfrwt beam="2">  1       -1 0.73856376E-01 0.21778684E+04</pdfrwt>
<totfact> 0.23969463E+00</totfact>
</mgrwt>
</event>
<event>
 6    1  0.2236204E-005  0.2067458E+04  0.7818608E-02  0.8575716E-01
         -2   -1    0    0    0  501 -0.00000000000E+00  0.00000000000E+00  0.35010741202E+03  0.35010741202E+03  0.00000000000E+00 0.  1.
          2   -1    0    0  501    0  0.00000000000E+00 -0.00000000000E+00 -0.30521924433E+04  0.30521924433E+04  0.00000000000E+00 0. -1.
         23    2    1    2    0    0  0.97792326953E+03 -0.23819613488E+03 -0.17269643427E+04  0.20008963884E+04  0.90051076992E+02 0.  0.
         13    1    3    3    0    0  0.71633886142E+03 -0.13295586426E+03 -0.12438938944E+04  0.14415584090E+04  0.00000000000E+00 0. -1.
        -13    1    3    3    0    0  0.26158440811E+03 -0.10524027061E+03 -0.48307044831E+03  0.55933797936E+03  0.00000000000E+00 0.  1.
         22    1    1    2    0    0 -0.97792326953E+03  0.23819613488E+03 -0.97512068861E+03  0.14014034669E+04  0.00000000000E+00 0.  1.
<mgrwt>
<rscale>  0 0.20674576E+04</rscale>
<asrwt>0</asrwt>
<pdfrwt beam="1">  1        2 0.46956807E+00 0.20674576E+04</pdfrwt>
<pdfrwt beam="2">  1       -2 0.53862679E-01 0.20674576E+04</pdfrwt>
<totfact> 0.48532396E+00</totfact>
</mgrwt>
</event>
<event>
 6    1  0.2236204E-005  0.2106931E+04  0.7818608E-02  0.8558196E-01
          2   -1    0    0  501    0  0.00000000000E+00  0.00000000000E+00  0.83923532125E+03  0.83923532125E+03  0.00000000000E+00 0. -1.
         -2   -1    0    0    0  501 -0.00000000000E+00 -0.00000000000E+00 -0.13223819675E+04  0.13223819675E+04  0.00000000000E+00 0.  1.
         23    2    1    2    0    0  0.49540611727E+03  0.40311090929E+03 -0.10991796439E+04  0.12742491124E+04  0.87116500310E+02 0.  0.
         11    1    3    3    0    0  0.43040140867E+03  0.32826380473E+03 -0.87147238575E+03  0.10258979565E+04  0.00000000000E+00 0. -1.
        -11    1    3    3    0    0  0.65004708599E+02  0.74847104565E+02 -0.22770725813E+03  0.24835115584E+03  0.00000000000E+00 0.  1.
         22    1    1    2    0    0 -0.49540611727E+03 -0.40311090929E+03  0.61603299766E+03  0.88736817636E+03  0.00000000000E+00 0. -1.
<mgrwt>
<rscale>  0 0.21069311E+04</rscale>
<asrwt>0</asrwt>
<pdfrwt beam="1">  1        2 0.12911313E+00 0.21069311E+04</pdfrwt>
<pdfrwt beam="2">  1       -2 0.20344338E+00 0.21069311E+04</pdfrwt>
<totfact> 0.37543314E+00</totfact>
</mgrwt>
</event>
<event>
 6    1  0.2236204E-005  0.4846004E+04  0.7818608E-02  0.7852712E-01
         -2   -1    0    0    0  501 -0.00000000000E+00  0.00000000000E+00  0.16581759889E+04  0.16581759889E+04  0.00000000000E+00 0.  1.
          2   -1    0    0  501    0  0.00000000000E+00 -0.00000000000E+00 -0.35406000882E+04  0.35406000882E+04  0.00000000000E+00 0. -1.
         23    2    1    2    0    0 -0.44147724384E+03 -0.20165426817E+04 -0.23008610498E+04  0.30924911901E+04  0.90518761687E+02 0.  0.
         11    1    3    3    0    0 -0.31248941605E+03 -0.12461256357E+04 -0.13999132270E+04  0.19000620459E+04  0.00000000000E+00 0.  1.
        -11    1    3    3    0    0 -0.12898782779E+03 -0.77041704601E+03 -0.90094782280E+03  0.11924291442E+04  0.00000000000E+00 0. -1.
         22    1    1    2    0    0  0.44147724384E+03  0.20165426817E+04  0.41843695055E+03  0.21062848870E+04  0.00000000000E+00 0.  1.
<mgrwt>
<rscale>  0 0.48460037E+04</rscale>
<asrwt>0</asrwt>
<pdfrwt beam="1">  1        2 0.54470770E+00 0.48460037E+04</pdfrwt>
<pdfrwt beam="2">  1       -2 0.25510400E+00 0.48460037E+04</pdfrwt>
<totfact> 0.33465130E-02</totfact>
</mgrwt>
</event>
<event>
 6    1  0.2236204E-005  0.1665402E+04  0.7818608E-02  0.8781347E-01
          2   -1    0    0  501    0  0.00000000000E+00  0.00000000000E+00  0.11954548721E+04  0.11954548721E+04  0.00000000000E+00 0. -1.
         -2   -1    0    0    0  501 -0.00000000000E+00 -0.00000000000E+00 -0.58002262197E+03  0.58002262197E+03  0.00000000000E+00 0.  1.
         23    2    1    2    0    0  0.79950146725E+03  0.21582327135E+03  0.24608304005E+03  0.86872442979E+03  0.91339978808E+02 0.  0.
         13    1    3    3    0    0  0.65437734554E+03  0.21079025774E+03  0.19236159755E+03  0.71389440909E+03  0.00000000000E+00 0. -1.
        -13    1    3    3    0    0  0.14512412170E+03  0.50330136155E+01  0.53721442497E+02  0.15483002070E+03  0.00000000000E+00 0.  1.
         22    1    1    2    0    0 -0.79950146725E+03 -0.21582327135E+03  0.36934921009E+03  0.90675306428E+03  0.00000000000E+00 0. -1.
<mgrwt>
<rscale>  0 0.16654019E+04</rscale>
<asrwt>0</asrwt>
<pdfrwt beam="1">  1        2 0.18391613E+00 0.16654019E+04</pdfrwt>
<pdfrwt beam="2">  1       -2 0.89234250E-01 0.16654019E+04</pdfrwt>
<totfact> 0.19604310E+01</totfact>
</mgrwt>
</event>
<event>
 6    1  0.2236204E-005  0.1134194E+04  0.7818608E-02  0.9172491E-01
         -2   -1    0    0    0  501 -0.00000000000E+00  0.00000000000E+00  0.18555355681E+03  0.18555355681E+03  0.00000000000E+00 0.  1.
          2   -1    0    0  501    0  0.00000000000E+00 -0.00000000000E+00 -0.17331859139E+04  0.17331859139E+04  0.00000000000E+00 0. -1.
         23    2    1    2    0    0 -0.11547802228E+02 -0.52376139729E+03 -0.42708154740E+03  0.68177000054E+03  0.89175851423E+02 0.  0.
         13    1    3    3    0    0 -0.33918492450E+02 -0.15485403067E+03 -0.94376219273E+02  0.18449147869E+03  0.00000000000E+00 0. -1.
        -13    1    3    3    0    0  0.22370690223E+02 -0.36890736662E+03 -0.33270532813E+03  0.49727852185E+03  0.00000000000E+00 0.  1.
         22    1    1    2    0    0  0.11547802228E+02  0.52376139729E+03 -0.11205508097E+04  0.12369694701E+04  0.00000000000E+00 0. -1.
<mgrwt>
<rscale>  0 0.11341937E+04</rscale>
<asrwt>0</asrwt>
<pdfrwt beam="1">  1        2 0.26664397E+00 0.11341937E+04</pdfrwt>
<pdfrwt beam="2">  1       -2 0.28546702E-01 0.11341937E+04</pdfrwt>
<totfact> 0.10474679E+02</totfact>
</mgrwt>
</event>
<event>
 6    1  0.2236204E-005  0.2861960E+04  0.7818608E-02  0.8284286E-01
         -2   -1    0    0    0  501 -0.00000000000E+00  0.00000000000E+00  0.16469248268E+04  0.16469248268E+04  0.00000000000E+00 0.  1.
          2   -1    0    0  501    0  0.00000000000E+00 -0.00000000000E+00 -0.12433494531E+04  0.12433494531E+04  0.00000000000E+00 0. -1.
         23    2    1    2    0    0 -0.69111387967E+03  0.40323934388E+03 -0.99435657521E+03  0.12795433599E+04  0.90806651782E+02 0.  0.
         11    1    3    3    0    0 -0.58354330018E+02  0.29777386166E+02 -0.12625458347E+03  0.14223972865E+03  0.00000000000E+00 0.  1.
        -11    1    3    3    0    0 -0.63275954966E+03  0.37346195771E+03 -0.86810199174E+03  0.11373036312E+04  0.00000000000E+00 0. -1.
         22    1    1    2    0    0  0.69111387967E+03 -0.40323934388E+03  0.13979319489E+04  0.16107309201E+04  0.00000000000E+00 0.  1.
<mgrwt>
<rscale>  0 0.28619595E+04</rscale>
<asrwt>0</asrwt>
<pdfrwt beam="1">  1        2 0.19128453E+00 0.28619595E+04</pdfrwt>
<pdfrwt beam="2">  1       -2 0.25337305E+00 0.28619595E+04</pdfrwt>
<totfact> 0.94668473E-01</totfact>
</mgrwt>
</event>
<event>
 6    1  0.2236204E-005  0.1374396E+04  0.7818608E-02  0.8972563E-01
          2   -1    0    0  501    0  0.00000000000E+00  0.00000000000E+00  0.11975327818E+04  0.11975327818E+04  0.00000000000E+00 0. -1.
         -2   -1    0    0    0  501 -0.00000000000E+00 -0.00000000000E+00 -0.39434507688E+03  0.39434507688E+03  0.00000000000E+00 0.  1.
         23    2    1    2    0    0  0.25266256863E+03  0.62523015406E+03  0.26920153504E+03  0.73170790529E+03  0.90420534509E+02 0.  0.
         13    1    3    3    0    0  0.91141975526E+02  0.21823684809E+03  0.14146482822E+03  0.27558388776E+03  0.00000000000E+00 0.  1.
        -13    1    3    3    0    0  0.16152059310E+03  0.40699330597E+03  0.12773670682E+03  0.45612401753E+03  0.00000000000E+00 0. -1.
         22    1    1    2    0    0 -0.25266256863E+03 -0.62523015406E+03  0.53398616992E+03  0.86016995343E+03  0.00000000000E+00 0.  1.
<mgrwt>
<rscale>  0 0.13743961E+04</rscale>
<asrwt>0</asrwt>
<pdfrwt beam="1">  1        2 0.18423581E+00 0.13743961E+04</pdfrwt>
<pdfrwt beam="2">  1       -2 0.60668474E-01 0.13743961E+04</pdfrwt>
<totfact> 0.46882634E+01</totfact>
</mgrwt>
</event>
<event>
 6    1  0.2236204E-005  0.1498215E+04  0.7818608E-02  0.8885641E-01
          2   -1    0    0  501    0  0.00000000000E+00  0.00000000000E+00  0.86817522212E+03  0.86817522212E+03  0.00000000000E+00 0. -1.
         -2   -1    0    0    0  501 -0.00000000000E+00 -0.00000000000E+00 -0.64636974613E+03  0.64636974613E+03  0.00000000000E+00 0.  1.
         23    2    1    2    0    0  0.13865689321E+03  0.90934831665E+02 -0.62416147520E+03  0.65248060861E+03  0.93051167918E+02 0.  0.
         11    1    3    3    0    0  0.10986886338E+03  0.27029679229E+02 -0.29532084593E+03  0.31625333633E+03  0.00000000000E+00 0. -1.
        -11    1    3    3    0    0  0.28788029829E+02  0.63905152436E+02 -0.32884062927E+03  0.33622727228E+03  0.00000000000E+00 0.  1.
         22    1    1    2    0    0 -0.13865689321E+03 -0.90934831665E+02  0.84596695119E+03  0.86206435964E+03  0.00000000000E+00 0. -1.
<mgrwt>
<rscale>  0 0.14982152E+04</rscale>
<asrwt>0</asrwt>
<pdfrwt beam="1">  1        2 0.13356542E+00 0.14982152E+04</pdfrwt>
<pdfrwt beam="2">  1       -2 0.99441500E-01 0.14982152E+04</pdfrwt>
<totfact> 0.24941515E+01</totfact>
</mgrwt>
</event>
<event>
 6    1  0.2236204E-005  0.7752041E+03  0.7818608E-02  0.9596618E-01
          2   -1    0    0  501    0  0.00000000000E+00  0.00000000000E+00  0.15035090906E+04  0.15035090906E+04  0.00000000000E+00 0. -1.
         -2   -1    0    0    0  501 -0.00000000000E+00 -0.00000000000E+00 -0.99923136295E+02  0.99923136295E+02  0.00000000000E+00 0.  1.
         23    2    1    2    0    0  0.16939533450E+03 -0.14444987790E+03  0.13540892883E+04  0.13753741937E+04  0.92389531256E+02 0.  0.
         13    1    3    3    0    0  0.17722923968E+03 -0.13120117632E+03  0.11668091528E+04  0.11874626525E+04  0.00000000000E+00 0. -1.
        -13    1    3    3    0    0 -0.78339051840E+01 -0.13248701584E+02  0.18728013551E+03  0.18791154122E+03  0.00000000000E+00 0.  1.
         22    1    1    2    0    0 -0.16939533450E+03  0.14444987790E+03  0.49496666071E+02  0.22805803324E+03  0.00000000000E+00 0.  1.
<mgrwt>
<rscale>  0 0.77520409E+03</rscale>
<asrwt>0</asrwt>
<pdfrwt beam="1">  1        2 0.23130908E+00 0.77520409E+03</pdfrwt>
<pdfrwt beam="2">  1       -2 0.15372791E-01 0.77520409E+03</pdfrwt>
<totfact> 0.42938848E+02</totfact>
</mgrwt>
</event>
<event>
 6    1  0.3237915E-005  0.3163124E+04  0.7818608E-02  0.8198624E-01
          1   -1    0    0  501    0  0.00000000000E+00  0.00000000000E+00  0.15092358068E+04  0.15092358068E+04  0.00000000000E+00 0. -1.
         -1   -1    0    0    0  501 -0.00000000000E+00 -0.00000000000E+00 -0.16573546703E+04  0.16573546703E+04  0.00000000000E+00 0.  1.
         23    2    1    2    0    0  0.13866644072E+04  0.71158017017E+03 -0.33503870078E+03  0.15968377761E+04  0.91953441155E+02 0.  0.
         13    1    3    3    0    0  0.73085403023E+03  0.34331656109E+03 -0.21053001877E+03  0.83446795231E+03  0.00000000000E+00 0. -1.
        -13    1    3    3    0    0  0.65581037693E+03  0.36826360908E+03 -0.12450868201E+03  0.76236982375E+03  0.00000000000E+00 0.  1.
         22    1    1    2    0    0 -0.13866644072E+04 -0.71158017017E+03  0.18691983730E+03  0.15697527010E+04  0.00000000000E+00 0. -1.
<mgrwt>
<rscale>  0 0.31631244E+04</rscale>
<asrwt>0</asrwt>
<pdfrwt beam="1">  1        1 0.23219013E+00 0.31631244E+04</pdfrwt>
<pdfrwt beam="2">  1       -1 0.25497764E+00 0.31631244E+04</pdfrwt>
<totfact> 0.34998408E-01</totfact>
</mgrwt>
</event>
<event>
 6    1  0.2236204E-005  0.1693104E+04  0.7818608E-02  0.8765307E-01
         -3   -1    0    0    0  501 -0.00000000000E+00  0.00000000000E+00  0.12638027821E+04  0.12638027821E+04  0.00000000000E+00 0.  1.
          3   -1    0    0  501    0  0.00000000000E+00 -0.00000000000E+00 -0.56705882536E+03  0.56705882536E+03  0.00000000000E+00 0. -1.
         23    2    1    2    0    0 -0.44090934594E+03 -0.45307260841E+03 -0.25554593309E+03  0.68782535515E+03  0.90134096917E+02 0.  0.
         11    1    3    3    0    0 -0.16953228426E+03 -0.13203383705E+03 -0.53612937250E+02  0.22146890656E+03  0.00000000000E+00 0. -1.
        -11    1    3    3    0    0 -0.27137706168E+03 -0.32103877137E+03 -0.20193299584E+03  0.46635644859E+03  0.00000000000E+00 0.  1.
         22    1    1    2    0    0  0.44090934594E+03  0.45307260841E+03  0.95228988985E+03  0.11430362523E+04  0.00000000000E+00 0.  1.
<mgrwt>
<rscale>  0 0.16931043E+04</rscale>
<asrwt>0</asrwt>
<pdfrwt beam="1">  1        3 0.87239819E-01 0.16931043E+04</pdfrwt>
<pdfrwt beam="2">  1       -3 0.19443120E+00 0.16931043E+04</pdfrwt>
<totfact> 0.47422380E-01</totfact>
</mgrwt>
</event>
<event>
 6    1  0.2236204E-005  0.8244473E+04  0.7818608E-02  0.7461147E-01
         -2   -1    0    0    0  501 -0.00000000000E+00  0.00000000000E+00  0.36475744710E+04  0.36475744710E+04  0.00000000000E+00 0.  1.
          2   -1    0    0  501    0  0.00000000000E+00 -0.00000000000E+00 -0.46586670503E+04  0.46586670503E+04  0.00000000000E+00 0. -1.
         23    2    1    2    0    0 -0.19010250965E+04 -0.35452698701E+04 -0.14099998623E+04  0.42637222708E+04  0.91613979647E+02 0.  0.
         11    1    3    3    0    0 -0.62613809531E+03 -0.11264410398E+04 -0.41148447335E+03  0.13528628173E+04  0.00000000000E+00 0. -1.
        -11    1    3    3    0    0 -0.12748870012E+04 -0.24188288303E+04 -0.99851538898E+03  0.29108594535E+04  0.00000000000E+00 0.  1.
         22    1    1    2    0    0  0.19010250965E+04  0.35452698701E+04  0.39890728302E+03  0.40425192504E+04  0.00000000000E+00 0.  1.
<mgrwt>
<rscale>  0 0.82444733E+04</rscale>
<asrwt>0</asrwt>
<pdfrwt beam="1">  1        2 0.71671800E+00 0.82444733E+04</pdfrwt>
<pdfrwt beam="2">  1       -2 0.56116531E+00 0.82444733E+04</pdfrwt>
<totfact> 0.36794058E-05</totfact>
</mgrwt>
</event>
<event>
 6    1  0.2236204E-005  0.3799509E+04  0.7818608E-02  0.8046260E-01
          2   -1    0    0  501    0  0.00000000000E+00  0.00000000000E+00  0.23292820848E+04  0.23292820848E+04  0.00000000000E+00 0. -1.
         -2   -1    0    0    0  501 -0.00000000000E+00 -0.00000000000E+00 -0.15494330878E+04  0.15494330878E+04  0.00000000000E+00 0.  1.
         23    2    1    2    0    0 -0.70755994919E+03 -0.80128054865E+03 -0.12118449034E+04  0.16182868520E+04  0.87135905911E+02 0.  0.
         13    1    3    3    0    0 -0.59359267974E+03 -0.71188733484E+03 -0.10684557252E+04  0.14144728642E+04  0.00000000000E+00 0.  1.
        -13    1    3    3    0    0 -0.11396726945E+03 -0.89393213815E+02 -0.14338917820E+03  0.20381398777E+03  0.00000000000E+00 0. -1.
         22    1    1    2    0    0  0.70755994919E+03  0.80128054865E+03  0.19916939004E+04  0.22604283205E+04  0.00000000000E+00 0. -1.
<mgrwt>
<rscale>  0 0.37995088E+04</rscale>
<asrwt>0</asrwt>
<pdfrwt beam="1">  1        2 0.35835109E+00 0.37995088E+04</pdfrwt>
<pdfrwt beam="2">  1       -2 0.23837432E+00 0.37995088E+04</pdfrwt>
<totfact> 0.26525287E-01</totfact>
</mgrwt>
</event>
<event>
 6    1  0.2236204E-005  0.1926923E+04  0.7818608E-02  0.8641570E-01
          2   -1    0    0  501    0  0.00000000000E+00  0.00000000000E+00  0.92966799810E+03  0.92966799810E+03  0.00000000000E+00 0.  1.
         -2   -1    0    0    0  501 -0.00000000000E+00 -0.00000000000E+00 -0.99848318215E+03  0.99848318215E+03  0.00000000000E+00 0. -1.
         23    2    1    2    0    0  0.34726050455E+03 -0.43425685318E+03 -0.81904040731E+03  0.99433815927E+03  0.93339775141E+02 0.  0.
         13    1    3    3    0    0  0.11828937462E+03 -0.16714778270E+03 -0.38066120634E+03  0.43224265340E+03  0.00000000000E+00 0. -1.
        -13    1    3    3    0    0  0.22897112992E+03 -0.26710907048E+03 -0.43837920097E+03  0.56209550587E+03  0.00000000000E+00 0.  1.
         22    1    1    2    0    0 -0.34726050455E+03  0.43425685318E+03  0.75022522325E+03  0.93381302098E+03  0.00000000000E+00 0.  1.
<mgrwt>
<rscale>  0 0.19269228E+04</rscale>
<asrwt>0</asrwt>
<pdfrwt beam="1">  1        2 0.14302585E+00 0.19269228E+04</pdfrwt>
<pdfrwt beam="2">  1       -2 0.15361280E+00 0.19269228E+04</pdfrwt>
<totfact> 0.73585172E+00</totfact>
</mgrwt>
</event>
<event>
 6    1  0.2236204E-005  0.3744760E+04  0.7818608E-02  0.8058114E-01
         -2   -1    0    0    0  501 -0.00000000000E+00  0.00000000000E+00  0.18725726644E+04  0.18725726644E+04  0.00000000000E+00 0.  1.
          2   -1    0    0  501    0  0.00000000000E+00 -0.00000000000E+00 -0.18721876624E+04  0.18721876624E+04  0.00000000000E+00 0. -1.
         23    2    1    2    0    0 -0.13276464215E+04 -0.45996894341E+03 -0.12356466621E+04  0.18733996657E+04  0.92667060623E+02 0.  0.
         11    1    3    3    0    0 -0.85588805934E+03 -0.32549539555E+03 -0.85022466944E+03  0.12495493632E+04  0.00000000000E+00 0. -1.
        -11    1    3    3    0    0 -0.47175836220E+03 -0.13447354786E+03 -0.38542199269E+03  0.62385030242E+03  0.00000000000E+00 0.  1.
         22    1    1    2    0    0  0.13276464215E+04  0.45996894341E+03  0.12360316641E+04  0.18713606612E+04  0.00000000000E+00 0.  1.
<mgrwt>
<rscale>  0 0.37447603E+04</rscale>
<asrwt>0</asrwt>
<pdfrwt beam="1">  1        2 0.28802887E+00 0.37447603E+04</pdfrwt>
<pdfrwt beam="2">  1       -2 0.28808810E+00 0.37447603E+04</pdfrwt>
<totfact> 0.23821102E-01</totfact>
</mgrwt>
</event>
<event>
 6    1  0.2236204E-005  0.2164097E+04  0.7818608E-02  0.8533522E-01
          2   -1    0    0  501    0  0.00000000000E+00  0.00000000000E+00  0.15990522404E+04  0.15990522404E+04  0.00000000000E+00 0. -1.
         -2   -1    0    0    0  501 -0.00000000000E+00 -0.00000000000E+00 -0.73220195427E+03  0.73220195427E+03  0.00000000000E+00 0.  1.
         23    2    1    2    0    0 -0.18324640441E+03  0.65422187248E+02  0.15787254928E+04  0.15932666492E+04  0.90912741963E+02 0.  0.
         13    1    3    3    0    0 -0.85977684038E+02  0.49968242108E+02  0.48342671175E+03  0.49354875443E+03  0.00000000000E+00 0.  1.
        -13    1    3    3    0    0 -0.97268720374E+02  0.15453945139E+02  0.10952987810E+04  0.10997178948E+04  0.00000000000E+00 0. -1.
         22    1    1    2    0    0  0.18324640441E+03 -0.65422187248E+02 -0.71187520668E+03  0.73798754542E+03  0.00000000000E+00 0.  1.
<mgrwt>
<rscale>  0 0.21640972E+04</rscale>
<asrwt>0</asrwt>
<pdfrwt beam="1">  1        2 0.24600804E+00 0.21640972E+04</pdfrwt>
<pdfrwt beam="2">  1       -2 0.11264646E+00 0.21640972E+04</pdfrwt>
<totfact> 0.63485542E+00</totfact>
</mgrwt>
</event>
<event>
 6    1  0.2236204E-005  0.1533852E+04  0.7818608E-02  0.8862248E-01
          2   -1    0    0  501    0  0.00000000000E+00  0.00000000000E+00  0.99244283041E+03  0.99244283041E+03  0.00000000000E+00 0. -1.
         -2   -1    0    0    0  501 -0.00000000000E+00 -0.00000000000E+00 -0.59265458563E+03  0.59265458563E+03  0.00000000000E+00 0.  1.
         23    2    1    2    0    0 -0.57482536952E+03  0.30604221972E+03 -0.21270569218E+03  0.69109804887E+03  0.91031620772E+02 0.  0.
         11    1    3    3    0    0 -0.33048672592E+03  0.14351101874E+03 -0.15396271203E+03  0.39181807667E+03  0.00000000000E+00 0. -1.
        -11    1    3    3    0    0 -0.24433864360E+03  0.16253120097E+03 -0.58742980153E+02  0.29927997220E+03  0.00000000000E+00 0.  1.
         22    1    1    2    0    0  0.57482536952E+03 -0.30604221972E+03  0.61249393696E+03  0.89399936717E+03  0.00000000000E+00 0. -1.
<mgrwt>
<rscale>  0 0.15338524E+04</rscale>
<asrwt>0</asrwt>
<pdfrwt beam="1">  1        2 0.15268351E+00 0.15338524E+04</pdfrwt>
<pdfrwt beam="2">  1       -2 0.91177629E-01 0.15338524E+04</pdfrwt>
<totfact> 0.25181119E+01</totfact>
</mgrwt>
</event>
<event>
 6    1  0.2236204E-005  0.1264531E+04  0.7818608E-02  0.9058175E-01
         -2   -1    0    0    0  501 -0.00000000000E+00  0.00000000000E+00  0.18847902569E+03  0.18847902569E+03  0.00000000000E+00 0.  1.
          2   -1    0    0  501    0  0.00000000000E+00 -0.00000000000E+00 -0.21209771192E+04  0.21209771192E+04  0.00000000000E+00 0. -1.
         23    2    1    2    0    0 -0.11339705169E+03 -0.37188612617E+03 -0.18742961131E+04  0.19163331963E+04  0.90492084522E+02 0.  0.
         13    1    3    3    0    0 -0.73834464553E+02 -0.18958933123E+03 -0.11801124287E+04  0.11975228545E+04  0.00000000000E+00 0. -1.
        -13    1    3    3    0    0 -0.39562587136E+02 -0.18229679494E+03 -0.69418368440E+03  0.71881034177E+03  0.00000000000E+00 0.  1.
         22    1    1    2    0    0  0.11339705169E+03  0.37188612617E+03 -0.58201980350E+02  0.39312294856E+03  0.00000000000E+00 0.  1.
<mgrwt>
<rscale>  0 0.12645311E+04</rscale>
<asrwt>0</asrwt>
<pdfrwt beam="1">  1        2 0.32630417E+00 0.12645311E+04</pdfrwt>
<pdfrwt beam="2">  1       -2 0.28996774E-01 0.12645311E+04</pdfrwt>
<totfact> 0.61502025E+01</totfact>
</mgrwt>
</event>
<event>
 6    1  0.2236204E-005  0.2096481E+04  0.7818608E-02  0.8562795E-01
         -2   -1    0    0    0  501 -0.00000000000E+00  0.00000000000E+00  0.83199443422E+03  0.83199443422E+03  0.00000000000E+00 0.  1.
          2   -1    0    0  501    0  0.00000000000E+00 -0.00000000000E+00 -0.13206913872E+04  0.13206913872E+04  0.00000000000E+00 0. -1.
         23    2    1    2    0    0 -0.33758387910E+02 -0.39119574516E+03  0.75102810069E+03  0.85226590905E+03  0.90223233811E+02 0.  0.
         13    1    3    3    0    0 -0.50125362220E+02 -0.30118944901E+03  0.63427767675E+03  0.70394304269E+03  0.00000000000E+00 0. -1.
        -13    1    3    3    0    0  0.16366974310E+02 -0.90006296146E+02  0.11675042394E+03  0.14832286636E+03  0.00000000000E+00 0.  1.
         22    1    1    2    0    0  0.33758387910E+02  0.39119574516E+03 -0.12397250537E+04  0.13004199124E+04  0.00000000000E+00 0. -1.
<mgrwt>
<rscale>  0 0.20964807E+04</rscale>
<asrwt>0</asrwt>
<pdfrwt beam="1">  1        2 0.20318329E+00 0.20964807E+04</pdfrwt>
<pdfrwt beam="2">  1       -2 0.12799915E+00 0.20964807E+04</pdfrwt>
<totfact> 0.66958908E+00</totfact>
</mgrwt>
</event>
<event>
 6    1  0.2236204E-005  0.1549755E+04  0.7818608E-02  0.8852024E-01
         -2   -1    0    0    0  501 -0.00000000000E+00  0.00000000000E+00  0.64102789114E+03  0.64102789114E+03  0.00000000000E+00 0.  1.
          2   -1    0    0  501    0  0.00000000000E+00 -0.00000000000E+00 -0.93667570623E+03  0.93667570623E+03  0.00000000000E+00 0. -1.
         23    2    1    2    0    0  0.22382354272E+03 -0.75073874692E+02 -0.89692051150E+03  0.93174545601E+03  0.89163478511E+02 0.  0.
         13    1    3    3    0    0  0.16291617983E+03 -0.44480529922E+02 -0.47003400144E+03  0.49945186125E+03  0.00000000000E+00 0. -1.
        -13    1    3    3    0    0  0.60907362887E+02 -0.30593344770E+02 -0.42688651006E+03  0.43229359476E+03  0.00000000000E+00 0.  1.
         22    1    1    2    0    0 -0.22382354272E+03  0.75073874692E+02  0.60127269641E+03  0.64595814136E+03  0.00000000000E+00 0.  1.
<mgrwt>
<rscale>  0 0.15497551E+04</rscale>
<asrwt>0</asrwt>
<pdfrwt beam="1">  1        2 0.14410395E+00 0.15497551E+04</pdfrwt>
<pdfrwt beam="2">  1       -2 0.98619676E-01 0.15497551E+04</pdfrwt>
<totfact> 0.22770938E+01</totfact>
</mgrwt>
</event>
<event>
 6    1  0.2236204E-005  0.4254886E+04  0.7818608E-02  0.7955013E-01
         -2   -1    0    0    0  501 -0.00000000000E+00  0.00000000000E+00  0.11157699698E+04  0.11157699698E+04  0.00000000000E+00 0. -1.
          2   -1    0    0  501    0  0.00000000000E+00 -0.00000000000E+00 -0.40564031264E+04  0.40564031264E+04  0.00000000000E+00 0.  1.
         23    2    1    2    0    0 -0.86205692190E+03 -0.10678135944E+04 -0.34454650067E+04  0.37099066342E+04  0.93862201980E+02 0.  0.
         13    1    3    3    0    0 -0.41488671165E+03 -0.56068990648E+03 -0.16507962035E+04  0.17921027483E+04  0.00000000000E+00 0.  1.
        -13    1    3    3    0    0 -0.44717021026E+03 -0.50712368797E+03 -0.17946688032E+04  0.19178038859E+04  0.00000000000E+00 0. -1.
         22    1    1    2    0    0  0.86205692190E+03  0.10678135944E+04  0.50483185011E+03  0.14622664620E+04  0.00000000000E+00 0. -1.
<mgrwt>
<rscale>  0 0.42548856E+04</rscale>
<asrwt>0</asrwt>
<pdfrwt beam="1">  1        2 0.62406202E+00 0.42548856E+04</pdfrwt>
<pdfrwt beam="2">  1       -2 0.17165692E+00 0.42548856E+04</pdfrwt>
<totfact> 0.49108529E-02</totfact>
</mgrwt>
</event>
<event>
 6    1  0.2236204E-005  0.1474086E+04  0.7818608E-02  0.8901870E-01
         -1   -1    0    0    0  501 -0.00000000000E+00  0.00000000000E+00  0.51080929250E+03  0.51080929250E+03  0.00000000000E+00 0.  1.
          1   -1    0    0  501    0  0.00000000000E+00 -0.00000000000E+00 -0.10634745265E+04  0.10634745265E+04  0.00000000000E+00 0. -1.
         23    2    1    2    0    0 -0.31525348253E+03  0.36027960539E+03  0.31733123068E+03  0.58126820942E+03  0.89372641268E+02 0.  0.
         11    1    3    3    0    0 -0.20828649495E+03  0.17391717200E+03  0.19333083651E+03  0.33317751881E+03  0.00000000000E+00 0. -1.
        -11    1    3    3    0    0 -0.10696698758E+03  0.18636243339E+03  0.12400039417E+03  0.24809069061E+03  0.00000000000E+00 0.  1.
         22    1    1    2    0    0  0.31525348253E+03 -0.36027960539E+03 -0.86999646470E+03  0.99301560960E+03  0.00000000000E+00 0. -1.
<mgrwt>
<rscale>  0 0.14740864E+04</rscale>
<asrwt>0</asrwt>
<pdfrwt beam="1">  1        1 0.16361147E+00 0.14740864E+04</pdfrwt>
<pdfrwt beam="2">  1       -1 0.78586045E-01 0.14740864E+04</pdfrwt>
<totfact> 0.21229275E+01</totfact>
</mgrwt>
</event>
<event>
 6    1  0.2236204E-005  0.2602293E+04  0.7818608E-02  0.8367423E-01
          2   -1    0    0  501    0  0.00000000000E+00  0.00000000000E+00  0.47153648394E+04  0.47153648394E+04  0.00000000000E+00 0. -1.
         -2   -1    0    0    0  501 -0.00000000000E+00 -0.00000000000E+00 -0.35903525907E+03  0.35903525907E+03  0.00000000000E+00 0.  1.
         23    2    1    2    0    0 -0.81902906534E+03  0.96938809739E+03  0.27265584554E+04  0.30088067665E+04  0.90968425486E+02 0.  0.
         13    1    3    3    0    0 -0.15974322934E+03  0.18899133500E+03  0.62127071056E+03  0.66873979980E+03  0.00000000000E+00 0. -1.
        -13    1    3    3    0    0 -0.65928583600E+03  0.78039676239E+03  0.21052877448E+04  0.23400669667E+04  0.00000000000E+00 0.  1.
         22    1    1    2    0    0  0.81902906534E+03 -0.96938809739E+03  0.16297711249E+04  0.20655933319E+04  0.00000000000E+00 0. -1.
<mgrwt>
<rscale>  0 0.26022930E+04</rscale>
<asrwt>0</asrwt>
<pdfrwt beam="1">  1        2 0.72544070E+00 0.26022930E+04</pdfrwt>
<pdfrwt beam="2">  1       -2 0.55236197E-01 0.26022930E+04</pdfrwt>
<totfact> 0.20236586E-01</totfact>
</mgrwt>
</event>
<event>
 6    1  0.2236204E-005  0.1559492E+04  0.7818608E-02  0.8845827E-01
          3   -1    0    0  501    0  0.00000000000E+00  0.00000000000E+00  0.40444658652E+03  0.40444658652E+03  0.00000000000E+00 0. -1.
         -3   -1    0    0    0  501 -0.00000000000E+00 -0.00000000000E+00 -0.15032991388E+04  0.15032991388E+04  0.00000000000E+00 0.  1.
         23    2    1    2    0    0 -0.71816308784E+03 -0.27787028171E+03 -0.42114368731E+03  0.88194875718E+03  0.86611146731E+02 0.  0.
         13    1    3    3    0    0 -0.84356771993E+02 -0.50906966314E+02 -0.81710246441E+02  0.12800058036E+03  0.00000000000E+00 0.  1.
        -13    1    3    3    0    0 -0.63380631585E+03 -0.22696331539E+03 -0.33943344087E+03  0.75394817681E+03  0.00000000000E+00 0. -1.
         22    1    1    2    0    0  0.71816308784E+03  0.27787028171E+03 -0.67770886498E+03  0.10257969682E+04  0.00000000000E+00 0.  1.
<mgrwt>
<rscale>  0 0.15594925E+04</rscale>
<asrwt>0</asrwt>
<pdfrwt beam="1">  1        3 0.62222551E-01 0.15594925E+04</pdfrwt>
<pdfrwt beam="2">  1       -3 0.23127679E+00 0.15594925E+04</pdfrwt>
<totfact> 0.59702562E-01</totfact>
</mgrwt>
</event>
<event>
 6    1  0.2236204E-005  0.4451407E+03  0.7818608E-02  0.1029181E+00
          2   -1    0    0  501    0  0.00000000000E+00  0.00000000000E+00  0.11369959631E+03  0.11369959631E+03  0.00000000000E+00 0. -1.
         -2   -1    0    0    0  501 -0.00000000000E+00 -0.00000000000E+00 -0.43568812197E+03  0.43568812197E+03  0.00000000000E+00 0.  1.
         23    2    1    2    0    0 -0.63274913993E+02 -0.18821294575E+02 -0.41820827146E+03  0.43269926404E+03  0.89289074968E+02 0.  0.
         13    1    3    3    0    0 -0.43755219001E+02  0.33249889127E+02 -0.18782554250E+03  0.19570004786E+03  0.00000000000E+00 0.  1.
        -13    1    3    3    0    0 -0.19519694992E+02 -0.52071183702E+02 -0.23038272896E+03  0.23699921618E+03  0.00000000000E+00 0. -1.
         22    1    1    2    0    0  0.63274913993E+02  0.18821294575E+02  0.96219745803E+02  0.11668845424E+03  0.00000000000E+00 0. -1.
<mgrwt>
<rscale>  0 0.44514071E+03</rscale>
<asrwt>0</asrwt>
<pdfrwt beam="1">  1        2 0.17492246E-01 0.44514071E+03</pdfrwt>
<pdfrwt beam="2">  1       -2 0.67028942E-01 0.44514071E+03</pdfrwt>
<totfact> 0.68415993E+02</totfact>
</mgrwt>
</event>
<event>
 6    1  0.2236204E-005  0.3971113E+04  0.7818608E-02  0.8010399E-01
          2   -1    0    0  501    0  0.00000000000E+00  0.00000000000E+00  0.16514328452E+04  0.16514328452E+04  0.00000000000E+00 0. -1.
         -2   -1    0    0    0  501 -0.00000000000E+00 -0.00000000000E+00 -0.23872811148E+04  0.23872811148E+04  0.00000000000E+00 0.  1.
         23    2    1    2    0    0  0.15873368973E+04  0.11893758275E+04 -0.30390433346E+03  0.20087314851E+04  0.91602680627E+02 0.  0.
         11    1    3    3    0    0  0.75283927538E+03  0.51888329013E+03 -0.11183197813E+03  0.92114778112E+03  0.00000000000E+00 0.  1.
        -11    1    3    3    0    0  0.83449762188E+03  0.67049253734E+03 -0.19207235533E+03  0.10875837040E+04  0.00000000000E+00 0. -1.
         22    1    1    2    0    0 -0.15873368973E+04 -0.11893758275E+04 -0.43194393611E+03  0.20299824749E+04  0.00000000000E+00 0. -1.
<mgrwt>
<rscale>  0 0.39711129E+04</rscale>
<asrwt>0</asrwt>
<pdfrwt beam="1">  1        2 0.25406659E+00 0.39711129E+04</pdfrwt>
<pdfrwt beam="2">  1       -2 0.36727401E+00 0.39711129E+04</pdfrwt>
<totfact> 0.99707945E-02</totfact>
</mgrwt>
</event>
<event>
 6    1  0.2721698E-005  0.3506461E+04  0.7818608E-02  0.8112261E-01
         -1   -1    0    0    0  501 -0.00000000000E+00  0.00000000000E+00  0.11407832088E+04  0.11407832088E+04  0.00000000000E+00 0.  1.
          1   -1    0    0  501    0  0.00000000000E+00 -0.00000000000E+00 -0.26944794848E+04  0.26944794848E+04  0.00000000000E+00 0. -1.
         23    2    1    2    0    0 -0.14815434043E+04 -0.82795918031E+03 -0.12533760756E+04  0.21116967720E+04  0.88455678344E+02 0.  0.
         11    1    3    3    0    0 -0.61780930512E+03 -0.37899434856E+03 -0.49485673778E+03  0.87761508912E+03  0.00000000000E+00 0. -1.
        -11    1    3    3    0    0 -0.86373409917E+03 -0.44896483175E+03 -0.75851933784E+03  0.12340816829E+04  0.00000000000E+00 0.  1.
         22    1    1    2    0    0  0.14815434043E+04  0.82795918031E+03 -0.30032020039E+03  0.17235659215E+04  0.00000000000E+00 0.  1.
<mgrwt>
<rscale>  0 0.35064609E+04</rscale>
<asrwt>0</asrwt>
<pdfrwt beam="1">  1        1 0.41453530E+00 0.35064609E+04</pdfrwt>
<pdfrwt beam="2">  1       -1 0.17550511E+00 0.35064609E+04</pdfrwt>
<totfact> 0.18102806E-01</totfact>
</mgrwt>
</event>
<event>
 6    1  0.2236204E-005  0.3028533E+04  0.7818608E-02  0.8235630E-01
         -2   -1    0    0    0  501 -0.00000000000E+00  0.00000000000E+00  0.11796679414E+04  0.11796679414E+04  0.00000000000E+00 0.  1.
          2   -1    0    0  501    0  0.00000000000E+00 -0.00000000000E+00 -0.19437695055E+04  0.19437695055E+04  0.00000000000E+00 0. -1.
         23    2    1    2    0    0 -0.28448472809E+02 -0.83441729673E+03  0.91875262699E+03  0.12448582579E+04  0.92217959350E+02 0.  0.
         13    1    3    3    0    0 -0.30718688749E+02 -0.21500437574E+03  0.19135258842E+03  0.28945868880E+03  0.00000000000E+00 0. -1.
        -13    1    3    3    0    0  0.22702159405E+01 -0.61941292099E+03  0.72740003856E+03  0.95539956912E+03  0.00000000000E+00 0.  1.
         22    1    1    2    0    0  0.28448472809E+02  0.83441729673E+03 -0.16828541911E+04  0.18785791890E+04  0.00000000000E+00 0. -1.
<mgrwt>
<rscale>  0 0.30285327E+04</rscale>
<asrwt>0</asrwt>
<pdfrwt beam="1">  1        2 0.29904146E+00 0.30285327E+04</pdfrwt>
<pdfrwt beam="2">  1       -2 0.18148738E+00 0.30285327E+04</pdfrwt>
<totfact> 0.10860186E+00</totfact>
</mgrwt>
</event>
<event>
 6    1  0.2236204E-005  0.3164343E+04  0.7818608E-02  0.8198298E-01
          2   -1    0    0  501    0  0.00000000000E+00  0.00000000000E+00  0.31615014585E+04  0.31615014585E+04  0.00000000000E+00 0. -1.
         -2   -1    0    0    0  501 -0.00000000000E+00 -0.00000000000E+00 -0.79179669664E+03  0.79179669664E+03  0.00000000000E+00 0.  1.
         23    2    1    2    0    0 -0.52592305761E+03 -0.68529855203E+03 -0.46823075398E+03  0.98680069855E+03  0.91139518107E+02 0.  0.
         13    1    3    3    0    0 -0.29219068587E+03 -0.31045246359E+03 -0.24774343463E+03  0.49308512293E+03  0.00000000000E+00 0. -1.
        -13    1    3    3    0    0 -0.23373237174E+03 -0.37484608844E+03 -0.22048731935E+03  0.49371557562E+03  0.00000000000E+00 0.  1.
         22    1    1    2    0    0  0.52592305761E+03  0.68529855203E+03  0.28379355159E+04  0.29664974566E+04  0.00000000000E+00 0. -1.
<mgrwt>
<rscale>  0 0.31643428E+04</rscale>
<asrwt>0</asrwt>
<pdfrwt beam="1">  1        2 0.48638484E+00 0.31643428E+04</pdfrwt>
<pdfrwt beam="2">  1       -2 0.12181488E+00 0.31643428E+04</pdfrwt>
<totfact> 0.59291368E-01</totfact>
</mgrwt>
</event>
<event>
 6    1  0.2236204E-005  0.3074839E+04  0.7818608E-02  0.8222677E-01
          2   -1    0    0  501    0  0.00000000000E+00  0.00000000000E+00  0.28303956043E+04  0.28303956043E+04  0.00000000000E+00 0. -1.
         -2   -1    0    0    0  501 -0.00000000000E+00 -0.00000000000E+00 -0.83509840182E+03  0.83509840182E+03  0.00000000000E+00 0.  1.
         23    2    1    2    0    0  0.82671249345E+03  0.96548027102E+03  0.20268933325E+04  0.23940365684E+04  0.86653383853E+02 0.  0.
         13    1    3    3    0    0  0.12007376556E+03  0.10040470152E+03  0.27155459992E+03  0.31343374739E+03  0.00000000000E+00 0.  1.
        -13    1    3    3    0    0  0.70663872788E+03  0.86507556950E+03  0.17553387325E+04  0.20806028210E+04  0.00000000000E+00 0. -1.
         22    1    1    2    0    0 -0.82671249345E+03 -0.96548027102E+03 -0.31596130012E+02  0.12714574377E+04  0.00000000000E+00 0.  1.
<mgrwt>
<rscale>  0 0.30748391E+04</rscale>
<asrwt>0</asrwt>
<pdfrwt beam="1">  1        2 0.43544547E+00 0.30748391E+04</pdfrwt>
<pdfrwt beam="2">  1       -2 0.12847668E+00 0.30748391E+04</pdfrwt>
<totfact> 0.84325401E-01</totfact>
</mgrwt>
</event>
<event>
 6    1  0.2236204E-005  0.1713082E+04  0.7818608E-02  0.8753938E-01
          2   -1    0    0  501    0  0.00000000000E+00  0.00000000000E+00  0.94534390239E+03  0.94534390239E+03  0.00000000000E+00 0. -1.
         -2   -1    0    0    0  501 -0.00000000000E+00 -0.00000000000E+00 -0.77607962516E+03  0.77607962516E+03  0.00000000000E+00 0.  1.
         23    2    1    2    0    0 -0.43307573045E+03  0.65969493164E+03 -0.24345224138E+03  0.83086925302E+03  0.91229001116E+02 0.  0.
         11    1    3    3    0    0 -0.92563302388E+02  0.12719573321E+03 -0.12024579340E+02  0.15776980067E+03  0.00000000000E+00 0.  1.
        -11    1    3    3    0    0 -0.34051242806E+03  0.53249919843E+03 -0.23142766204E+03  0.67309945235E+03  0.00000000000E+00 0. -1.
         22    1    1    2    0    0  0.43307573045E+03 -0.65969493164E+03  0.41271651861E+03  0.89055427452E+03  0.00000000000E+00 0. -1.
<mgrwt>
<rscale>  0 0.17130816E+04</rscale>
<asrwt>0</asrwt>
<pdfrwt beam="1">  1        2 0.14543752E+00 0.17130816E+04</pdfrwt>
<pdfrwt beam="2">  1       -2 0.11939687E+00 0.17130816E+04</pdfrwt>
<totfact> 0.13975980E+01</totfact>
</mgrwt>
</event>
<event>
 6    1  0.2236204E-005  0.2616591E+04  0.7818608E-02  0.8362587E-01
          1   -1    0    0  501    0  0.00000000000E+00  0.00000000000E+00  0.11532323620E+04  0.11532323620E+04  0.00000000000E+00 0. -1.
         -1   -1    0    0    0  501 -0.00000000000E+00 -0.00000000000E+00 -0.14842087715E+04  0.14842087715E+04  0.00000000000E+00 0.  1.
         23    2    1    2    0    0  0.60301944575E+03  0.72250777342E+03  0.74802839648E+03  0.12056934930E+04  0.92197518744E+02 0.  0.
         13    1    3    3    0    0  0.21788359829E+03  0.23943470832E+03  0.31118927163E+03  0.44904454649E+03  0.00000000000E+00 0.  1.
        -13    1    3    3    0    0  0.38513584746E+03  0.48307306510E+03  0.43683912485E+03  0.75664894649E+03  0.00000000000E+00 0. -1.
         22    1    1    2    0    0 -0.60301944575E+03 -0.72250777342E+03 -0.10790048061E+04  0.14317476405E+04  0.00000000000E+00 0. -1.
<mgrwt>
<rscale>  0 0.26165914E+04</rscale>
<asrwt>0</asrwt>
<pdfrwt beam="1">  1        1 0.17742036E+00 0.26165914E+04</pdfrwt>
<pdfrwt beam="2">  1       -1 0.22833981E+00 0.26165914E+04</pdfrwt>
<totfact> 0.98502341E-01</totfact>
</mgrwt>
</event>
<event>
 6    1  0.2236204E-005  0.1789275E+04  0.7818608E-02  0.8712024E-01
         -2   -1    0    0    0  501 -0.00000000000E+00  0.00000000000E+00  0.73773597577E+03  0.73773597577E+03  0.00000000000E+00 0.  1.
          2   -1    0    0  501    0  0.00000000000E+00 -0.00000000000E+00 -0.10849082567E+04  0.10849082567E+04  0.00000000000E+00 0. -1.
         23    2    1    2    0    0 -0.73680713053E+03  0.61837622625E+02  0.33478523399E+03  0.81677411596E+03  0.91269734557E+02 0.  0.
         13    1    3    3    0    0 -0.47426748641E+02  0.19380882720E+02  0.52505279464E+01  0.51502263498E+02  0.00000000000E+00 0.  1.
        -13    1    3    3    0    0 -0.68938038189E+03  0.42456739906E+02  0.32953470604E+03  0.76527185247E+03  0.00000000000E+00 0. -1.
         22    1    1    2    0    0  0.73680713053E+03 -0.61837622625E+02 -0.68195751495E+03  0.10058701165E+04  0.00000000000E+00 0. -1.
<mgrwt>
<rscale>  0 0.17892745E+04</rscale>
<asrwt>0</asrwt>
<pdfrwt beam="1">  1        2 0.16690896E+00 0.17892745E+04</pdfrwt>
<pdfrwt beam="2">  1       -2 0.11349784E+00 0.17892745E+04</pdfrwt>
<totfact> 0.12808548E+01</totfact>
</mgrwt>
</event>
<event>
 6    1  0.2236204E-005  0.3773652E+04  0.7818608E-02  0.8051833E-01
          2   -1    0    0  501    0  0.00000000000E+00  0.00000000000E+00  0.97505991103E+03  0.97505991103E+03  0.00000000000E+00 0. -1.
         -2   -1    0    0    0  501 -0.00000000000E+00 -0.00000000000E+00 -0.36511722346E+04  0.36511722346E+04  0.00000000000E+00 0.  1.
         23    2    1    2    0    0 -0.59062582680E+03  0.93524578437E+03 -0.32111763448E+04  0.33974860159E+04  0.87944111338E+02 0.  0.
         13    1    3    3    0    0 -0.41367889824E+03  0.71387994003E+03 -0.23212059665E+04  0.24634836997E+04  0.00000000000E+00 0. -1.
        -13    1    3    3    0    0 -0.17694692856E+03  0.22136584433E+03 -0.88997037828E+03  0.93400231626E+03  0.00000000000E+00 0.  1.
         22    1    1    2    0    0  0.59062582680E+03 -0.93524578437E+03  0.53506402121E+03  0.12287461297E+04  0.00000000000E+00 0. -1.
<mgrwt>
<rscale>  0 0.37736516E+04</rscale>
<asrwt>0</asrwt>
<pdfrwt beam="1">  1        2 0.15000922E+00 0.37736516E+04</pdfrwt>
<pdfrwt beam="2">  1       -2 0.56171880E+00 0.37736516E+04</pdfrwt>
<totfact> 0.15643345E-02</totfact>
</mgrwt>
</event>
<event>
 6    1  0.2236204E-005  0.1211630E+04  0.7818608E-02  0.9102737E-01
          2   -1    0    0  501    0  0.00000000000E+00  0.00000000000E+00  0.36702291132E+04  0.36702291132E+04  0.00000000000E+00 0. -1.
         -2   -1    0    0    0  501 -0.00000000000E+00 -0.00000000000E+00 -0.99996999624E+02  0.99996999624E+02  0.00000000000E+00 0.  1.
         23    2    1    2    0    0 -0.23968150781E+03 -0.51490956535E+03  0.24195768717E+04  0.24870322181E+04  0.91640222418E+02 0.  0.
         11    1    3    3    0    0  0.12213549159E+01 -0.25482641504E+02  0.18934281425E+03  0.19105380926E+03  0.00000000000E+00 0. -1.
        -11    1    3    3    0    0 -0.24090286272E+03 -0.48942692385E+03  0.22302340574E+04  0.22959784088E+04  0.00000000000E+00 0.  1.
         22    1    1    2    0    0  0.23968150781E+03  0.51490956535E+03  0.11506552419E+04  0.12831938947E+04  0.00000000000E+00 0. -1.
<mgrwt>
<rscale>  0 0.12116301E+04</rscale>
<asrwt>0</asrwt>
<pdfrwt beam="1">  1        2 0.56465053E+00 0.12116301E+04</pdfrwt>
<pdfrwt beam="2">  1       -2 0.15384157E-01 0.12116301E+04</pdfrwt>
<totfact> 0.20974244E+01</totfact>
</mgrwt>
</event>
<event>
 6    1  0.2236204E-005  0.3023035E+04  0.7818608E-02  0.8237184E-01
          2   -1    0    0  501    0  0.00000000000E+00  0.00000000000E+00  0.15184703359E+04  0.15184703359E+04  0.00000000000E+00 0. -1.
         -2   -1    0    0    0  501 -0.00000000000E+00 -0.00000000000E+00 -0.15045963757E+04  0.15045963757E+04  0.00000000000E+00 0.  1.
         23    2    1    2    0    0 -0.91571224744E+03 -0.23659297018E+03 -0.11703688752E+04  0.15075020489E+04  0.91071235276E+02 0.  0.
         11    1    3    3    0    0 -0.53271841406E+03 -0.11652555763E+03 -0.60989032744E+03  0.81812793973E+03  0.00000000000E+00 0. -1.
        -11    1    3    3    0    0 -0.38299383338E+03 -0.12006741255E+03 -0.56047854773E+03  0.68937410920E+03  0.00000000000E+00 0.  1.
         22    1    1    2    0    0  0.91571224744E+03  0.23659297018E+03  0.11842428353E+04  0.15155646626E+04  0.00000000000E+00 0. -1.
<mgrwt>
<rscale>  0 0.30230349E+04</rscale>
<asrwt>0</asrwt>
<pdfrwt beam="1">  1        2 0.23361082E+00 0.30230349E+04</pdfrwt>
<pdfrwt beam="2">  1       -2 0.23147636E+00 0.30230349E+04</pdfrwt>
<totfact> 0.88627614E-01</totfact>
</mgrwt>
</event>
<event>
 6    1  0.2236204E-005  0.7319980E+03  0.7818608E-02  0.9664024E-01
         -2   -1    0    0    0  501 -0.00000000000E+00  0.00000000000E+00  0.34296193923E+03  0.34296193923E+03  0.00000000000E+00 0.  1.
          2   -1    0    0  501    0  0.00000000000E+00 -0.00000000000E+00 -0.39058342887E+03  0.39058342887E+03  0.00000000000E+00 0. -1.
         23    2    1    2    0    0  0.13177815460E+03 -0.33432694003E+03 -0.47032013128E+02  0.37418436251E+03  0.93069554805E+02 0.  0.
         13    1    3    3    0    0  0.73809209545E+02 -0.88104259446E+02 -0.38051135376E+02  0.12107042929E+03  0.00000000000E+00 0. -1.
        -13    1    3    3    0    0  0.57968945054E+02 -0.24622268058E+03 -0.89808777524E+01  0.25311393322E+03  0.00000000000E+00 0.  1.
         22    1    1    2    0    0 -0.13177815460E+03  0.33432694003E+03 -0.58947651172E+00  0.35936100559E+03  0.00000000000E+00 0. -1.
<mgrwt>
<rscale>  0 0.73199795E+03</rscale>
<asrwt>0</asrwt>
<pdfrwt beam="1">  1        2 0.60089758E-01 0.73199795E+03</pdfrwt>
<pdfrwt beam="2">  1       -2 0.52763375E-01 0.73199795E+03</pdfrwt>
<totfact> 0.27926657E+02</totfact>
</mgrwt>
</event>
<event>
 6    1  0.2236204E-005  0.4137959E+04  0.7818608E-02  0.7977280E-01
         -1   -1    0    0    0  501 -0.00000000000E+00  0.00000000000E+00  0.14767707891E+04  0.14767707891E+04  0.00000000000E+00 0.  1.
          1   -1    0    0  501    0  0.00000000000E+00 -0.00000000000E+00 -0.28986733000E+04  0.28986733000E+04  0.00000000000E+00 0. -1.
         23    2    1    2    0    0 -0.13430857898E+04 -0.13364480822E+04  0.16478457313E+03  0.19040985411E+04  0.92002085479E+02 0.  0.
         11    1    3    3    0    0 -0.68499439478E+03 -0.66228735107E+03  0.12693566463E+03  0.96122552985E+03  0.00000000000E+00 0. -1.
        -11    1    3    3    0    0 -0.65809139498E+03 -0.67416073113E+03  0.37848908499E+02  0.94287301129E+03  0.00000000000E+00 0.  1.
         22    1    1    2    0    0  0.13430857898E+04  0.13364480822E+04 -0.15866870840E+04  0.24713455480E+04  0.00000000000E+00 0.  1.
<mgrwt>
<rscale>  0 0.41379589E+04</rscale>
<asrwt>0</asrwt>
<pdfrwt beam="1">  1        1 0.44594973E+00 0.41379589E+04</pdfrwt>
<pdfrwt beam="2">  1       -1 0.22719551E+00 0.41379589E+04</pdfrwt>
<totfact> 0.53972725E-02</totfact>
</mgrwt>
</event>
<event>
 6    1  0.2236204E-005  0.2518361E+04  0.7818608E-02  0.8396473E-01
          2   -1    0    0  501    0  0.00000000000E+00  0.00000000000E+00  0.28348234902E+04  0.28348234902E+04  0.00000000000E+00 0. -1.
         -2   -1    0    0    0  501 -0.00000000000E+00 -0.00000000000E+00 -0.55930679828E+03  0.55930679828E+03  0.00000000000E+00 0.  1.
         23    2    1    2    0    0  0.55089896694E+03 -0.13399309080E+03  0.26521941715E+04  0.27134469967E+04  0.84952105015E+02 0.  0.
         11    1    3    3    0    0  0.23152064447E+03 -0.65794667075E+02  0.93557852678E+03  0.96604240424E+03  0.00000000000E+00 0. -1.
        -11    1    3    3    0    0  0.31937832247E+03 -0.68198423729E+02  0.17166156447E+04  0.17474045924E+04  0.00000000000E+00 0.  1.
         22    1    1    2    0    0 -0.55089896694E+03  0.13399309080E+03 -0.37667747958E+03  0.68068329183E+03  0.00000000000E+00 0.  1.
<mgrwt>
<rscale>  0 0.25183614E+04</rscale>
<asrwt>0</asrwt>
<pdfrwt beam="1">  1        2 0.43612668E+00 0.25183614E+04</pdfrwt>
<pdfrwt beam="2">  1       -2 0.86047202E-01 0.25183614E+04</pdfrwt>
<totfact> 0.22980411E+00</totfact>
</mgrwt>
</event>
<event>
 6    1  0.2236204E-005  0.3002502E+04  0.7818608E-02  0.8243017E-01
          2   -1    0    0  501    0  0.00000000000E+00  0.00000000000E+00  0.19342931762E+04  0.19342931762E+04  0.00000000000E+00 0. -1.
         -2   -1    0    0    0  501 -0.00000000000E+00 -0.00000000000E+00 -0.11651567743E+04  0.11651567743E+04  0.00000000000E+00 0.  1.
         23    2    1    2    0    0  0.31773286333E+03  0.10308288123E+04 -0.69100109994E+03  0.12840811899E+04  0.88429459619E+02 0.  0.
         13    1    3    3    0    0  0.14076634300E+03  0.58673988878E+03 -0.36000062094E+03  0.70262316179E+03  0.00000000000E+00 0.  1.
        -13    1    3    3    0    0  0.17696652033E+03  0.44408892355E+03 -0.33100047900E+03  0.58145802809E+03  0.00000000000E+00 0. -1.
         22    1    1    2    0    0 -0.31773286333E+03 -0.10308288123E+04  0.14601375018E+04  0.18153687606E+04  0.00000000000E+00 0. -1.
<mgrwt>
<rscale>  0 0.30025022E+04</rscale>
<asrwt>0</asrwt>
<pdfrwt beam="1">  1        2 0.29758357E+00 0.30025022E+04</pdfrwt>
<pdfrwt beam="2">  1       -2 0.17925489E+00 0.30025022E+04</pdfrwt>
<totfact> 0.11414407E+00</totfact>
</mgrwt>
</event>
<event>
 6    1  0.2236204E-005  0.2075470E+04  0.7818608E-02  0.8572127E-01
         -2   -1    0    0    0  501 -0.00000000000E+00  0.00000000000E+00  0.75058389585E+03  0.75058389585E+03  0.00000000000E+00 0. -1.
          2   -1    0    0  501    0  0.00000000000E+00 -0.00000000000E+00 -0.14347416464E+04  0.14347416464E+04  0.00000000000E+00 0.  1.
         23    2    1    2    0    0 -0.84219735428E+03  0.35119997708E+02  0.29089061460E+03  0.89643101119E+03  0.91877148269E+02 0.  0.
         11    1    3    3    0    0 -0.19752872279E+03 -0.79489770855E+01  0.31413611696E+02  0.20016892257E+03  0.00000000000E+00 0.  1.
        -11    1    3    3    0    0 -0.64466863148E+03  0.43068974794E+02  0.25947700291E+03  0.69626208862E+03  0.00000000000E+00 0. -1.
         22    1    1    2    0    0  0.84219735428E+03 -0.35119997708E+02 -0.97504836517E+03  0.12888945311E+04  0.00000000000E+00 0.  1.
<mgrwt>
<rscale>  0 0.20754700E+04</rscale>
<asrwt>0</asrwt>
<pdfrwt beam="1">  1        2 0.22072948E+00 0.20754700E+04</pdfrwt>
<pdfrwt beam="2">  1       -2 0.11547445E+00 0.20754700E+04</pdfrwt>
<totfact> 0.74526899E+00</totfact>
</mgrwt>
</event>
<event>
 6    1  0.2236204E-005  0.4376169E+04  0.7818608E-02  0.7932682E-01
          1   -1    0    0  501    0  0.00000000000E+00  0.00000000000E+00  0.24115958759E+04  0.24115958759E+04  0.00000000000E+00 0. -1.
         -1   -1    0    0    0  501 -0.00000000000E+00 -0.00000000000E+00 -0.19852884603E+04  0.19852884603E+04  0.00000000000E+00 0.  1.
         23    2    1    2    0    0 -0.20293323436E+04 -0.63356344441E+01  0.10327503617E+04  0.22788656989E+04  0.91791409049E+02 0.  0.
         11    1    3    3    0    0 -0.16391456271E+04  0.27872106013E+02  0.81675909166E+03  0.18315760030E+04  0.00000000000E+00 0.  1.
        -11    1    3    3    0    0 -0.39018671655E+03 -0.34207740457E+02  0.21599127005E+03  0.44728969585E+03  0.00000000000E+00 0. -1.
         22    1    1    2    0    0  0.20293323436E+04  0.63356344441E+01 -0.60644294615E+03  0.21180186373E+04  0.00000000000E+00 0.  1.
<mgrwt>
<rscale>  0 0.43761689E+04</rscale>
<asrwt>0</asrwt>
<pdfrwt beam="1">  1        1 0.37101475E+00 0.43761689E+04</pdfrwt>
<pdfrwt beam="2">  1       -1 0.30542899E+00 0.43761689E+04</pdfrwt>
<totfact> 0.36051323E-02</totfact>
</mgrwt>
</event>
<event>
 6    1  0.2236204E-005  0.3269538E+04  0.7818608E-02  0.8170690E-01
         -2   -1    0    0    0  501 -0.00000000000E+00  0.00000000000E+00  0.15123493208E+04  0.15123493208E+04  0.00000000000E+00 0.  1.
          2   -1    0    0  501    0  0.00000000000E+00 -0.00000000000E+00 -0.17670986794E+04  0.17670986794E+04  0.00000000000E+00 0. -1.
         23    2    1    2    0    0 -0.11317340488E+04  0.22918211641E+03  0.10314510672E+04  0.15509637118E+04  0.90833538916E+02 0.  0.
         13    1    3    3    0    0 -0.73797418520E+03  0.18469056217E+03  0.64331771496E+03  0.99628017353E+03  0.00000000000E+00 0. -1.
        -13    1    3    3    0    0 -0.39375986355E+03  0.44491554246E+02  0.38813335227E+03  0.55468353832E+03  0.00000000000E+00 0.  1.
         22    1    1    2    0    0  0.11317340488E+04 -0.22918211641E+03 -0.12862004258E+04  0.17284842883E+04  0.00000000000E+00 0. -1.
<mgrwt>
<rscale>  0 0.32695385E+04</rscale>
<asrwt>0</asrwt>
<pdfrwt beam="1">  1        2 0.27186133E+00 0.32695385E+04</pdfrwt>
<pdfrwt beam="2">  1       -2 0.23266913E+00 0.32695385E+04</pdfrwt>
<totfact> 0.61999911E-01</totfact>
</mgrwt>
</event>
<event>
 6    1  0.3213537E-005  0.3289896E+04  0.7818608E-02  0.8165471E-01
         -2   -1    0    0    0  501 -0.00000000000E+00  0.00000000000E+00  0.23693273996E+04  0.23693273996E+04  0.00000000000E+00 0.  1.
          2   -1    0    0  501    0  0.00000000000E+00 -0.00000000000E+00 -0.11420346150E+04  0.11420346150E+04  0.00000000000E+00 0. -1.
         23    2    1    2    0    0  0.13201380859E+04  0.67078169177E+01  0.16592541237E+04  0.21223335199E+04  0.91464540849E+02 0.  0.
         11    1    3    3    0    0  0.60416137415E+03  0.24598063109E+02  0.82424455051E+03  0.10222500231E+04  0.00000000000E+00 0.  1.
        -11    1    3    3    0    0  0.71597671172E+03 -0.17890246191E+02  0.83500957316E+03  0.11000834968E+04  0.00000000000E+00 0. -1.
         22    1    1    2    0    0 -0.13201380859E+04 -0.67078169177E+01 -0.43196133913E+03  0.13890284947E+04  0.00000000000E+00 0. -1.
<mgrwt>
<rscale>  0 0.32898960E+04</rscale>
<asrwt>0</asrwt>
<pdfrwt beam="1">  1        2 0.17569763E+00 0.32898960E+04</pdfrwt>
<pdfrwt beam="2">  1       -2 0.36451191E+00 0.32898960E+04</pdfrwt>
<totfact> 0.21588086E-01</totfact>
</mgrwt>
</event>
<event>
 6    1  0.2236204E-005  0.3529176E+04  0.7818608E-02  0.8106910E-01
          2   -1    0    0  501    0  0.00000000000E+00  0.00000000000E+00  0.28386124887E+04  0.28386124887E+04  0.00000000000E+00 0. -1.
         -2   -1    0    0    0  501 -0.00000000000E+00 -0.00000000000E+00 -0.10969340557E+04  0.10969340557E+04  0.00000000000E+00 0.  1.
         23    2    1    2    0    0  0.53305099561E+03  0.14965596566E+04  0.17248731213E+04  0.23467996834E+04  0.91909190441E+02 0.  0.
         11    1    3    3    0    0  0.12504634202E+03  0.25836345370E+03  0.33632853911E+03  0.44215964094E+03  0.00000000000E+00 0.  1.
        -11    1    3    3    0    0  0.40800465360E+03  0.12381962029E+04  0.13885445822E+04  0.19046400424E+04  0.00000000000E+00 0. -1.
         22    1    1    2    0    0 -0.53305099561E+03 -0.14965596566E+04  0.16805311655E+02  0.15887468610E+04  0.00000000000E+00 0.  1.
<mgrwt>
<rscale>  0 0.35291759E+04</rscale>
<asrwt>0</asrwt>
<pdfrwt beam="1">  1        2 0.43670961E+00 0.35291759E+04</pdfrwt>
<pdfrwt beam="2">  1       -2 0.16875909E+00 0.35291759E+04</pdfrwt>
<totfact> 0.39047781E-01</totfact>
</mgrwt>
</event>
<event>
 6    1  0.2236204E-005  0.3251517E+04  0.7818608E-02  0.8175343E-01
         -2   -1    0    0    0  501 -0.00000000000E+00  0.00000000000E+00  0.94986560724E+03  0.94986560724E+03  0.00000000000E+00 0.  1.
          2   -1    0    0  501    0  0.00000000000E+00 -0.00000000000E+00 -0.27825935988E+04  0.27825935988E+04  0.00000000000E+00 0. -1.
         23    2    1    2    0    0  0.15417339315E+04 -0.95849345875E+01 -0.15046015309E+04  0.21561653373E+04  0.90486508639E+02 0.  0.
         11    1    3    3    0    0  0.12884246104E+04  0.18783565532E+02 -0.12837705447E+04  0.18189166035E+04  0.00000000000E+00 0. -1.
        -11    1    3    3    0    0  0.25330932109E+03 -0.28368500119E+02 -0.22083098626E+03  0.33724873379E+03  0.00000000000E+00 0.  1.
         22    1    1    2    0    0 -0.15417339315E+04  0.95849345875E+01 -0.32812646063E+03  0.15762938688E+04  0.00000000000E+00 0. -1.
<mgrwt>
<rscale>  0 0.32515165E+04</rscale>
<asrwt>0</asrwt>
<pdfrwt beam="1">  1        2 0.42809132E+00 0.32515165E+04</pdfrwt>
<pdfrwt beam="2">  1       -2 0.14613317E+00 0.32515165E+04</pdfrwt>
<totfact> 0.63745510E-01</totfact>
</mgrwt>
</event>
<event>
 6    1  0.2236204E-005  0.3423009E+04  0.7818608E-02  0.8132282E-01
          2   -1    0    0  501    0  0.00000000000E+00  0.00000000000E+00  0.30577162648E+04  0.30577162648E+04  0.00000000000E+00 0. -1.
         -2   -1    0    0    0  501 -0.00000000000E+00 -0.00000000000E+00 -0.95798528188E+03  0.95798528188E+03  0.00000000000E+00 0.  1.
         23    2    1    2    0    0 -0.50623650346E+03 -0.12812475534E+04 -0.13841121713E+03  0.13875555846E+04  0.91006289054E+02 0.  0.
         13    1    3    3    0    0 -0.19927335244E+03 -0.40907768339E+03 -0.70399150971E+02  0.46044593656E+03  0.00000000000E+00 0.  1.
        -13    1    3    3    0    0 -0.30696315102E+03 -0.87216987002E+03 -0.68012066162E+02  0.92710964799E+03  0.00000000000E+00 0. -1.
         22    1    1    2    0    0  0.50623650346E+03  0.12812475534E+04  0.22381422000E+04  0.26281459621E+04  0.00000000000E+00 0. -1.
<mgrwt>
<rscale>  0 0.34230087E+04</rscale>
<asrwt>0</asrwt>
<pdfrwt beam="1">  1        2 0.47041788E+00 0.34230087E+04</pdfrwt>
<pdfrwt beam="2">  1       -2 0.14738235E+00 0.34230087E+04</pdfrwt>
<totfact> 0.41526742E-01</totfact>
</mgrwt>
</event>
<event>
 6    1  0.2236204E-005  0.1571331E+04  0.7818608E-02  0.8838357E-01
         -2   -1    0    0    0  501 -0.00000000000E+00  0.00000000000E+00  0.26778116186E+03  0.26778116186E+03  0.00000000000E+00 0. -1.
          2   -1    0    0  501    0  0.00000000000E+00 -0.00000000000E+00 -0.23051290838E+04  0.23051290838E+04  0.00000000000E+00 0.  1.
         23    2    1    2    0    0  0.28146332852E+03  0.31696147973E+03 -0.21001228479E+04  0.21443931792E+04  0.90663917542E+02 0.  0.
         11    1    3    3    0    0  0.18483236095E+02  0.66998610242E+02 -0.39908217024E+03  0.40508890677E+03  0.00000000000E+00 0.  1.
        -11    1    3    3    0    0  0.26298009242E+03  0.24996286949E+03 -0.17010406776E+04  0.17393042724E+04  0.00000000000E+00 0. -1.
         22    1    1    2    0    0 -0.28146332852E+03 -0.31696147973E+03  0.62774925908E+02  0.42851706647E+03  0.00000000000E+00 0. -1.
<mgrwt>
<rscale>  0 0.15713308E+04</rscale>
<asrwt>0</asrwt>
<pdfrwt beam="1">  1        2 0.35463524E+00 0.15713308E+04</pdfrwt>
<pdfrwt beam="2">  1       -2 0.41197102E-01 0.15713308E+04</pdfrwt>
<totfact> 0.24185149E+01</totfact>
</mgrwt>
</event>
<event>
 6    1  0.2236204E-005  0.4549304E+04  0.7818608E-02  0.7902062E-01
         -2   -1    0    0    0  501 -0.00000000000E+00  0.00000000000E+00  0.13207343614E+04  0.13207343614E+04  0.00000000000E+00 0.  1.
          2   -1    0    0  501    0  0.00000000000E+00 -0.00000000000E+00 -0.39175494242E+04  0.39175494242E+04  0.00000000000E+00 0. -1.
         23    2    1    2    0    0 -0.12761667292E+04  0.15108513888E+04 -0.72358433299E+01  0.19798801929E+04  0.92735004459E+02 0.  0.
         11    1    3    3    0    0 -0.32638552263E+03  0.34010786188E+03  0.24115761273E+02  0.47199834431E+03  0.00000000000E+00 0.  1.
        -11    1    3    3    0    0 -0.94978120656E+03  0.11707435269E+04 -0.31351604602E+02  0.15078818486E+04  0.00000000000E+00 0. -1.
         22    1    1    2    0    0  0.12761667292E+04 -0.15108513888E+04 -0.25895792194E+04  0.32584035928E+04  0.00000000000E+00 0. -1.
<mgrwt>
<rscale>  0 0.45493042E+04</rscale>
<asrwt>0</asrwt>
<pdfrwt beam="1">  1        2 0.60269991E+00 0.45493042E+04</pdfrwt>
<pdfrwt beam="2">  1       -2 0.20318990E+00 0.45493042E+04</pdfrwt>
<totfact> 0.37948550E-02</totfact>
</mgrwt>
</event>
<event>
 6    1  0.2236204E-005  0.2149683E+04  0.7818608E-02  0.8539668E-01
          1   -1    0    0  501    0  0.00000000000E+00  0.00000000000E+00  0.22985969775E+04  0.22985969775E+04  0.00000000000E+00 0. -1.
         -1   -1    0    0    0  501 -0.00000000000E+00 -0.00000000000E+00 -0.50260387980E+03  0.50260387980E+03  0.00000000000E+00 0.  1.
         23    2    1    2    0    0  0.83169383647E+03  0.48206198738E+02  0.18815316279E+02  0.83844785655E+03  0.92748675500E+02 0.  0.
         11    1    3    3    0    0  0.35924665916E+03  0.65232253824E+02 -0.40130015803E+01  0.36514314076E+03  0.00000000000E+00 0. -1.
        -11    1    3    3    0    0  0.47244717730E+03 -0.17026055086E+02  0.22828317859E+02  0.47330471579E+03  0.00000000000E+00 0.  1.
         22    1    1    2    0    0 -0.83169383647E+03 -0.48206198738E+02  0.17771777815E+04  0.19627530008E+04  0.00000000000E+00 0. -1.
<mgrwt>
<rscale>  0 0.21496825E+04</rscale>
<asrwt>0</asrwt>
<pdfrwt beam="1">  1        1 0.35363030E+00 0.21496825E+04</pdfrwt>
<pdfrwt beam="2">  1       -1 0.77323675E-01 0.21496825E+04</pdfrwt>
<totfact> 0.28638594E+00</totfact>
</mgrwt>
</event>
<event>
 6    1  0.2236204E-005  0.4953786E+04  0.7818608E-02  0.7835676E-01
         -2   -1    0    0    0  501 -0.00000000000E+00  0.00000000000E+00  0.17260102748E+04  0.17260102748E+04  0.00000000000E+00 0. -1.
          2   -1    0    0  501    0  0.00000000000E+00 -0.00000000000E+00 -0.35544389372E+04  0.35544389372E+04  0.00000000000E+00 0.  1.
         23    2    1    2    0    0 -0.50196921729E+03  0.13744336381E+04 -0.30436532096E+04  0.33783946331E+04  0.93190749750E+02 0.  0.
         13    1    3    3    0    0 -0.27541293653E+03  0.68923534103E+03 -0.14487990354E+04  0.16278563469E+04  0.00000000000E+00 0.  1.
        -13    1    3    3    0    0 -0.22655628076E+03  0.68519829710E+03 -0.15948541742E+04  0.17505382862E+04  0.00000000000E+00 0. -1.
         22    1    1    2    0    0  0.50196921729E+03 -0.13744336381E+04  0.12152245473E+04  0.19020545789E+04  0.00000000000E+00 0. -1.
<mgrwt>
<rscale>  0 0.49537857E+04</rscale>
<asrwt>0</asrwt>
<pdfrwt beam="1">  1        2 0.54683676E+00 0.49537857E+04</pdfrwt>
<pdfrwt beam="2">  1       -2 0.26554004E+00 0.49537857E+04</pdfrwt>
<totfact> 0.27999642E-02</totfact>
</mgrwt>
</event>
<event>
 6    1  0.2236204E-005  0.3219988E+04  0.7818608E-02  0.8183558E-01
          2   -1    0    0  501    0  0.00000000000E+00  0.00000000000E+00  0.15389274491E+04  0.15389274491E+04  0.00000000000E+00 0. -1.
         -2   -1    0    0    0  501 -0.00000000000E+00 -0.00000000000E+00 -0.16843424293E+04  0.16843424293E+04  0.00000000000E+00 0.  1.
         23    2    1    2    0    0 -0.77718183298E+03  0.10949411376E+04  0.81419861253E+03  0.15728863037E+04  0.90245485282E+02 0.  0.
         11    1    3    3    0    0 -0.68425409643E+03  0.10084991049E+04  0.73124318055E+03  0.14212637694E+04  0.00000000000E+00 0. -1.
        -11    1    3    3    0    0 -0.92927736555E+02  0.86442032695E+02  0.82955431980E+02  0.15162253438E+03  0.00000000000E+00 0.  1.
         22    1    1    2    0    0  0.77718183298E+03 -0.10949411376E+04 -0.95961359275E+03  0.16503835747E+04  0.00000000000E+00 0.  1.
<mgrwt>
<rscale>  0 0.32199881E+04</rscale>
<asrwt>0</asrwt>
<pdfrwt beam="1">  1        2 0.23675807E+00 0.32199881E+04</pdfrwt>
<pdfrwt beam="2">  1       -2 0.25912960E+00 0.32199881E+04</pdfrwt>
<totfact> 0.57302808E-01</totfact>
</mgrwt>
</event>
<event>
 6    1  0.2236204E-005  0.1409769E+04  0.7818608E-02  0.8946777E-01
          2   -1    0    0  501    0  0.00000000000E+00  0.00000000000E+00  0.43065990777E+03  0.43065990777E+03  0.00000000000E+00 0. -1.
         -2   -1    0    0    0  501 -0.00000000000E+00 -0.00000000000E+00 -0.11537229675E+04  0.11537229675E+04  0.00000000000E+00 0.  1.
         23    2    1    2    0    0 -0.67822914988E+03  0.16944323919E+03 -0.29268292859E+03  0.76344874373E+03  0.92113498219E+02 0.  0.
         11    1    3    3    0    0 -0.59331909980E+03  0.15275803595E+03 -0.22177123782E+03  0.65157121918E+03  0.00000000000E+00 0.  1.
        -11    1    3    3    0    0 -0.84910050081E+02  0.16685203236E+02 -0.70911690764E+02  0.11187752455E+03  0.00000000000E+00 0. -1.
         22    1    1    2    0    0  0.67822914988E+03 -0.16944323919E+03 -0.43038013117E+03  0.82093413156E+03  0.00000000000E+00 0.  1.
<mgrwt>
<rscale>  0 0.14097691E+04</rscale>
<asrwt>0</asrwt>
<pdfrwt beam="1">  1        2 0.66255371E-01 0.14097691E+04</pdfrwt>
<pdfrwt beam="2">  1       -2 0.17749584E+00 0.14097691E+04</pdfrwt>
<totfact> 0.13408096E+01</totfact>
</mgrwt>
</event>
<event>
 6    1  0.2236204E-005  0.2558539E+04  0.7818608E-02  0.8382423E-01
          2   -1    0    0  501    0  0.00000000000E+00  0.00000000000E+00  0.23175983552E+04  0.23175983552E+04  0.00000000000E+00 0. -1.
         -2   -1    0    0    0  501 -0.00000000000E+00 -0.00000000000E+00 -0.70613179495E+03  0.70613179495E+03  0.00000000000E+00 0.  1.
         23    2    1    2    0    0 -0.12064570097E+04  0.38850546329E+03  0.99789384003E+03  0.16155588202E+04  0.88108877733E+02 0.  0.
         11    1    3    3    0    0 -0.77852374799E+03  0.23908361281E+03  0.58861774063E+03  0.10048537429E+04  0.00000000000E+00 0. -1.
        -11    1    3    3    0    0 -0.42793326175E+03  0.14942185048E+03  0.40927609940E+03  0.61070507731E+03  0.00000000000E+00 0.  1.
         22    1    1    2    0    0  0.12064570097E+04 -0.38850546329E+03  0.61357272020E+03  0.14081713299E+04  0.00000000000E+00 0.  1.
<mgrwt>
<rscale>  0 0.25585386E+04</rscale>
<asrwt>0</asrwt>
<pdfrwt beam="1">  1        2 0.35655359E+00 0.25585386E+04</pdfrwt>
<pdfrwt beam="2">  1       -2 0.10863566E+00 0.25585386E+04</pdfrwt>
<totfact> 0.26624780E+00</totfact>
</mgrwt>
</event>
<event>
 6    1  0.2236204E-005  0.3279344E+04  0.7818608E-02  0.8168171E-01
          2   -1    0    0  501    0  0.00000000000E+00  0.00000000000E+00  0.17651994855E+04  0.17651994855E+04  0.00000000000E+00 0. -1.
         -2   -1    0    0    0  501 -0.00000000000E+00 -0.00000000000E+00 -0.15230707830E+04  0.15230707830E+04  0.00000000000E+00 0.  1.
         23    2    1    2    0    0 -0.12006313076E+04 -0.71713526314E+03 -0.73480305017E+03  0.15823411457E+04  0.89830153597E+02 0.  0.
         13    1    3    3    0    0 -0.43607348563E+03 -0.22002528557E+03 -0.28472276699E+03  0.56536560313E+03  0.00000000000E+00 0.  1.
        -13    1    3    3    0    0 -0.76455782199E+03 -0.49710997757E+03 -0.45008028318E+03  0.10169755426E+04  0.00000000000E+00 0. -1.
         22    1    1    2    0    0  0.12006313076E+04  0.71713526314E+03  0.97693175264E+03  0.17059291227E+04  0.00000000000E+00 0. -1.
<mgrwt>
<rscale>  0 0.32793437E+04</rscale>
<asrwt>0</asrwt>
<pdfrwt beam="1">  1        2 0.27156915E+00 0.32793437E+04</pdfrwt>
<pdfrwt beam="2">  1       -2 0.23431858E+00 0.32793437E+04</pdfrwt>
<totfact> 0.60646928E-01</totfact>
</mgrwt>
</event>
<event>
 6    1  0.2236204E-005  0.1002551E+04  0.7818608E-02  0.9305751E-01
          2   -1    0    0  501    0  0.00000000000E+00  0.00000000000E+00  0.16729829634E+04  0.16729829634E+04  0.00000000000E+00 0. -1.
         -2   -1    0    0    0  501 -0.00000000000E+00 -0.00000000000E+00 -0.15019711876E+03  0.15019711876E+03  0.00000000000E+00 0.  1.
         23    2    1    2    0    0 -0.58573873613E+02  0.49259853131E+03  0.74981163958E+03  0.90471759877E+03  0.10105556367E+03 0.  0.
         11    1    3    3    0    0 -0.87123053291E+02  0.36298552435E+03  0.56529830695E+03  0.67742976990E+03  0.00000000000E+00 0. -1.
        -11    1    3    3    0    0  0.28549179678E+02  0.12961300696E+03  0.18451333263E+03  0.22728782887E+03  0.00000000000E+00 0.  1.
         22    1    1    2    0    0  0.58573873613E+02 -0.49259853131E+03  0.77297420508E+03  0.91846248341E+03  0.00000000000E+00 0.  1.
<mgrwt>
<rscale>  0 0.10025512E+04</rscale>
<asrwt>0</asrwt>
<pdfrwt beam="1">  1        2 0.25738198E+00 0.10025512E+04</pdfrwt>
<pdfrwt beam="2">  1       -2 0.23107250E-01 0.10025512E+04</pdfrwt>
<totfact> 0.16763969E+02</totfact>
</mgrwt>
</event>
<event>
 6    1  0.2236204E-005  0.9657035E+03  0.7818608E-02  0.9346982E-01
         -2   -1    0    0    0  501 -0.00000000000E+00  0.00000000000E+00  0.68802267515E+02  0.68802267515E+02  0.00000000000E+00 0.  1.
          2   -1    0    0  501    0  0.00000000000E+00 -0.00000000000E+00 -0.33886358118E+04  0.33886358118E+04  0.00000000000E+00 0. -1.
         23    2    1    2    0    0 -0.79360463197E+01 -0.45230610712E+03 -0.11144849051E+04  0.12061703441E+04  0.90147101305E+02 0.  0.
         13    1    3    3    0    0 -0.17938680156E+02 -0.39878784039E+02 -0.63356300129E+02  0.76981390142E+02  0.00000000000E+00 0. -1.
        -13    1    3    3    0    0  0.10002633836E+02 -0.41242732308E+03 -0.10511286050E+04  0.11291889540E+04  0.00000000000E+00 0.  1.
         22    1    1    2    0    0  0.79360463197E+01  0.45230610712E+03 -0.22053486392E+04  0.22512677352E+04  0.00000000000E+00 0. -1.
<mgrwt>
<rscale>  0 0.96570353E+03</rscale>
<asrwt>0</asrwt>
<pdfrwt beam="1">  1        2 0.52132850E+00 0.96570353E+03</pdfrwt>
<pdfrwt beam="2">  1       -2 0.10584966E-01 0.96570353E+03</pdfrwt>
<totfact> 0.63249538E+01</totfact>
</mgrwt>
</event>
<event>
 6    1  0.2236204E-005  0.7579777E+03  0.7818608E-02  0.9622917E-01
          2   -1    0    0  501    0  0.00000000000E+00  0.00000000000E+00  0.37312191090E+03  0.37312191090E+03  0.00000000000E+00 0. -1.
         -2   -1    0    0    0  501 -0.00000000000E+00 -0.00000000000E+00 -0.38494806856E+03  0.38494806856E+03  0.00000000000E+00 0.  1.
         23    2    1    2    0    0  0.18706478341E+03 -0.27582962529E+03  0.16300209480E+03  0.38171890236E+03  0.89802127623E+02 0.  0.
         13    1    3    3    0    0  0.14750577039E+03 -0.17990700385E+03  0.15079680781E+03  0.27724386302E+03  0.00000000000E+00 0.  1.
        -13    1    3    3    0    0  0.39559013026E+02 -0.95922621435E+02  0.12205286986E+02  0.10447503934E+03  0.00000000000E+00 0. -1.
         22    1    1    2    0    0 -0.18706478341E+03  0.27582962529E+03 -0.17482825245E+03  0.37635107710E+03  0.00000000000E+00 0.  1.
<mgrwt>
<rscale>  0 0.75797773E+03</rscale>
<asrwt>0</asrwt>
<pdfrwt beam="1">  1        2 0.57403371E-01 0.75797773E+03</pdfrwt>
<pdfrwt beam="2">  1       -2 0.59222780E-01 0.75797773E+03</pdfrwt>
<totfact> 0.23096628E+02</totfact>
</mgrwt>
</event>
<event>
 6    1  0.2236204E-005  0.1602300E+04  0.7818608E-02  0.8819136E-01
          2   -1    0    0  501    0  0.00000000000E+00  0.00000000000E+00  0.33754757508E+04  0.33754757508E+04  0.00000000000E+00 0. -1.
         -2   -1    0    0    0  501 -0.00000000000E+00 -0.00000000000E+00 -0.19014847016E+03  0.19014847016E+03  0.00000000000E+00 0.  1.
         23    2    1    2    0    0  0.73775610628E+03  0.14715137209E+03  0.21936316613E+04  0.23208761340E+04  0.92241883443E+02 0.  0.
         13    1    3    3    0    0  0.25668473102E+03  0.96256142619E+02  0.80288632172E+03  0.84839774972E+03  0.00000000000E+00 0. -1.
        -13    1    3    3    0    0  0.48107137526E+03  0.50895229472E+02  0.13907453396E+04  0.14724783843E+04  0.00000000000E+00 0.  1.
         22    1    1    2    0    0 -0.73775610628E+03 -0.14715137209E+03  0.99169561932E+03  0.12447480870E+04  0.00000000000E+00 0.  1.
<mgrwt>
<rscale>  0 0.16023003E+04</rscale>
<asrwt>0</asrwt>
<pdfrwt beam="1">  1        2 0.51930391E+00 0.16023003E+04</pdfrwt>
<pdfrwt beam="2">  1       -2 0.29253613E-01 0.16023003E+04</pdfrwt>
<totfact> 0.10314031E+01</totfact>
</mgrwt>
</event>
<event>
 6    1  0.2236204E-005  0.5522823E+04  0.7818608E-02  0.7752556E-01
         -2   -1    0    0    0  501 -0.00000000000E+00  0.00000000000E+00  0.19520600922E+04  0.19520600922E+04  0.00000000000E+00 0.  1.
          2   -1    0    0  501    0  0.00000000000E+00 -0.00000000000E+00 -0.39063315929E+04  0.39063315929E+04  0.00000000000E+00 0. -1.
         23    2    1    2    0    0  0.25691656433E+04 -0.98034142816E+03 -0.12363406677E+04  0.30163666852E+04  0.90820232715E+02 0.  0.
         13    1    3    3    0    0  0.11222697495E+04 -0.46526741922E+03 -0.51435978758E+03  0.13192911556E+04  0.00000000000E+00 0. -1.
        -13    1    3    3    0    0  0.14468958938E+04 -0.51507400894E+03 -0.72198088009E+03  0.16970755296E+04  0.00000000000E+00 0.  1.
         22    1    1    2    0    0 -0.25691656433E+04  0.98034142816E+03 -0.71793083302E+03  0.28420249998E+04  0.00000000000E+00 0.  1.
<mgrwt>
<rscale>  0 0.55228232E+04</rscale>
<asrwt>0</asrwt>
<pdfrwt beam="1">  1        2 0.60097408E+00 0.55228232E+04</pdfrwt>
<pdfrwt beam="2">  1       -2 0.30031694E+00 0.55228232E+04</pdfrwt>
<totfact> 0.89431143E-03</totfact>
</mgrwt>
</event>
<event>
 6    1  0.2236204E-005  0.2891933E+04  0.7818608E-02  0.8275282E-01
         -2   -1    0    0    0  501 -0.00000000000E+00  0.00000000000E+00  0.13229935881E+04  0.13229935881E+04  0.00000000000E+00 0.  1.
          2   -1    0    0  501    0  0.00000000000E+00 -0.00000000000E+00 -0.15803701951E+04  0.15803701951E+04  0.00000000000E+00 0. -1.
         23    2    1    2    0    0  0.26715684219E+02 -0.97852070686E+03  0.93781123332E+03  0.13584720474E+04  0.87976660584E+02 0.  0.
         13    1    3    3    0    0 -0.31599465425E+02 -0.38670903560E+03  0.35852026230E+03  0.52827945532E+03  0.00000000000E+00 0. -1.
        -13    1    3    3    0    0  0.58315149644E+02 -0.59181167125E+03  0.57929097102E+03  0.83019259212E+03  0.00000000000E+00 0.  1.
         22    1    1    2    0    0 -0.26715684219E+02  0.97852070686E+03 -0.11951878404E+04  0.15448917358E+04  0.00000000000E+00 0. -1.
<mgrwt>
<rscale>  0 0.28919334E+04</rscale>
<asrwt>0</asrwt>
<pdfrwt beam="1">  1        2 0.24313388E+00 0.28919334E+04</pdfrwt>
<pdfrwt beam="2">  1       -2 0.20353747E+00 0.28919334E+04</pdfrwt>
<totfact> 0.12457218E+00</totfact>
</mgrwt>
</event>
<event>
 6    1  0.2236204E-005  0.2295616E+04  0.7818608E-02  0.8479652E-01
          2   -1    0    0  501    0  0.00000000000E+00  0.00000000000E+00  0.24588740299E+04  0.24588740299E+04  0.00000000000E+00 0. -1.
         -2   -1    0    0    0  501 -0.00000000000E+00 -0.00000000000E+00 -0.53579939838E+03  0.53579939838E+03  0.00000000000E+00 0.  1.
         23    2    1    2    0    0 -0.28789926767E+03  0.11132232488E+03  0.24027673401E+04  0.24242492501E+04  0.91732695222E+02 0.  0.
         13    1    3    3    0    0 -0.17816458695E+03  0.10677746863E+03  0.13696550341E+04  0.13853154732E+04  0.00000000000E+00 0.  1.
        -13    1    3    3    0    0 -0.10973468072E+03  0.45448562484E+01  0.10331123061E+04  0.10389337769E+04  0.00000000000E+00 0. -1.
         22    1    1    2    0    0  0.28789926767E+03 -0.11132232488E+03 -0.47969270863E+03  0.57042417819E+03  0.00000000000E+00 0.  1.
<mgrwt>
<rscale>  0 0.22956160E+04</rscale>
<asrwt>0</asrwt>
<pdfrwt beam="1">  1        2 0.37828831E+00 0.22956160E+04</pdfrwt>
<pdfrwt beam="2">  1       -2 0.82430678E-01 0.22956160E+04</pdfrwt>
<totfact> 0.43083922E+00</totfact>
</mgrwt>
</event>
<event>
 6    1  0.2236204E-005  0.1522970E+04  0.7818608E-02  0.8869320E-01
          2   -1    0    0  501    0  0.00000000000E+00  0.00000000000E+00  0.20216176866E+04  0.20216176866E+04  0.00000000000E+00 0.  1.
         -2   -1    0    0    0  501 -0.00000000000E+00 -0.00000000000E+00 -0.28682948959E+03  0.28682948959E+03  0.00000000000E+00 0. -1.
         23    2    1    2    0    0  0.68911095738E+03  0.22648374212E+03  0.12083958235E+04  0.14122007102E+04  0.89003272070E+02 0.  0.
         13    1    3    3    0    0  0.12300714285E+03  0.76306659587E+02  0.22176379256E+03  0.26482568452E+03  0.00000000000E+00 0. -1.
        -13    1    3    3    0    0  0.56610381453E+03  0.15017708253E+03  0.98663203096E+03  0.11473750256E+04  0.00000000000E+00 0.  1.
         22    1    1    2    0    0 -0.68911095738E+03 -0.22648374212E+03  0.52639237348E+03  0.89624646603E+03  0.00000000000E+00 0. -1.
<mgrwt>
<rscale>  0 0.15229702E+04</rscale>
<asrwt>0</asrwt>
<pdfrwt beam="1">  1        2 0.31101810E+00 0.15229702E+04</pdfrwt>
<pdfrwt beam="2">  1       -2 0.44127615E-01 0.15229702E+04</pdfrwt>
<totfact> 0.30537998E+01</totfact>
</mgrwt>
</event>
<event>
 6    1  0.2236204E-005  0.3722968E+04  0.7818608E-02  0.8062891E-01
          1   -1    0    0  501    0  0.00000000000E+00  0.00000000000E+00  0.24531909996E+04  0.24531909996E+04  0.00000000000E+00 0. -1.
         -1   -1    0    0    0  501 -0.00000000000E+00 -0.00000000000E+00 -0.14124957994E+04  0.14124957994E+04  0.00000000000E+00 0.  1.
         23    2    1    2    0    0  0.11751254310E+04  0.79019453497E+03  0.17734485831E+04  0.22712418480E+04  0.89958176408E+02 0.  0.
         11    1    3    3    0    0  0.96538908960E+03  0.65604134899E+03  0.14053007458E+04  0.18268104806E+04  0.00000000000E+00 0. -1.
        -11    1    3    3    0    0  0.20973634139E+03  0.13415318598E+03  0.36814783725E+03  0.44443136735E+03  0.00000000000E+00 0.  1.
         22    1    1    2    0    0 -0.11751254310E+04 -0.79019453497E+03 -0.73275338291E+03  0.15944449510E+04  0.00000000000E+00 0. -1.
<mgrwt>
<rscale>  0 0.37229676E+04</rscale>
<asrwt>0</asrwt>
<pdfrwt beam="1">  1        1 0.37741400E+00 0.37229676E+04</pdfrwt>
<pdfrwt beam="2">  1       -1 0.21730705E+00 0.37229676E+04</pdfrwt>
<totfact> 0.13411869E-01</totfact>
</mgrwt>
</event>
<event>
 6    1  0.2236204E-005  0.1920424E+04  0.7818608E-02  0.8644756E-01
          2   -1    0    0  501    0  0.00000000000E+00  0.00000000000E+00  0.33380350446E+04  0.33380350446E+04  0.00000000000E+00 0. -1.
         -2   -1    0    0    0  501 -0.00000000000E+00 -0.00000000000E+00 -0.27621256694E+03  0.27621256694E+03  0.00000000000E+00 0.  1.
         23    2    1    2    0    0 -0.76227646093E+03  0.52733659026E+03  0.10783441843E+04  0.14248788846E+04  0.91128336181E+02 0.  0.
         11    1    3    3    0    0 -0.44876081685E+03  0.36417263903E+03  0.67144213061E+03  0.88591337980E+03  0.00000000000E+00 0.  1.
        -11    1    3    3    0    0 -0.31351564408E+03  0.16316395122E+03  0.40690205368E+03  0.53896550479E+03  0.00000000000E+00 0. -1.
         22    1    1    2    0    0  0.76227646093E+03 -0.52733659026E+03  0.19834782934E+04  0.21893687270E+04  0.00000000000E+00 0.  1.
<mgrwt>
<rscale>  0 0.19204241E+04</rscale>
<asrwt>0</asrwt>
<pdfrwt beam="1">  1        2 0.51354383E+00 0.19204241E+04</pdfrwt>
<pdfrwt beam="2">  1       -2 0.42494243E-01 0.19204241E+04</pdfrwt>
<totfact> 0.51824044E+00</totfact>
</mgrwt>
</event>
<event>
 6    1  0.2236204E-005  0.7884970E+03  0.7818608E-02  0.9576818E-01
         -2   -1    0    0    0  501 -0.00000000000E+00  0.00000000000E+00  0.94871303532E+02  0.94871303532E+02  0.00000000000E+00 0.  1.
          2   -1    0    0  501    0  0.00000000000E+00 -0.00000000000E+00 -0.16383447143E+04  0.16383447143E+04  0.00000000000E+00 0. -1.
         23    2    1    2    0    0  0.29741332174E+03 -0.19152000565E+03 -0.11428735480E+04  0.11987865589E+04  0.76122733970E+02 0.  0.
         11    1    3    3    0    0  0.13948242444E+03 -0.62951060868E+02 -0.59255578396E+03  0.61199717312E+03  0.00000000000E+00 0. -1.
        -11    1    3    3    0    0  0.15793089730E+03 -0.12856894478E+03 -0.55031776403E+03  0.58678938581E+03  0.00000000000E+00 0.  1.
         22    1    1    2    0    0 -0.29741332174E+03  0.19152000565E+03 -0.40059986282E+03  0.53442945896E+03  0.00000000000E+00 0.  1.
<mgrwt>
<rscale>  0 0.78849705E+03</rscale>
<asrwt>0</asrwt>
<pdfrwt beam="1">  1        2 0.25205301E+00 0.78849705E+03</pdfrwt>
<pdfrwt beam="2">  1       -2 0.14595587E-01 0.78849705E+03</pdfrwt>
<totfact> 0.39447210E+02</totfact>
</mgrwt>
</event>
<event>
 6    1  0.2236204E-005  0.1039226E+04  0.7818608E-02  0.9266538E-01
         -2   -1    0    0    0  501 -0.00000000000E+00  0.00000000000E+00  0.25092597289E+03  0.25092597289E+03  0.00000000000E+00 0.  1.
          2   -1    0    0  501    0  0.00000000000E+00 -0.00000000000E+00 -0.10760062713E+04  0.10760062713E+04  0.00000000000E+00 0. -1.
         23    2    1    2    0    0 -0.30874590827E+03  0.23474642387E+03 -0.84977798570E+03  0.93829372939E+03  0.88558332351E+02 0.  0.
         13    1    3    3    0    0 -0.17082320805E+03  0.77647658874E+02 -0.36664514759E+03  0.41187181451E+03  0.00000000000E+00 0. -1.
        -13    1    3    3    0    0 -0.13792270022E+03  0.15709876499E+03 -0.48313283811E+03  0.52642191488E+03  0.00000000000E+00 0.  1.
         22    1    1    2    0    0  0.30874590827E+03 -0.23474642387E+03  0.24697687344E+02  0.38863851476E+03  0.00000000000E+00 0.  1.
<mgrwt>
<rscale>  0 0.10392265E+04</rscale>
<asrwt>0</asrwt>
<pdfrwt beam="1">  1        2 0.16553943E+00 0.10392265E+04</pdfrwt>
<pdfrwt beam="2">  1       -2 0.38603996E-01 0.10392265E+04</pdfrwt>
<totfact> 0.14226626E+02</totfact>
</mgrwt>
</event>
<event>
 6    1  0.2236204E-005  0.3153649E+04  0.7818608E-02  0.8201167E-01
          2   -1    0    0  501    0  0.00000000000E+00  0.00000000000E+00  0.17345334951E+04  0.17345334951E+04  0.00000000000E+00 0. -1.
         -2   -1    0    0    0  501 -0.00000000000E+00 -0.00000000000E+00 -0.14334547854E+04  0.14334547854E+04  0.00000000000E+00 0.  1.
         23    2    1    2    0    0 -0.10046365987E+04 -0.12130638821E+04  0.11306617762E+03  0.15817451119E+04  0.91186407918E+02 0.  0.
         13    1    3    3    0    0 -0.17570860948E+03 -0.26969266334E+03  0.21910370715E+02  0.32262627365E+03  0.00000000000E+00 0.  1.
        -13    1    3    3    0    0 -0.82892798923E+03 -0.94337121875E+03  0.91155806905E+02  0.12591188383E+04  0.00000000000E+00 0. -1.
         22    1    1    2    0    0  0.10046365987E+04  0.12130638821E+04  0.18801253205E+03  0.15862431685E+04  0.00000000000E+00 0. -1.
<mgrwt>
<rscale>  0 0.31536489E+04</rscale>
<asrwt>0</asrwt>
<pdfrwt beam="1">  1        2 0.26685131E+00 0.31536489E+04</pdfrwt>
<pdfrwt beam="2">  1       -2 0.22053151E+00 0.31536489E+04</pdfrwt>
<totfact> 0.77785823E-01</totfact>
</mgrwt>
</event>
<event>
 6    1  0.2236204E-005  0.1169396E+04  0.7818608E-02  0.9140074E-01
          1   -1    0    0  501    0  0.00000000000E+00  0.00000000000E+00  0.27538258408E+04  0.27538258408E+04  0.00000000000E+00 0. -1.
         -1   -1    0    0    0  501 -0.00000000000E+00 -0.00000000000E+00 -0.12414423354E+03  0.12414423354E+03  0.00000000000E+00 0.  1.
         23    2    1    2    0    0  0.22516912628E+03  0.51898618984E+03  0.16543387624E+04  0.17504322853E+04  0.84431297437E+02 0.  0.
         11    1    3    3    0    0  0.12894274795E+03  0.22570635583E+03  0.85192118820E+03  0.89069596508E+03  0.00000000000E+00 0. -1.
        -11    1    3    3    0    0  0.96226378324E+02  0.29327983401E+03  0.80241757415E+03  0.85973632018E+03  0.00000000000E+00 0.  1.
         22    1    1    2    0    0 -0.22516912628E+03 -0.51898618984E+03  0.97534284490E+03  0.11275377891E+04  0.00000000000E+00 0.  1.
<mgrwt>
<rscale>  0 0.11693957E+04</rscale>
<asrwt>0</asrwt>
<pdfrwt beam="1">  1        1 0.42366547E+00 0.11693957E+04</pdfrwt>
<pdfrwt beam="2">  1       -1 0.19099115E-01 0.11693957E+04</pdfrwt>
<totfact> 0.19905030E+01</totfact>
</mgrwt>
</event>
<event>
 6    1  0.2236204E-005  0.4289883E+04  0.7818608E-02  0.7948491E-01
          2   -1    0    0  501    0  0.00000000000E+00  0.00000000000E+00  0.27133461008E+04  0.27133461008E+04  0.00000000000E+00 0. -1.
         -2   -1    0    0    0  501 -0.00000000000E+00 -0.00000000000E+00 -0.16956089449E+04  0.16956089449E+04  0.00000000000E+00 0.  1.
         23    2    1    2    0    0 -0.14102928526E+04 -0.62713503358E+03 -0.10206420005E+04  0.18521574657E+04  0.80950009735E+02 0.  0.
         11    1    3    3    0    0 -0.11649967533E+04 -0.52652459095E+03 -0.87990358439E+03  0.15519909465E+04  0.00000000000E+00 0.  1.
        -11    1    3    3    0    0 -0.24529609922E+03 -0.10061044263E+03 -0.14073841611E+03  0.30016651917E+03  0.00000000000E+00 0. -1.
         22    1    1    2    0    0  0.14102928526E+04  0.62713503358E+03  0.20383791564E+04  0.25567975801E+04  0.00000000000E+00 0. -1.
<mgrwt>
<rscale>  0 0.42898829E+04</rscale>
<asrwt>0</asrwt>
<pdfrwt beam="1">  1        2 0.41743786E+00 0.42898829E+04</pdfrwt>
<pdfrwt beam="2">  1       -2 0.26086291E+00 0.42898829E+04</pdfrwt>
<totfact> 0.11073455E-01</totfact>
</mgrwt>
</event>
<event>
 6    1  0.2236204E-005  0.3926023E+04  0.7818608E-02  0.8019639E-01
          2   -1    0    0  501    0  0.00000000000E+00  0.00000000000E+00  0.16204576950E+04  0.16204576950E+04  0.00000000000E+00 0.  1.
         -2   -1    0    0    0  501 -0.00000000000E+00 -0.00000000000E+00 -0.23779791042E+04  0.23779791042E+04  0.00000000000E+00 0. -1.
         23    2    1    2    0    0 -0.16303239903E+04  0.82770802744E+03 -0.11037237901E+04  0.21375464262E+04  0.88552962908E+02 0.  0.
         11    1    3    3    0    0 -0.17559667190E+03  0.79028065604E+02 -0.87142949335E+02  0.21136111268E+03  0.00000000000E+00 0.  1.
        -11    1    3    3    0    0 -0.14547273184E+04  0.74867996184E+03 -0.10165808408E+04  0.19261853135E+04  0.00000000000E+00 0. -1.
         22    1    1    2    0    0  0.16303239903E+04 -0.82770802744E+03  0.34620238092E+03  0.18608903730E+04  0.00000000000E+00 0.  1.
<mgrwt>
<rscale>  0 0.39260232E+04</rscale>
<asrwt>0</asrwt>
<pdfrwt beam="1">  1        2 0.24930118E+00 0.39260232E+04</pdfrwt>
<pdfrwt beam="2">  1       -2 0.36584294E+00 0.39260232E+04</pdfrwt>
<totfact> 0.10635169E-01</totfact>
</mgrwt>
</event>
<event>
 6    1  0.2236204E-005  0.6175105E+03  0.7818608E-02  0.9869729E-01
         -2   -1    0    0    0  501 -0.00000000000E+00  0.00000000000E+00  0.81091851959E+02  0.81091851959E+02  0.00000000000E+00 0.  1.
          2   -1    0    0  501    0  0.00000000000E+00 -0.00000000000E+00 -0.11755782619E+04  0.11755782619E+04  0.00000000000E+00 0. -1.
         23    2    1    2    0    0 -0.20334727576E+03 -0.16068173984E+03 -0.24276145082E+03  0.36638693303E+03  0.90208240258E+02 0.  0.
         11    1    3    3    0    0 -0.10263447367E+03 -0.13311424109E+03 -0.12832987888E+03  0.21147528030E+03  0.00000000000E+00 0. -1.
        -11    1    3    3    0    0 -0.10071280209E+03 -0.27567498754E+02 -0.11443157194E+03  0.15491165272E+03  0.00000000000E+00 0.  1.
         22    1    1    2    0    0  0.20334727576E+03  0.16068173984E+03 -0.85172495910E+03  0.89028318081E+03  0.00000000000E+00 0. -1.
<mgrwt>
<rscale>  0 0.61751055E+03</rscale>
<asrwt>0</asrwt>
<pdfrwt beam="1">  1        2 0.18085819E+00 0.61751055E+03</pdfrwt>
<pdfrwt beam="2">  1       -2 0.12475670E-01 0.61751055E+03</pdfrwt>
<totfact> 0.94516737E+02</totfact>
</mgrwt>
</event>
<event>
 6    1  0.2236204E-005  0.3084419E+04  0.7818608E-02  0.8220027E-01
          1   -1    0    0  501    0  0.00000000000E+00  0.00000000000E+00  0.25975746114E+04  0.25975746114E+04  0.00000000000E+00 0.  1.
         -1   -1    0    0    0  501 -0.00000000000E+00 -0.00000000000E+00 -0.91562753112E+03  0.91562753112E+03  0.00000000000E+00 0. -1.
         23    2    1    2    0    0 -0.13433940195E+04 -0.40426825945E+03  0.11588040366E+03  0.14106548415E+04  0.91534129354E+02 0.  0.
         11    1    3    3    0    0 -0.97667270396E+03 -0.25588189679E+03  0.10247317796E+03  0.10148230722E+04  0.00000000000E+00 0.  1.
        -11    1    3    3    0    0 -0.36672131553E+03 -0.14838636266E+03  0.13407225695E+02  0.39583176930E+03  0.00000000000E+00 0. -1.
         22    1    1    2    0    0  0.13433940195E+04  0.40426825945E+03  0.15660666766E+04  0.21025473010E+04  0.00000000000E+00 0.  1.
<mgrwt>
<rscale>  0 0.30844194E+04</rscale>
<asrwt>0</asrwt>
<pdfrwt beam="1">  1        1 0.39962686E+00 0.30844194E+04</pdfrwt>
<pdfrwt beam="2">  1       -1 0.14086577E+00 0.30844194E+04</pdfrwt>
<totfact> 0.40349064E-01</totfact>
</mgrwt>
</event>
<event>
 6    1  0.2236204E-005  0.1839810E+04  0.7818608E-02  0.8685411E-01
         -2   -1    0    0    0  501 -0.00000000000E+00  0.00000000000E+00  0.10697207254E+04  0.10697207254E+04  0.00000000000E+00 0. -1.
          2   -1    0    0  501    0  0.00000000000E+00 -0.00000000000E+00 -0.79107134030E+03  0.79107134030E+03  0.00000000000E+00 0.  1.
         23    2    1    2    0    0  0.61846643648E+03  0.53122976232E+03  0.56565103196E+03  0.99645663389E+03  0.90878709553E+02 0.  0.
         13    1    3    3    0    0  0.20619150365E+03  0.22214782103E+03  0.24329812586E+03  0.38866253822E+03  0.00000000000E+00 0.  1.
        -13    1    3    3    0    0  0.41227493283E+03  0.30908194129E+03  0.32235290610E+03  0.60779409568E+03  0.00000000000E+00 0. -1.
         22    1    1    2    0    0 -0.61846643648E+03 -0.53122976232E+03 -0.28700164683E+03  0.86433543183E+03  0.00000000000E+00 0.  1.
<mgrwt>
<rscale>  0 0.18398102E+04</rscale>
<asrwt>0</asrwt>
<pdfrwt beam="1">  1        2 0.12170328E+00 0.18398102E+04</pdfrwt>
<pdfrwt beam="2">  1       -2 0.16457242E+00 0.18398102E+04</pdfrwt>
<totfact> 0.76687037E+00</totfact>
</mgrwt>
</event>
<event>
 6    1  0.2236204E-005  0.1402897E+04  0.7818608E-02  0.8951724E-01
         -2   -1    0    0    0  501 -0.00000000000E+00  0.00000000000E+00  0.17311317133E+03  0.17311317133E+03  0.00000000000E+00 0.  1.
          2   -1    0    0  501    0  0.00000000000E+00 -0.00000000000E+00 -0.28422464441E+04  0.28422464441E+04  0.00000000000E+00 0. -1.
         23    2    1    2    0    0 -0.66447276737E+03  0.26340162912E+02 -0.17911111100E+04  0.19139329129E+04  0.11332397755E+03 0.  0.
         13    1    3    3    0    0 -0.15018621900E+03  0.18574072545E+02 -0.55062195526E+03  0.57103890775E+03  0.00000000000E+00 0. -1.
        -13    1    3    3    0    0 -0.51428654837E+03  0.77660903666E+01 -0.12404891547E+04  0.13428940051E+04  0.00000000000E+00 0.  1.
         22    1    1    2    0    0  0.66447276737E+03 -0.26340162912E+02 -0.87802216275E+03  0.11014267025E+04  0.00000000000E+00 0. -1.
<mgrwt>
<rscale>  0 0.14028974E+04</rscale>
<asrwt>0</asrwt>
<pdfrwt beam="1">  1        2 0.43726863E+00 0.14028974E+04</pdfrwt>
<pdfrwt beam="2">  1       -2 0.26632799E-01 0.14028974E+04</pdfrwt>
<totfact> 0.27305251E+01</totfact>
</mgrwt>
</event>
<event>
 6    1  0.2236204E-005  0.1469138E+04  0.7818608E-02  0.8905239E-01
          2   -1    0    0  501    0  0.00000000000E+00  0.00000000000E+00  0.67132006871E+03  0.67132006871E+03  0.00000000000E+00 0. -1.
         -2   -1    0    0    0  501 -0.00000000000E+00 -0.00000000000E+00 -0.80377698940E+03  0.80377698940E+03  0.00000000000E+00 0.  1.
         23    2    1    2    0    0 -0.62887195992E+03 -0.31978634708E+02 -0.44056024057E+03  0.77407620908E+03  0.92725815363E+02 0.  0.
         13    1    3    3    0    0 -0.19829807662E+03  0.56829696308E+01 -0.18890594943E+03  0.27393408161E+03  0.00000000000E+00 0. -1.
        -13    1    3    3    0    0 -0.43057388330E+03 -0.37661604339E+02 -0.25165429114E+03  0.50014212747E+03  0.00000000000E+00 0.  1.
         22    1    1    2    0    0  0.62887195992E+03  0.31978634708E+02  0.30810331988E+03  0.70102084903E+03  0.00000000000E+00 0. -1.
<mgrwt>
<rscale>  0 0.14691380E+04</rscale>
<asrwt>0</asrwt>
<pdfrwt beam="1">  1        2 0.10328001E+00 0.14691380E+04</pdfrwt>
<pdfrwt beam="2">  1       -2 0.12365800E+00 0.14691380E+04</pdfrwt>
<totfact> 0.20601119E+01</totfact>
</mgrwt>
</event>
<event>
 6    1  0.2236204E-005  0.1702175E+04  0.7818608E-02  0.8760125E-01
         -2   -1    0    0    0  501 -0.00000000000E+00  0.00000000000E+00  0.32192752342E+03  0.32192752342E+03  0.00000000000E+00 0.  1.
          2   -1    0    0  501    0  0.00000000000E+00 -0.00000000000E+00 -0.22500408236E+04  0.22500408236E+04  0.00000000000E+00 0. -1.
         23    2    1    2    0    0  0.16176062253E+03 -0.22681854643E+03 -0.21780740022E+04  0.21976776785E+04  0.90375148945E+02 0.  0.
         13    1    3    3    0    0  0.11784048810E+03 -0.13478764074E+03 -0.16627509920E+04  0.16723620870E+04  0.00000000000E+00 0. -1.
        -13    1    3    3    0    0  0.43920134432E+02 -0.92030905688E+02 -0.51532301021E+03  0.52531559149E+03  0.00000000000E+00 0.  1.
         22    1    1    2    0    0 -0.16176062253E+03  0.22681854643E+03  0.24996070200E+03  0.37429066853E+03  0.00000000000E+00 0.  1.
<mgrwt>
<rscale>  0 0.17021752E+04</rscale>
<asrwt>0</asrwt>
<pdfrwt beam="1">  1        2 0.34616011E+00 0.17021752E+04</pdfrwt>
<pdfrwt beam="2">  1       -2 0.49527313E-01 0.17021752E+04</pdfrwt>
<totfact> 0.17774089E+01</totfact>
</mgrwt>
</event>
<event>
 6    1  0.2236204E-005  0.4304157E+03  0.7818608E-02  0.1033729E+00
         -2   -1    0    0    0  501 -0.00000000000E+00  0.00000000000E+00  0.33868374473E+02  0.33868374473E+02  0.00000000000E+00 0.  1.
          2   -1    0    0  501    0  0.00000000000E+00 -0.00000000000E+00 -0.13674828978E+04  0.13674828978E+04  0.00000000000E+00 0. -1.
         23    2    1    2    0    0 -0.37115249307E+02 -0.13737176985E+03 -0.11809755108E+04  0.11926715823E+04  0.86682184369E+02 0.  0.
         13    1    3    3    0    0 -0.47425483945E+02 -0.24857317084E+02 -0.36168519931E+03  0.36562719557E+03  0.00000000000E+00 0.  1.
        -13    1    3    3    0    0  0.10310234638E+02 -0.11251445276E+03 -0.81929031151E+03  0.82704438669E+03  0.00000000000E+00 0. -1.
         22    1    1    2    0    0  0.37115249307E+02  0.13737176985E+03 -0.15263901247E+03  0.20867968998E+03  0.00000000000E+00 0.  1.
<mgrwt>
<rscale>  0 0.43041572E+03</rscale>
<asrwt>0</asrwt>
<pdfrwt beam="1">  1        2 0.21038195E+00 0.43041572E+03</pdfrwt>
<pdfrwt beam="2">  1       -2 0.52105200E-02 0.43041572E+03</pdfrwt>
<totfact> 0.29615748E+03</totfact>
</mgrwt>
</event>
<event>
 6    1  0.2236204E-005  0.6408543E+03  0.7818608E-02  0.9824093E-01
          2   -1    0    0  501    0  0.00000000000E+00  0.00000000000E+00  0.14674030274E+04  0.14674030274E+04  0.00000000000E+00 0.  1.
         -2   -1    0    0    0  501 -0.00000000000E+00 -0.00000000000E+00 -0.69969572411E+02  0.69969572411E+02  0.00000000000E+00 0. -1.
         23    2    1    2    0    0 -0.31381598885E+03 -0.55335515400E+00  0.69694959891E+03  0.76980604655E+03  0.91552306486E+02 0.  0.
         13    1    3    3    0    0 -0.16444668232E+03 -0.45436070930E+02  0.34696543454E+03  0.38664216096E+03  0.00000000000E+00 0.  1.
        -13    1    3    3    0    0 -0.14936930653E+03  0.44882715776E+02  0.34998416437E+03  0.38316388559E+03  0.00000000000E+00 0. -1.
         22    1    1    2    0    0  0.31381598885E+03  0.55335515400E+00  0.70048385609E+03  0.76756655328E+03  0.00000000000E+00 0. -1.
<mgrwt>
<rscale>  0 0.64085431E+03</rscale>
<asrwt>0</asrwt>
<pdfrwt beam="1">  1        2 0.22575429E+00 0.64085431E+03</pdfrwt>
<pdfrwt beam="2">  1       -2 0.10764551E-01 0.64085431E+03</pdfrwt>
<totfact> 0.81951662E+02</totfact>
</mgrwt>
</event>
<event>
 6    1  0.2236204E-005  0.2582598E+04  0.7818608E-02  0.8374136E-01
         -2   -1    0    0    0  501 -0.00000000000E+00  0.00000000000E+00  0.57784593845E+03  0.57784593845E+03  0.00000000000E+00 0.  1.
          2   -1    0    0  501    0  0.00000000000E+00 -0.00000000000E+00 -0.28856366008E+04  0.28856366008E+04  0.00000000000E+00 0. -1.
         23    2    1    2    0    0 -0.49519370089E+03  0.26029534626E+03 -0.27137333453E+04  0.27722807376E+04  0.90671660158E+02 0.  0.
         13    1    3    3    0    0 -0.24247353049E+03  0.10760008676E+03 -0.10817567960E+04  0.11138083127E+04  0.00000000000E+00 0.  1.
        -13    1    3    3    0    0 -0.25272017040E+03  0.15269525949E+03 -0.16319765493E+04  0.16584724249E+04  0.00000000000E+00 0. -1.
         22    1    1    2    0    0  0.49519370089E+03 -0.26029534626E+03  0.40594268299E+03  0.69120180162E+03  0.00000000000E+00 0.  1.
<mgrwt>
<rscale>  0 0.25825982E+04</rscale>
<asrwt>0</asrwt>
<pdfrwt beam="1">  1        2 0.44394409E+00 0.25825982E+04</pdfrwt>
<pdfrwt beam="2">  1       -2 0.88899375E-01 0.25825982E+04</pdfrwt>
<totfact> 0.19744492E+00</totfact>
</mgrwt>
</event>
<event>
 6    1  0.2236204E-005  0.1942031E+04  0.7818608E-02  0.8634213E-01
          2   -1    0    0  501    0  0.00000000000E+00  0.00000000000E+00  0.15800611805E+04  0.15800611805E+04  0.00000000000E+00 0. -1.
         -2   -1    0    0    0  501 -0.00000000000E+00 -0.00000000000E+00 -0.59673089629E+03  0.59673089629E+03  0.00000000000E+00 0.  1.
         23    2    1    2    0    0  0.47454284440E+03  0.32239466596E+03  0.13679398634E+04  0.14861012919E+04  0.90046366269E+02 0.  0.
         11    1    3    3    0    0  0.29890503991E+03  0.15935637323E+03  0.86592807699E+03  0.92982262346E+03  0.00000000000E+00 0. -1.
        -11    1    3    3    0    0  0.17563780449E+03  0.16303829274E+03  0.50201178642E+03  0.55627866845E+03  0.00000000000E+00 0.  1.
         22    1    1    2    0    0 -0.47454284440E+03 -0.32239466596E+03 -0.38460957925E+03  0.69069078484E+03  0.00000000000E+00 0.  1.
<mgrwt>
<rscale>  0 0.19420312E+04</rscale>
<asrwt>0</asrwt>
<pdfrwt beam="1">  1        2 0.24308633E+00 0.19420312E+04</pdfrwt>
<pdfrwt beam="2">  1       -2 0.91804754E-01 0.19420312E+04</pdfrwt>
<totfact> 0.10780745E+01</totfact>
</mgrwt>
</event>
<event>
 6    1  0.2236204E-005  0.2519037E+04  0.7818608E-02  0.8396235E-01
         -2   -1    0    0    0  501 -0.00000000000E+00  0.00000000000E+00  0.17383477729E+04  0.17383477729E+04  0.00000000000E+00 0.  1.
          2   -1    0    0  501    0  0.00000000000E+00 -0.00000000000E+00 -0.91258280293E+03  0.91258280293E+03  0.00000000000E+00 0. -1.
         23    2    1    2    0    0  0.97516531751E+03 -0.37268702660E+03  0.11517752379E+04  0.15572552533E+04  0.92815456307E+02 0.  0.
         13    1    3    3    0    0  0.60088539556E+03 -0.27728046041E+03  0.73451748362E+03  0.98866761152E+03  0.00000000000E+00 0. -1.
        -13    1    3    3    0    0  0.37427992194E+03 -0.95406566191E+02  0.41725775431E+03  0.56858764177E+03  0.00000000000E+00 0.  1.
         22    1    1    2    0    0 -0.97516531751E+03  0.37268702660E+03 -0.32601026797E+03  0.10936753225E+04  0.00000000000E+00 0. -1.
<mgrwt>
<rscale>  0 0.25190365E+04</rscale>
<asrwt>0</asrwt>
<pdfrwt beam="1">  1        2 0.14039735E+00 0.25190365E+04</pdfrwt>
<pdfrwt beam="2">  1       -2 0.26743812E+00 0.25190365E+04</pdfrwt>
<totfact> 0.12864494E+00</totfact>
</mgrwt>
</event>
<event>
 6    1  0.2236204E-005  0.8513501E+03  0.7818608E-02  0.9488527E-01
         -2   -1    0    0    0  501 -0.00000000000E+00  0.00000000000E+00  0.35486567655E+03  0.35486567655E+03  0.00000000000E+00 0.  1.
          2   -1    0    0  501    0  0.00000000000E+00 -0.00000000000E+00 -0.51061360928E+03  0.51061360928E+03  0.00000000000E+00 0. -1.
         23    2    1    2    0    0  0.39692454678E+03 -0.52457358730E+02  0.53143652965E+02  0.41388592351E+03  0.90423666736E+02 0.  0.
         11    1    3    3    0    0  0.12067291062E+03 -0.53436245656E+02  0.37457175258E+02  0.13718754931E+03  0.00000000000E+00 0.  1.
        -11    1    3    3    0    0  0.27625163617E+03  0.97888692589E+00  0.15686477707E+02  0.27669837420E+03  0.00000000000E+00 0. -1.
         22    1    1    2    0    0 -0.39692454678E+03  0.52457358730E+02 -0.20889158569E+03  0.45159336232E+03  0.00000000000E+00 0. -1.
<mgrwt>
<rscale>  0 0.85135009E+03</rscale>
<asrwt>0</asrwt>
<pdfrwt beam="1">  1        2 0.78555940E-01 0.85135009E+03</pdfrwt>
<pdfrwt beam="2">  1       -2 0.54594720E-01 0.85135009E+03</pdfrwt>
<totfact> 0.19077933E+02</totfact>
</mgrwt>
</event>
<event>
 6    1  0.2236204E-005  0.1391377E+04  0.7818608E-02  0.8960084E-01
          2   -1    0    0  501    0  0.00000000000E+00  0.00000000000E+00  0.19027739417E+04  0.19027739417E+04  0.00000000000E+00 0. -1.
         -2   -1    0    0    0  501 -0.00000000000E+00 -0.00000000000E+00 -0.25435624841E+03  0.25435624841E+03  0.00000000000E+00 0.  1.
         23    2    1    2    0    0  0.30302833888E+03  0.10513044164E+03  0.17795649856E+04  0.18106071804E+04  0.92564786628E+02 0.  0.
         11    1    3    3    0    0  0.82197970995E+02  0.62046159341E+02  0.72744030628E+03  0.73469424356E+03  0.00000000000E+00 0. -1.
        -11    1    3    3    0    0  0.22083036789E+03  0.43084282297E+02  0.10521246794E+04  0.10759129369E+04  0.00000000000E+00 0.  1.
         22    1    1    2    0    0 -0.30302833888E+03 -0.10513044164E+03 -0.13114729238E+03  0.34652300966E+03  0.00000000000E+00 0.  1.
<mgrwt>
<rscale>  0 0.13913769E+04</rscale>
<asrwt>0</asrwt>
<pdfrwt beam="1">  1        2 0.29273444E+00 0.13913769E+04</pdfrwt>
<pdfrwt beam="2">  1       -2 0.39131732E-01 0.13913769E+04</pdfrwt>
<totfact> 0.45509089E+01</totfact>
</mgrwt>
</event>
<event>
 6    1  0.2236204E-005  0.1076155E+04  0.7818608E-02  0.9228750E-01
          2   -1    0    0  501    0  0.00000000000E+00  0.00000000000E+00  0.19114408660E+04  0.19114408660E+04  0.00000000000E+00 0. -1.
         -2   -1    0    0    0  501 -0.00000000000E+00 -0.00000000000E+00 -0.15147076645E+03  0.15147076645E+03  0.00000000000E+00 0.  1.
         23    2    1    2    0    0  0.29872271358E+03 -0.32008370690E+03  0.29943867568E+03  0.53816874293E+03  0.90957332512E+02 0.  0.
         11    1    3    3    0    0  0.80196764918E+02 -0.14456397082E+03  0.89620345755E+02  0.18804805007E+03  0.00000000000E+00 0. -1.
        -11    1    3    3    0    0  0.21852594866E+03 -0.17551973608E+03  0.20981832993E+03  0.35012069286E+03  0.00000000000E+00 0.  1.
         22    1    1    2    0    0 -0.29872271358E+03  0.32008370690E+03  0.14605314238E+04  0.15247428895E+04  0.00000000000E+00 0. -1.
<mgrwt>
<rscale>  0 0.10761550E+04</rscale>
<asrwt>0</asrwt>
<pdfrwt beam="1">  1        2 0.29406781E+00 0.10761550E+04</pdfrwt>
<pdfrwt beam="2">  1       -2 0.23303196E-01 0.10761550E+04</pdfrwt>
<totfact> 0.12138004E+02</totfact>
</mgrwt>
</event>
<event>
 6    1  0.2236204E-005  0.6460326E+04  0.7818608E-02  0.7635807E-01
         -2   -1    0    0    0  501 -0.00000000000E+00  0.00000000000E+00  0.43099579517E+04  0.43099579517E+04  0.00000000000E+00 0.  1.
          2   -1    0    0  501    0  0.00000000000E+00 -0.00000000000E+00 -0.24208942087E+04  0.24208942087E+04  0.00000000000E+00 0. -1.
         23    2    1    2    0    0 -0.40525188356E+03  0.49559260431E+03  0.42426931440E+04  0.42917104106E+04  0.92152134012E+02 0.  0.
         13    1    3    3    0    0 -0.29062004144E+03  0.38770310828E+03  0.34121076794E+04  0.34463390031E+04  0.00000000000E+00 0. -1.
        -13    1    3    3    0    0 -0.11463184212E+03  0.10788949603E+03  0.83058546458E+03  0.84537140746E+03  0.00000000000E+00 0.  1.
         22    1    1    2    0    0  0.40525188356E+03 -0.49559260431E+03 -0.23536294010E+04  0.24391417499E+04  0.00000000000E+00 0. -1.
<mgrwt>
<rscale>  0 0.64603258E+04</rscale>
<asrwt>0</asrwt>
<pdfrwt beam="1">  1        2 0.37244526E+00 0.64603258E+04</pdfrwt>
<pdfrwt beam="2">  1       -2 0.66307045E+00 0.64603258E+04</pdfrwt>
<totfact> 0.78274380E-04</totfact>
</mgrwt>
</event>
<event>
 6    1  0.2236204E-005  0.2696748E+04  0.7818608E-02  0.8336061E-01
         -2   -1    0    0    0  501 -0.00000000000E+00  0.00000000000E+00  0.67832878632E+03  0.67832878632E+03  0.00000000000E+00 0. -1.
          2   -1    0    0  501    0  0.00000000000E+00 -0.00000000000E+00 -0.26802814160E+04  0.26802814160E+04  0.00000000000E+00 0.  1.
         23    2    1    2    0    0  0.90577014011E+03  0.12080881055E+03  0.23045016198E+03  0.94642518877E+03  0.87172503364E+02 0.  0.
         11    1    3    3    0    0  0.85758990516E+03  0.13363519892E+03  0.21412391776E+03  0.89396189179E+03  0.00000000000E+00 0.  1.
        -11    1    3    3    0    0  0.48180234956E+02 -0.12826388367E+02  0.16326244216E+02  0.52463296972E+02  0.00000000000E+00 0. -1.
         22    1    1    2    0    0 -0.90577014011E+03 -0.12080881055E+03 -0.22324027917E+04  0.24121850136E+04  0.00000000000E+00 0.  1.
<mgrwt>
<rscale>  0 0.26967477E+04</rscale>
<asrwt>0</asrwt>
<pdfrwt beam="1">  1        2 0.41235099E+00 0.26967477E+04</pdfrwt>
<pdfrwt beam="2">  1       -2 0.10435828E+00 0.26967477E+04</pdfrwt>
<totfact> 0.17854492E+00</totfact>
</mgrwt>
</event>
<event>
 6    1  0.2236204E-005  0.5315243E+04  0.7818608E-02  0.7781636E-01
          2   -1    0    0  501    0  0.00000000000E+00  0.00000000000E+00  0.40821815488E+04  0.40821815488E+04  0.00000000000E+00 0. -1.
         -2   -1    0    0    0  501 -0.00000000000E+00 -0.00000000000E+00 -0.17301906321E+04  0.17301906321E+04  0.00000000000E+00 0.  1.
         23    2    1    2    0    0 -0.93342209696E+03 -0.14243927154E+02  0.38964176552E+04  0.40077299307E+04  0.91372606642E+02 0.  0.
         13    1    3    3    0    0 -0.55904111204E+03 -0.24344232420E+02  0.21519261413E+04  0.22234895376E+04  0.00000000000E+00 0.  1.
        -13    1    3    3    0    0 -0.37438098492E+03  0.10100305266E+02  0.17444915139E+04  0.17842403930E+04  0.00000000000E+00 0. -1.
         22    1    1    2    0    0  0.93342209696E+03  0.14243927154E+02 -0.15444267385E+04  0.18046422502E+04  0.00000000000E+00 0.  1.
<mgrwt>
<rscale>  0 0.53152431E+04</rscale>
<asrwt>0</asrwt>
<pdfrwt beam="1">  1        2 0.62802793E+00 0.53152431E+04</pdfrwt>
<pdfrwt beam="2">  1       -2 0.26618317E+00 0.53152431E+04</pdfrwt>
<totfact> 0.10575908E-02</totfact>
</mgrwt>
</event>
<event>
 6    1  0.2236204E-005  0.1529431E+04  0.7818608E-02  0.8865114E-01
         -2   -1    0    0    0  501 -0.00000000000E+00  0.00000000000E+00  0.70657575708E+03  0.70657575708E+03  0.00000000000E+00 0.  1.
          2   -1    0    0  501    0  0.00000000000E+00 -0.00000000000E+00 -0.82763925182E+03  0.82763925182E+03  0.00000000000E+00 0. -1.
         23    2    1    2    0    0 -0.14538639766E+02 -0.42414390393E+03  0.57381523546E+03  0.71998784588E+03  0.94916544813E+02 0.  0.
         11    1    3    3    0    0  0.28084071330E+02 -0.31989149043E+03  0.40137457233E+03  0.51402415121E+03  0.00000000000E+00 0. -1.
        -11    1    3    3    0    0 -0.42622711096E+02 -0.10425241351E+03  0.17244066313E+03  0.20596369467E+03  0.00000000000E+00 0.  1.
         22    1    1    2    0    0  0.14538639766E+02  0.42414390393E+03 -0.69487873021E+03  0.81422716301E+03  0.00000000000E+00 0. -1.
<mgrwt>
<rscale>  0 0.15294310E+04</rscale>
<asrwt>0</asrwt>
<pdfrwt beam="1">  1        2 0.12732912E+00 0.15294310E+04</pdfrwt>
<pdfrwt beam="2">  1       -2 0.10870396E+00 0.15294310E+04</pdfrwt>
<totfact> 0.21455181E+01</totfact>
</mgrwt>
</event>
<event>
 6    1  0.2236204E-005  0.1197681E+04  0.7818608E-02  0.9114889E-01
          2   -1    0    0  501    0  0.00000000000E+00  0.00000000000E+00  0.21101117787E+04  0.21101117787E+04  0.00000000000E+00 0. -1.
         -2   -1    0    0    0  501 -0.00000000000E+00 -0.00000000000E+00 -0.16994821330E+03  0.16994821330E+03  0.00000000000E+00 0.  1.
         23    2    1    2    0    0  0.49140610673E+03  0.18842084009E+03  0.44442759347E+03  0.69443441437E+03  0.87982358002E+02 0.  0.
         13    1    3    3    0    0  0.34492709085E+03  0.11586903116E+03  0.25552960560E+03  0.44462985698E+03  0.00000000000E+00 0. -1.
        -13    1    3    3    0    0  0.14647901588E+03  0.72551808928E+02  0.18889798787E+03  0.24980455739E+03  0.00000000000E+00 0.  1.
         22    1    1    2    0    0 -0.49140610673E+03 -0.18842084009E+03  0.14957359719E+04  0.15856255776E+04  0.00000000000E+00 0. -1.
<mgrwt>
<rscale>  0 0.11976806E+04</rscale>
<asrwt>0</asrwt>
<pdfrwt beam="1">  1        2 0.32463256E+00 0.11976806E+04</pdfrwt>
<pdfrwt beam="2">  1       -2 0.26145881E-01 0.11976806E+04</pdfrwt>
<totfact> 0.75844207E+01</totfact>
</mgrwt>
</event>
<event>
 6    1  0.2236204E-005  0.1950050E+04  0.7818608E-02  0.8630337E-01
         -2   -1    0    0    0  501 -0.00000000000E+00  0.00000000000E+00  0.26508686143E+03  0.26508686143E+03  0.00000000000E+00 0.  1.
          2   -1    0    0  501    0  0.00000000000E+00 -0.00000000000E+00 -0.35862724805E+04  0.35862724805E+04  0.00000000000E+00 0. -1.
         23    2    1    2    0    0  0.69250843708E+03 -0.98775233311E+02 -0.29995794161E+04  0.30814534828E+04  0.92490058386E+02 0.  0.
         13    1    3    3    0    0  0.38914358231E+03 -0.90909407093E+01 -0.16635427081E+04  0.17084758455E+04  0.00000000000E+00 0.  1.
        -13    1    3    3    0    0  0.30336485477E+03 -0.89684292602E+02 -0.13360367080E+04  0.13729776373E+04  0.00000000000E+00 0. -1.
         22    1    1    2    0    0 -0.69250843708E+03  0.98775233311E+02 -0.32160620293E+03  0.76990585912E+03  0.00000000000E+00 0.  1.
<mgrwt>
<rscale>  0 0.19500500E+04</rscale>
<asrwt>0</asrwt>
<pdfrwt beam="1">  1        2 0.55173425E+00 0.19500500E+04</pdfrwt>
<pdfrwt beam="2">  1       -2 0.40782592E-01 0.19500500E+04</pdfrwt>
<totfact> 0.37771368E+00</totfact>
</mgrwt>
</event>
<event>
 6    1  0.2236204E-005  0.1311267E+04  0.7818608E-02  0.9020678E-01
         -2   -1    0    0    0  501 -0.00000000000E+00  0.00000000000E+00  0.31614006987E+03  0.31614006987E+03  0.00000000000E+00 0.  1.
          2   -1    0    0  501    0  0.00000000000E+00 -0.00000000000E+00 -0.13596980972E+04  0.13596980972E+04  0.00000000000E+00 0. -1.
         23    2    1    2    0    0  0.37419874629E+03 -0.23902350315E+03 -0.11350014290E+04  0.12224963176E+04  0.95457141725E+02 0.  0.
         13    1    3    3    0    0  0.20230147468E+03 -0.89712082953E+02 -0.65163536138E+03  0.68818804747E+03  0.00000000000E+00 0. -1.
        -13    1    3    3    0    0  0.17189727161E+03 -0.14931142019E+03 -0.48336606761E+03  0.53430827011E+03  0.00000000000E+00 0.  1.
         22    1    1    2    0    0 -0.37419874629E+03  0.23902350315E+03  0.91443401680E+02  0.45334184948E+03  0.00000000000E+00 0.  1.
<mgrwt>
<rscale>  0 0.13112666E+04</rscale>
<asrwt>0</asrwt>
<pdfrwt beam="1">  1        2 0.20918432E+00 0.13112666E+04</pdfrwt>
<pdfrwt beam="2">  1       -2 0.48636934E-01 0.13112666E+04</pdfrwt>
<totfact> 0.59832657E+01</totfact>
</mgrwt>
</event>
<event>
 6    1  0.2236204E-005  0.1310567E+04  0.7818608E-02  0.9021227E-01
         -2   -1    0    0    0  501 -0.00000000000E+00  0.00000000000E+00  0.26420465646E+03  0.26420465646E+03  0.00000000000E+00 0.  1.
          2   -1    0    0  501    0  0.00000000000E+00 -0.00000000000E+00 -0.16252424429E+04  0.16252424429E+04  0.00000000000E+00 0. -1.
         23    2    1    2    0    0  0.19134980178E+03  0.27805925468E+03 -0.14882892909E+04  0.15287191671E+04  0.89697172933E+02 0.  0.
         13    1    3    3    0    0  0.31476332026E+02  0.55737521958E+02 -0.46654766129E+03  0.47091841235E+03  0.00000000000E+00 0. -1.
        -13    1    3    3    0    0  0.15987346975E+03  0.22232173272E+03 -0.10217416296E+04  0.10578007548E+04  0.00000000000E+00 0.  1.
         22    1    1    2    0    0 -0.19134980178E+03 -0.27805925468E+03  0.12725150439E+03  0.36072793228E+03  0.00000000000E+00 0.  1.
<mgrwt>
<rscale>  0 0.13105672E+04</rscale>
<asrwt>0</asrwt>
<pdfrwt beam="1">  1        2 0.25003730E+00 0.13105672E+04</pdfrwt>
<pdfrwt beam="2">  1       -2 0.40646871E-01 0.13105672E+04</pdfrwt>
<totfact> 0.60578700E+01</totfact>
</mgrwt>
</event>
<event>
 6    1  0.2236204E-005  0.1704966E+04  0.7818608E-02  0.8758537E-01
         -2   -1    0    0    0  501 -0.00000000000E+00  0.00000000000E+00  0.24125849608E+03  0.24125849608E+03  0.00000000000E+00 0.  1.
          2   -1    0    0  501    0  0.00000000000E+00 -0.00000000000E+00 -0.30122341997E+04  0.30122341997E+04  0.00000000000E+00 0. -1.
         23    2    1    2    0    0 -0.67524903124E+03  0.31886642909E+03 -0.21660844049E+04  0.22924877338E+04  0.77079869574E+02 0.  0.
         11    1    3    3    0    0 -0.40877958222E+03  0.15338009387E+03 -0.12217385600E+04  0.12974094608E+04  0.00000000000E+00 0. -1.
        -11    1    3    3    0    0 -0.26646944901E+03  0.16548633523E+03 -0.94434584499E+03  0.99507827298E+03  0.00000000000E+00 0.  1.
         22    1    1    2    0    0  0.67524903124E+03 -0.31886642909E+03 -0.60489129865E+03  0.96100496199E+03  0.00000000000E+00 0.  1.
<mgrwt>
<rscale>  0 0.17049658E+04</rscale>
<asrwt>0</asrwt>
<pdfrwt beam="1">  1        2 0.46342061E+00 0.17049658E+04</pdfrwt>
<pdfrwt beam="2">  1       -2 0.37116695E-01 0.17049658E+04</pdfrwt>
<totfact> 0.11187186E+01</totfact>
</mgrwt>
</event>
<event>
 6    1  0.2236204E-005  0.3565151E+04  0.7818608E-02  0.8098521E-01
          2   -1    0    0  501    0  0.00000000000E+00  0.00000000000E+00  0.24412600161E+04  0.24412600161E+04  0.00000000000E+00 0. -1.
         -2   -1    0    0    0  501 -0.00000000000E+00 -0.00000000000E+00 -0.13016128258E+04  0.13016128258E+04  0.00000000000E+00 0.  1.
         23    2    1    2    0    0  0.18116283280E+03  0.94452291511E+03 -0.10040188512E+04  0.13933521233E+04  0.91830152056E+02 0.  0.
         13    1    3    3    0    0  0.96797670591E+02  0.62365797656E+03 -0.60302152541E+03  0.87289977710E+03  0.00000000000E+00 0.  1.
        -13    1    3    3    0    0  0.84365162210E+02  0.32086493855E+03 -0.40099732583E+03  0.52045234624E+03  0.00000000000E+00 0. -1.
         22    1    1    2    0    0 -0.18116283280E+03 -0.94452291511E+03  0.21436660415E+04  0.23495207185E+04  0.00000000000E+00 0. -1.
<mgrwt>
<rscale>  0 0.35651510E+04</rscale>
<asrwt>0</asrwt>
<pdfrwt beam="1">  1        2 0.37557846E+00 0.35651510E+04</pdfrwt>
<pdfrwt beam="2">  1       -2 0.20024813E+00 0.35651510E+04</pdfrwt>
<totfact> 0.40764380E-01</totfact>
</mgrwt>
</event>
<event>
 6    1  0.2236204E-005  0.2563616E+04  0.7818608E-02  0.8380666E-01
         -2   -1    0    0    0  501 -0.00000000000E+00  0.00000000000E+00  0.16604541167E+04  0.16604541167E+04  0.00000000000E+00 0. -1.
          2   -1    0    0  501    0  0.00000000000E+00 -0.00000000000E+00 -0.98950747294E+03  0.98950747294E+03  0.00000000000E+00 0.  1.
         23    2    1    2    0    0 -0.66205328488E+03 -0.79009711855E+03  0.11205737568E+04  0.15253583043E+04  0.92002190897E+02 0.  0.
         11    1    3    3    0    0 -0.49788616368E+03 -0.65157490177E+03  0.88014473647E+03  0.12029527180E+04  0.00000000000E+00 0.  1.
        -11    1    3    3    0    0 -0.16416712121E+03 -0.13852221678E+03  0.24042902035E+03  0.32240558626E+03  0.00000000000E+00 0. -1.
         22    1    1    2    0    0  0.66205328488E+03  0.79009711855E+03 -0.44962711303E+03  0.11246032854E+04  0.00000000000E+00 0.  1.
<mgrwt>
<rscale>  0 0.25636160E+04</rscale>
<asrwt>0</asrwt>
<pdfrwt beam="1">  1        2 0.15223192E+00 0.25636160E+04</pdfrwt>
<pdfrwt beam="2">  1       -2 0.25545448E+00 0.25636160E+04</pdfrwt>
<totfact> 0.13501945E+00</totfact>
</mgrwt>
</event>
<event>
 6    1  0.2236204E-005  0.2803662E+04  0.7818608E-02  0.8302133E-01
         -2   -1    0    0    0  501 -0.00000000000E+00  0.00000000000E+00  0.56387036237E+03  0.56387036237E+03  0.00000000000E+00 0.  1.
          2   -1    0    0  501    0  0.00000000000E+00 -0.00000000000E+00 -0.34850731724E+04  0.34850731724E+04  0.00000000000E+00 0. -1.
         23    2    1    2    0    0  0.39859785503E+03  0.17226897787E+03 -0.33847817563E+04  0.34137567196E+04  0.91818040181E+02 0.  0.
         13    1    3    3    0    0  0.30696573627E+03  0.87990429532E+02 -0.24447939786E+04  0.24655603576E+04  0.00000000000E+00 0. -1.
        -13    1    3    3    0    0  0.91632118766E+02  0.84278548337E+02 -0.93998777763E+03  0.94819636204E+03  0.00000000000E+00 0.  1.
         22    1    1    2    0    0 -0.39859785503E+03 -0.17226897787E+03  0.46357894622E+03  0.63518681516E+03  0.00000000000E+00 0.  1.
<mgrwt>
<rscale>  0 0.28036615E+04</rscale>
<asrwt>0</asrwt>
<pdfrwt beam="1">  1        2 0.53616510E+00 0.28036615E+04</pdfrwt>
<pdfrwt beam="2">  1       -2 0.86749288E-01 0.28036615E+04</pdfrwt>
<totfact> 0.83299091E-01</totfact>
</mgrwt>
</event>
<event>
 6    1  0.2236204E-005  0.2086992E+04  0.7818608E-02  0.8566995E-01
          2   -1    0    0  501    0  0.00000000000E+00  0.00000000000E+00  0.12179355662E+04  0.12179355662E+04  0.00000000000E+00 0. -1.
         -2   -1    0    0    0  501 -0.00000000000E+00 -0.00000000000E+00 -0.89404097155E+03  0.89404097155E+03  0.00000000000E+00 0.  1.
         23    2    1    2    0    0  0.90424023330E+03 -0.70708138756E+02  0.68039216852E+03  0.11374302019E+04  0.90354417911E+02 0.  0.
         11    1    3    3    0    0  0.15231849988E+03 -0.37741786640E+02  0.90391370553E+02  0.18109657019E+03  0.00000000000E+00 0.  1.
        -11    1    3    3    0    0  0.75192173342E+03 -0.32966352116E+02  0.59000079797E+03  0.95633363172E+03  0.00000000000E+00 0. -1.
         22    1    1    2    0    0 -0.90424023330E+03  0.70708138756E+02 -0.35649757391E+03  0.97454633579E+03  0.00000000000E+00 0.  1.
<mgrwt>
<rscale>  0 0.20869924E+04</rscale>
<asrwt>0</asrwt>
<pdfrwt beam="1">  1        2 0.18737470E+00 0.20869924E+04</pdfrwt>
<pdfrwt beam="2">  1       -2 0.13754476E+00 0.20869924E+04</pdfrwt>
<totfact> 0.64113188E+00</totfact>
</mgrwt>
</event>
<event>
 6    1  0.2236204E-005  0.3269084E+04  0.7818608E-02  0.8170807E-01
          2   -1    0    0  501    0  0.00000000000E+00  0.00000000000E+00  0.21120013726E+04  0.21120013726E+04  0.00000000000E+00 0. -1.
         -2   -1    0    0    0  501 -0.00000000000E+00 -0.00000000000E+00 -0.12650216173E+04  0.12650216173E+04  0.00000000000E+00 0.  1.
         23    2    1    2    0    0  0.40733270593E+03 -0.48832078617E+03  0.19778861048E+04  0.20795923387E+04  0.91069907760E+02 0.  0.
         11    1    3    3    0    0  0.30051915844E+03 -0.36823502616E+03  0.13409707037E+04  0.14227126299E+04  0.00000000000E+00 0.  1.
        -11    1    3    3    0    0  0.10681354749E+03 -0.12008576001E+03  0.63691540108E+03  0.65687970879E+03  0.00000000000E+00 0. -1.
         22    1    1    2    0    0 -0.40733270593E+03  0.48832078617E+03 -0.11309063494E+04  0.12974306512E+04  0.00000000000E+00 0.  1.
<mgrwt>
<rscale>  0 0.32690839E+04</rscale>
<asrwt>0</asrwt>
<pdfrwt beam="1">  1        2 0.32492329E+00 0.32690839E+04</pdfrwt>
<pdfrwt beam="2">  1       -2 0.19461871E+00 0.32690839E+04</pdfrwt>
<totfact> 0.69937275E-01</totfact>
</mgrwt>
</event>
<event>
 6    1  0.2236204E-005  0.1289532E+04  0.7818608E-02  0.9037908E-01
          2   -1    0    0  501    0  0.00000000000E+00  0.00000000000E+00  0.12209628179E+04  0.12209628179E+04  0.00000000000E+00 0. -1.
         -2   -1    0    0    0  501 -0.00000000000E+00 -0.00000000000E+00 -0.34048790990E+03  0.34048790990E+03  0.00000000000E+00 0.  1.
         23    2    1    2    0    0  0.19319316341E+03 -0.27258557059E+03 -0.22075795583E+03  0.41065087027E+03  0.90959169456E+02 0.  0.
         13    1    3    3    0    0 -0.77465243236E+00 -0.51360719250E+02 -0.23937761095E+02  0.56670450629E+02  0.00000000000E+00 0.  1.
        -13    1    3    3    0    0  0.19396781584E+03 -0.22122485134E+03 -0.19682019474E+03  0.35398041964E+03  0.00000000000E+00 0. -1.
         22    1    1    2    0    0 -0.19319316341E+03  0.27258557059E+03  0.11012328638E+04  0.11507998575E+04  0.00000000000E+00 0. -1.
<mgrwt>
<rscale>  0 0.12895318E+04</rscale>
<asrwt>0</asrwt>
<pdfrwt beam="1">  1        2 0.18784043E+00 0.12895318E+04</pdfrwt>
<pdfrwt beam="2">  1       -2 0.52382756E-01 0.12895318E+04</pdfrwt>
<totfact> 0.62073089E+01</totfact>
</mgrwt>
</event>
<event>
 6    1  0.2236204E-005  0.2711625E+04  0.7818608E-02  0.8331243E-01
          2   -1    0    0  501    0  0.00000000000E+00  0.00000000000E+00  0.21100717487E+04  0.21100717487E+04  0.00000000000E+00 0. -1.
         -2   -1    0    0    0  501 -0.00000000000E+00 -0.00000000000E+00 -0.87116808632E+03  0.87116808632E+03  0.00000000000E+00 0.  1.
         23    2    1    2    0    0 -0.72534650628E+03  0.11388060005E+04  0.49815382017E+03  0.14412018518E+04  0.76804219014E+02 0.  0.
         13    1    3    3    0    0 -0.58421241735E+03  0.91221205675E+03  0.43168242207E+03  0.11660980656E+04  0.00000000000E+00 0.  1.
        -13    1    3    3    0    0 -0.14113408893E+03  0.22659394378E+03  0.66471398095E+02  0.27510378619E+03  0.00000000000E+00 0. -1.
         22    1    1    2    0    0  0.72534650628E+03 -0.11388060005E+04  0.74074984219E+03  0.15400379832E+04  0.00000000000E+00 0. -1.
<mgrwt>
<rscale>  0 0.27116247E+04</rscale>
<asrwt>0</asrwt>
<pdfrwt beam="1">  1        2 0.32462642E+00 0.27116247E+04</pdfrwt>
<pdfrwt beam="2">  1       -2 0.13402586E+00 0.27116247E+04</pdfrwt>
<totfact> 0.20429949E+00</totfact>
</mgrwt>
</event>
<event>
 6    1  0.2236204E-005  0.1795473E+04  0.7818608E-02  0.8708711E-01
          2   -1    0    0  501    0  0.00000000000E+00  0.00000000000E+00  0.27609415038E+04  0.27609415038E+04  0.00000000000E+00 0. -1.
         -2   -1    0    0    0  501 -0.00000000000E+00 -0.00000000000E+00 -0.29190430860E+03  0.29190430860E+03  0.00000000000E+00 0.  1.
         23    2    1    2    0    0  0.61439463726E+03 -0.11516453686E+03  0.14768527764E+03  0.64880372334E+03  0.91606164291E+02 0.  0.
         13    1    3    3    0    0  0.56879924810E+03 -0.12191483607E+03  0.11682116410E+03  0.59333211297E+03  0.00000000000E+00 0. -1.
        -13    1    3    3    0    0  0.45595389158E+02  0.67502992126E+01  0.30864113544E+02  0.55471610368E+02  0.00000000000E+00 0.  1.
         22    1    1    2    0    0 -0.61439463726E+03  0.11516453686E+03  0.23213519176E+04  0.24040420891E+04  0.00000000000E+00 0. -1.
<mgrwt>
<rscale>  0 0.17954729E+04</rscale>
<asrwt>0</asrwt>
<pdfrwt beam="1">  1        2 0.42476021E+00 0.17954729E+04</pdfrwt>
<pdfrwt beam="2">  1       -2 0.44908357E-01 0.17954729E+04</pdfrwt>
<totfact> 0.10868465E+01</totfact>
</mgrwt>
</event>
<event>
 6    1  0.2236204E-005  0.2056978E+04  0.7818608E-02  0.8580435E-01
          2   -1    0    0  501    0  0.00000000000E+00  0.00000000000E+00  0.22250263330E+04  0.22250263330E+04  0.00000000000E+00 0. -1.
         -2   -1    0    0    0  501 -0.00000000000E+00 -0.00000000000E+00 -0.47540565593E+03  0.47540565593E+03  0.00000000000E+00 0.  1.
         23    2    1    2    0    0  0.96634516012E+03 -0.29542558412E+03  0.63594452829E+03  0.11966454986E+04  0.80223200901E+02 0.  0.
         13    1    3    3    0    0  0.72726594439E+03 -0.21451647278E+03  0.51624444512E+03  0.91730114907E+03  0.00000000000E+00 0.  1.
        -13    1    3    3    0    0  0.23907921573E+03 -0.80909111335E+02  0.11970008317E+03  0.27934434951E+03  0.00000000000E+00 0. -1.
         22    1    1    2    0    0 -0.96634516012E+03  0.29542558412E+03  0.11136761488E+04  0.15037864904E+04  0.00000000000E+00 0.  1.
<mgrwt>
<rscale>  0 0.20569785E+04</rscale>
<asrwt>0</asrwt>
<pdfrwt beam="1">  1        2 0.34231174E+00 0.20569785E+04</pdfrwt>
<pdfrwt beam="2">  1       -2 0.73139333E-01 0.20569785E+04</pdfrwt>
<totfact> 0.78038254E+00</totfact>
</mgrwt>
</event>
<event>
 6    1  0.2236204E-005  0.1829411E+04  0.7818608E-02  0.8690813E-01
          2   -1    0    0  501    0  0.00000000000E+00  0.00000000000E+00  0.17477152978E+04  0.17477152978E+04  0.00000000000E+00 0.  1.
         -2   -1    0    0    0  501 -0.00000000000E+00 -0.00000000000E+00 -0.47873154262E+03  0.47873154262E+03  0.00000000000E+00 0. -1.
         23    2    1    2    0    0 -0.32902877367E+03  0.83955005810E+03  0.46595416403E+03  0.10189863822E+04  0.90087347047E+02 0.  0.
         13    1    3    3    0    0 -0.11442364452E+03  0.21204070592E+03  0.94173395538E+02  0.25869414338E+03  0.00000000000E+00 0. -1.
        -13    1    3    3    0    0 -0.21460512914E+03  0.62750935218E+03  0.37178076849E+03  0.76029223878E+03  0.00000000000E+00 0.  1.
         22    1    1    2    0    0  0.32902877367E+03 -0.83955005810E+03  0.80302959110E+03  0.12074604582E+04  0.00000000000E+00 0.  1.
<mgrwt>
<rscale>  0 0.18294113E+04</rscale>
<asrwt>0</asrwt>
<pdfrwt beam="1">  1        2 0.26887927E+00 0.18294113E+04</pdfrwt>
<pdfrwt beam="2">  1       -2 0.73651008E-01 0.18294113E+04</pdfrwt>
<totfact> 0.14442580E+01</totfact>
</mgrwt>
</event>
<event>
 6    1  0.2236204E-005  0.3597292E+04  0.7818608E-02  0.8091112E-01
          2   -1    0    0  501    0  0.00000000000E+00  0.00000000000E+00  0.17930834259E+04  0.17930834259E+04  0.00000000000E+00 0. -1.
         -2   -1    0    0    0  501 -0.00000000000E+00 -0.00000000000E+00 -0.18042253716E+04  0.18042253716E+04  0.00000000000E+00 0.  1.
         23    2    1    2    0    0 -0.87609524473E+01 -0.17588705068E+04  0.36502115277E+03  0.17986423775E+04  0.90397710814E+02 0.  0.
         13    1    3    3    0    0 -0.21142812209E+02 -0.10029084111E+04  0.25070842954E+03  0.10339859845E+04  0.00000000000E+00 0. -1.
        -13    1    3    3    0    0  0.12381859762E+02 -0.75596209571E+03  0.11431272323E+03  0.76465639296E+03  0.00000000000E+00 0.  1.
         22    1    1    2    0    0  0.87609524473E+01  0.17588705068E+04 -0.37616309842E+03  0.17986664200E+04  0.00000000000E+00 0.  1.
<mgrwt>
<rscale>  0 0.35972915E+04</rscale>
<asrwt>0</asrwt>
<pdfrwt beam="1">  1        2 0.27585899E+00 0.35972915E+04</pdfrwt>
<pdfrwt beam="2">  1       -2 0.27757314E+00 0.35972915E+04</pdfrwt>
<totfact> 0.30923122E-01</totfact>
</mgrwt>
</event>
<event>
 6    1  0.2236204E-005  0.6007209E+03  0.7818608E-02  0.9903912E-01
          4   -1    0    0  501    0  0.00000000000E+00  0.00000000000E+00  0.32935204508E+03  0.32935204508E+03  0.00000000000E+00 0. -1.
         -4   -1    0    0    0  501 -0.00000000000E+00 -0.00000000000E+00 -0.27392085600E+03  0.27392085600E+03  0.00000000000E+00 0.  1.
         23    2    1    2    0    0  0.13330433836E+03  0.24429744728E+03 -0.64286841034E+02  0.30031465956E+03  0.92762101335E+02 0.  0.
         11    1    3    3    0    0  0.11293108491E+03  0.20135998109E+03 -0.14251601842E+02  0.23130581505E+03  0.00000000000E+00 0. -1.
        -11    1    3    3    0    0  0.20373253453E+02  0.42937466188E+02 -0.50035239192E+02  0.69008844505E+02  0.00000000000E+00 0.  1.
         22    1    1    2    0    0 -0.13330433836E+03 -0.24429744728E+03  0.11971803011E+03  0.30295824152E+03  0.00000000000E+00 0. -1.
<mgrwt>
<rscale>  0 0.60072088E+03</rscale>
<asrwt>0</asrwt>
<pdfrwt beam="1">  1        4 0.50669545E-01 0.60072088E+03</pdfrwt>
<pdfrwt beam="2">  1       -4 0.42141670E-01 0.60072088E+03</pdfrwt>
<totfact> 0.40581669E+01</totfact>
</mgrwt>
</event>
<event>
 6    1  0.2236204E-005  0.5302721E+04  0.7818608E-02  0.7783434E-01
         -2   -1    0    0    0  501 -0.00000000000E+00  0.00000000000E+00  0.25082601826E+04  0.25082601826E+04  0.00000000000E+00 0. -1.
          2   -1    0    0  501    0  0.00000000000E+00 -0.00000000000E+00 -0.28026251641E+04  0.28026251641E+04  0.00000000000E+00 0.  1.
         23    2    1    2    0    0  0.12153932162E+04  0.20479683214E+04 -0.13127412248E+04  0.27208187281E+04  0.90609671441E+02 0.  0.
         11    1    3    3    0    0  0.30889154427E+03  0.57970971386E+03 -0.33136875706E+03  0.73571909831E+03  0.00000000000E+00 0.  1.
        -11    1    3    3    0    0  0.90650167195E+03  0.14682586075E+04 -0.98137246776E+03  0.19850996298E+04  0.00000000000E+00 0. -1.
         22    1    1    2    0    0 -0.12153932162E+04 -0.20479683214E+04  0.10183762433E+04  0.25900666185E+04  0.00000000000E+00 0. -1.
<mgrwt>
<rscale>  0 0.53027212E+04</rscale>
<asrwt>0</asrwt>
<pdfrwt beam="1">  1        2 0.43117310E+00 0.53027212E+04</pdfrwt>
<pdfrwt beam="2">  1       -2 0.38588618E+00 0.53027212E+04</pdfrwt>
<totfact> 0.15026230E-02</totfact>
</mgrwt>
</event>
<event>
 6    1  0.2236204E-005  0.5916465E+04  0.7818608E-02  0.7700846E-01
         -2   -1    0    0    0  501 -0.00000000000E+00  0.00000000000E+00  0.19809952850E+04  0.19809952850E+04  0.00000000000E+00 0. -1.
          2   -1    0    0  501    0  0.00000000000E+00 -0.00000000000E+00 -0.44175473477E+04  0.44175473477E+04  0.00000000000E+00 0.  1.
         23    2    1    2    0    0  0.25761284611E+04  0.13600989745E+04 -0.17708213780E+04  0.34103149952E+04  0.90182844470E+02 0.  0.
         13    1    3    3    0    0  0.11612226830E+04  0.56527907030E+03 -0.80210281493E+03  0.15203116367E+04  0.00000000000E+00 0.  1.
        -13    1    3    3    0    0  0.14149057781E+04  0.79481990418E+03 -0.96871856304E+03  0.18900033585E+04  0.00000000000E+00 0. -1.
         22    1    1    2    0    0 -0.25761284611E+04 -0.13600989745E+04 -0.66573068479E+03  0.29882276374E+04  0.00000000000E+00 0. -1.
<mgrwt>
<rscale>  0 0.59164653E+04</rscale>
<asrwt>0</asrwt>
<pdfrwt beam="1">  1        2 0.67962267E+00 0.59164653E+04</pdfrwt>
<pdfrwt beam="2">  1       -2 0.30476850E+00 0.59164653E+04</pdfrwt>
<totfact> 0.29434201E-03</totfact>
</mgrwt>
</event>
<event>
 6    1  0.2236204E-005  0.3456080E+04  0.7818608E-02  0.8124278E-01
         -2   -1    0    0    0  501 -0.00000000000E+00  0.00000000000E+00  0.28858820502E+04  0.28858820502E+04  0.00000000000E+00 0. -1.
          2   -1    0    0  501    0  0.00000000000E+00 -0.00000000000E+00 -0.10347349421E+04  0.10347349421E+04  0.00000000000E+00 0.  1.
         23    2    1    2    0    0 -0.88571161262E+03  0.47341755234E+03 -0.66744936787E+03  0.12091713542E+04  0.89428550227E+02 0.  0.
         13    1    3    3    0    0 -0.45415092298E+03  0.28454266580E+03 -0.38531637383E+03  0.66006537362E+03  0.00000000000E+00 0.  1.
        -13    1    3    3    0    0 -0.43156068964E+03  0.18887488654E+03 -0.28213299405E+03  0.54910598060E+03  0.00000000000E+00 0. -1.
         22    1    1    2    0    0  0.88571161262E+03 -0.47341755234E+03  0.25185964759E+04  0.27114456381E+04  0.00000000000E+00 0. -1.
<mgrwt>
<rscale>  0 0.34560804E+04</rscale>
<asrwt>0</asrwt>
<pdfrwt beam="1">  1        2 0.15918999E+00 0.34560804E+04</pdfrwt>
<pdfrwt beam="2">  1       -2 0.44398185E+00 0.34560804E+04</pdfrwt>
<totfact> 0.74998428E-02</totfact>
</mgrwt>
</event>
<event>
 6    1  0.2236204E-005  0.5213014E+04  0.7818608E-02  0.7796462E-01
          2   -1    0    0  501    0  0.00000000000E+00  0.00000000000E+00  0.25630176326E+04  0.25630176326E+04  0.00000000000E+00 0. -1.
         -2   -1    0    0    0  501 -0.00000000000E+00 -0.00000000000E+00 -0.26507338062E+04  0.26507338062E+04  0.00000000000E+00 0.  1.
         23    2    1    2    0    0  0.78040502453E+03 -0.17167278223E+04  0.17545785367E+04  0.25774213726E+04  0.91480447550E+02 0.  0.
         13    1    3    3    0    0  0.61699504362E+03 -0.13117337836E+04  0.13935034183E+04  0.20107660679E+04  0.00000000000E+00 0. -1.
        -13    1    3    3    0    0  0.16340998091E+03 -0.40499403870E+03  0.36107511841E+03  0.56665530473E+03  0.00000000000E+00 0.  1.
         22    1    1    2    0    0 -0.78040502453E+03  0.17167278223E+04 -0.18422947103E+04  0.26363300662E+04  0.00000000000E+00 0.  1.
<mgrwt>
<rscale>  0 0.52130135E+04</rscale>
<asrwt>0</asrwt>
<pdfrwt beam="1">  1        2 0.39431040E+00 0.52130135E+04</pdfrwt>
<pdfrwt beam="2">  1       -2 0.40780520E+00 0.52130135E+04</pdfrwt>
<totfact> 0.15124663E-02</totfact>
</mgrwt>
</event>
<event>
 6    1  0.2236204E-005  0.8901851E+03  0.7818608E-02  0.9437934E-01
         -2   -1    0    0    0  501 -0.00000000000E+00  0.00000000000E+00  0.19872648335E+03  0.19872648335E+03  0.00000000000E+00 0.  1.
          2   -1    0    0  501    0  0.00000000000E+00 -0.00000000000E+00 -0.99688473661E+03  0.99688473661E+03  0.00000000000E+00 0. -1.
         23    2    1    2    0    0  0.91570235902E+02  0.16771291303E+03  0.13097561590E+03  0.24703203185E+03  0.85775774531E+02 0.  0.
         11    1    3    3    0    0  0.62695784443E+02  0.36350151047E+02  0.64432568137E+02  0.96972422393E+02  0.00000000000E+00 0.  1.
        -11    1    3    3    0    0  0.28874451459E+02  0.13136276199E+03  0.66543047767E+02  0.15005960946E+03  0.00000000000E+00 0. -1.
         22    1    1    2    0    0 -0.91570235902E+02 -0.16771291303E+03 -0.92913386916E+03  0.94857918811E+03  0.00000000000E+00 0. -1.
<mgrwt>
<rscale>  0 0.89018514E+03</rscale>
<asrwt>0</asrwt>
<pdfrwt beam="1">  1        2 0.15336688E+00 0.89018514E+03</pdfrwt>
<pdfrwt beam="2">  1       -2 0.30573306E-01 0.89018514E+03</pdfrwt>
<totfact> 0.25084149E+02</totfact>
</mgrwt>
</event>
<event>
 6    1  0.2236204E-005  0.5826882E+03  0.7818608E-02  0.9941988E-01
         -1   -1    0    0    0  501 -0.00000000000E+00  0.00000000000E+00  0.17240701307E+03  0.17240701307E+03  0.00000000000E+00 0.  1.
          1   -1    0    0  501    0  0.00000000000E+00 -0.00000000000E+00 -0.49233145517E+03  0.49233145517E+03  0.00000000000E+00 0. -1.
         23    2    1    2    0    0  0.27331558579E+02 -0.20980591669E+03  0.51784879551E+02  0.23703137620E+03  0.93470117063E+02 0.  0.
         13    1    3    3    0    0 -0.32852498335E+02 -0.89685634685E+02  0.34579278385E+02  0.10158014673E+03  0.00000000000E+00 0. -1.
        -13    1    3    3    0    0  0.60184056914E+02 -0.12012028200E+03  0.17205601165E+02  0.13545122947E+03  0.00000000000E+00 0.  1.
         22    1    1    2    0    0 -0.27331558579E+02  0.20980591669E+03 -0.37170932165E+03  0.42770709203E+03  0.00000000000E+00 0. -1.
<mgrwt>
<rscale>  0 0.58268824E+03</rscale>
<asrwt>0</asrwt>
<pdfrwt beam="1">  1        1 0.75743300E-01 0.58268824E+03</pdfrwt>
<pdfrwt beam="2">  1       -1 0.26524156E-01 0.58268824E+03</pdfrwt>
<totfact> 0.57805395E+02</totfact>
</mgrwt>
</event>
<event>
 6    1  0.2236204E-005  0.9020505E+03  0.7818608E-02  0.9423022E-01
          2   -1    0    0  501    0  0.00000000000E+00  0.00000000000E+00  0.64261562802E+03  0.64261562802E+03  0.00000000000E+00 0. -1.
         -2   -1    0    0    0  501 -0.00000000000E+00 -0.00000000000E+00 -0.31655594530E+03  0.31655594530E+03  0.00000000000E+00 0.  1.
         23    2    1    2    0    0  0.48433471020E+02  0.23945654720E+03  0.56200959931E+03  0.61952822766E+03  0.90968104521E+02 0.  0.
         11    1    3    3    0    0 -0.26875602526E+02  0.72254247502E+02  0.17820127959E+03  0.19416145431E+03  0.00000000000E+00 0. -1.
        -11    1    3    3    0    0  0.75309073546E+02  0.16720229970E+03  0.38380831972E+03  0.42536677335E+03  0.00000000000E+00 0.  1.
         22    1    1    2    0    0 -0.48433471020E+02 -0.23945654720E+03 -0.23594991659E+03  0.33964334566E+03  0.00000000000E+00 0.  1.
<mgrwt>
<rscale>  0 0.90205055E+03</rscale>
<asrwt>0</asrwt>
<pdfrwt beam="1">  1        2 0.98863943E-01 0.90205055E+03</pdfrwt>
<pdfrwt beam="2">  1       -2 0.48700915E-01 0.90205055E+03</pdfrwt>
<totfact> 0.18265176E+02</totfact>
</mgrwt>
</event>
<event>
 6    1  0.2236204E-005  0.2500172E+04  0.7818608E-02  0.8402924E-01
         -2   -1    0    0    0  501 -0.00000000000E+00  0.00000000000E+00  0.29265635398E+04  0.29265635398E+04  0.00000000000E+00 0.  1.
          2   -1    0    0  501    0  0.00000000000E+00 -0.00000000000E+00 -0.53397601146E+03  0.53397601146E+03  0.00000000000E+00 0. -1.
         23    2    1    2    0    0 -0.32679052908E+03 -0.28757588627E+03  0.28174410216E+04  0.28522695200E+04  0.89306013664E+02 0.  0.
         11    1    3    3    0    0 -0.20798942294E+03 -0.23548651685E+03  0.20523710813E+04  0.20762804616E+04  0.00000000000E+00 0. -1.
        -11    1    3    3    0    0 -0.11880110613E+03 -0.52089369420E+02  0.76506994027E+03  0.77598905838E+03  0.00000000000E+00 0.  1.
         22    1    1    2    0    0  0.32679052908E+03  0.28757588627E+03 -0.42485349325E+03  0.60827003131E+03  0.00000000000E+00 0. -1.
<mgrwt>
<rscale>  0 0.25001718E+04</rscale>
<asrwt>0</asrwt>
<pdfrwt beam="1">  1        2 0.82150157E-01 0.25001718E+04</pdfrwt>
<pdfrwt beam="2">  1       -2 0.45024054E+00 0.25001718E+04</pdfrwt>
<totfact> 0.17568707E-01</totfact>
</mgrwt>
</event>
<event>
 6    1  0.3183740E-005  0.2801793E+04  0.7818608E-02  0.8302712E-01
          2   -1    0    0  501    0  0.00000000000E+00  0.00000000000E+00  0.13200939749E+04  0.13200939749E+04  0.00000000000E+00 0. -1.
         -2   -1    0    0    0  501 -0.00000000000E+00 -0.00000000000E+00 -0.14866447359E+04  0.14866447359E+04  0.00000000000E+00 0.  1.
         23    2    1    2    0    0  0.87589828591E+02  0.10641635012E+04  0.82267264197E+03  0.13511704794E+04  0.93570579245E+02 0.  0.
         13    1    3    3    0    0  0.44395008768E+02  0.58603491613E+03  0.39400686113E+03  0.70756571875E+03  0.00000000000E+00 0. -1.
        -13    1    3    3    0    0  0.43194819824E+02  0.47812858504E+03  0.42866578084E+03  0.64360476067E+03  0.00000000000E+00 0.  1.
         22    1    1    2    0    0 -0.87589828591E+02 -0.10641635012E+04 -0.98922340294E+03  0.14555682314E+04  0.00000000000E+00 0.  1.
<mgrwt>
<rscale>  0 0.28017928E+04</rscale>
<asrwt>0</asrwt>
<pdfrwt beam="1">  1        2 0.20309138E+00 0.28017928E+04</pdfrwt>
<pdfrwt beam="2">  1       -2 0.22871457E+00 0.28017928E+04</pdfrwt>
<totfact> 0.12194471E+00</totfact>
</mgrwt>
</event>
<event>
 6    1  0.2236204E-005  0.2970120E+04  0.7818608E-02  0.8252315E-01
         -2   -1    0    0    0  501 -0.00000000000E+00  0.00000000000E+00  0.64594015644E+03  0.64594015644E+03  0.00000000000E+00 0. -1.
          2   -1    0    0  501    0  0.00000000000E+00 -0.00000000000E+00 -0.34142523460E+04  0.34142523460E+04  0.00000000000E+00 0.  1.
         23    2    1    2    0    0  0.98296141336E+03 -0.36886007696E+03  0.47857465228E+02  0.10546838232E+04  0.88299113024E+02 0.  0.
         11    1    3    3    0    0  0.84402510392E+03 -0.33586016362E+03  0.16829888396E+02  0.90855031269E+03  0.00000000000E+00 0. -1.
        -11    1    3    3    0    0  0.13893630944E+03 -0.32999913337E+02  0.31027576833E+02  0.14613351048E+03  0.00000000000E+00 0.  1.
         22    1    1    2    0    0 -0.98296141336E+03  0.36886007696E+03 -0.28161696548E+04  0.30055086792E+04  0.00000000000E+00 0.  1.
<mgrwt>
<rscale>  0 0.29701197E+04</rscale>
<asrwt>0</asrwt>
<pdfrwt beam="1">  1        2 0.52526960E+00 0.29701197E+04</pdfrwt>
<pdfrwt beam="2">  1       -2 0.99375406E-01 0.29701197E+04</pdfrwt>
<totfact> 0.67016789E-01</totfact>
</mgrwt>
</event>
<event>
 6    1  0.2236204E-005  0.3946901E+04  0.7818608E-02  0.8015345E-01
          1   -1    0    0  501    0  0.00000000000E+00  0.00000000000E+00  0.21151686098E+04  0.21151686098E+04  0.00000000000E+00 0. -1.
         -1   -1    0    0    0  501 -0.00000000000E+00 -0.00000000000E+00 -0.18412276747E+04  0.18412276747E+04  0.00000000000E+00 0.  1.
         23    2    1    2    0    0  0.11048019101E+04 -0.13424878681E+04  0.10706176216E+04  0.20439228390E+04  0.92398828218E+02 0.  0.
         13    1    3    3    0    0  0.19313218038E+03 -0.18331030347E+03  0.15656984789E+03  0.30889613744E+03  0.00000000000E+00 0. -1.
        -13    1    3    3    0    0  0.91166972976E+03 -0.11591775647E+04  0.91404777368E+03  0.17350267016E+04  0.00000000000E+00 0.  1.
         22    1    1    2    0    0 -0.11048019101E+04  0.13424878681E+04 -0.79667668646E+03  0.19124734454E+04  0.00000000000E+00 0.  1.
<mgrwt>
<rscale>  0 0.39469011E+04</rscale>
<asrwt>0</asrwt>
<pdfrwt beam="1">  1        1 0.32541056E+00 0.39469011E+04</pdfrwt>
<pdfrwt beam="2">  1       -1 0.28326580E+00 0.39469011E+04</pdfrwt>
<totfact> 0.82930296E-02</totfact>
</mgrwt>
</event>
<event>
 6    1  0.2236204E-005  0.1496178E+04  0.7818608E-02  0.8886999E-01
          2   -1    0    0  501    0  0.00000000000E+00  0.00000000000E+00  0.24579857585E+04  0.24579857585E+04  0.00000000000E+00 0.  1.
         -2   -1    0    0    0  501 -0.00000000000E+00 -0.00000000000E+00 -0.22768107591E+03  0.22768107591E+03  0.00000000000E+00 0. -1.
         23    2    1    2    0    0 -0.83871420024E+01 -0.21430628792E+03  0.24005596980E+04  0.24118342222E+04  0.90884115057E+02 0.  0.
         13    1    3    3    0    0  0.23277274554E+02 -0.12605677775E+02  0.40266924600E+03  0.40353841985E+03  0.00000000000E+00 0.  1.
        -13    1    3    3    0    0 -0.31664416556E+02 -0.20170061015E+03  0.19978904520E+04  0.20082958023E+04  0.00000000000E+00 0. -1.
         22    1    1    2    0    0  0.83871420024E+01  0.21430628792E+03 -0.17025501548E+03  0.27383261217E+03  0.00000000000E+00 0. -1.
<mgrwt>
<rscale>  0 0.14961776E+04</rscale>
<asrwt>0</asrwt>
<pdfrwt beam="1">  1        2 0.37815164E+00 0.14961776E+04</pdfrwt>
<pdfrwt beam="2">  1       -2 0.35027860E-01 0.14961776E+04</pdfrwt>
<totfact> 0.27285600E+01</totfact>
</mgrwt>
</event>
<event>
 6    1  0.2236204E-005  0.1634687E+04  0.7818608E-02  0.8799517E-01
         -2   -1    0    0    0  501 -0.00000000000E+00  0.00000000000E+00  0.34484690765E+03  0.34484690765E+03  0.00000000000E+00 0.  1.
          2   -1    0    0  501    0  0.00000000000E+00 -0.00000000000E+00 -0.19372377875E+04  0.19372377875E+04  0.00000000000E+00 0. -1.
         23    2    1    2    0    0  0.34503549612E+03 -0.14184178923E+03  0.21399315034E+03  0.43758155032E+03  0.80721484347E+02 0.  0.
         13    1    3    3    0    0  0.12389497212E+03 -0.61251245959E+02  0.36954876853E+02  0.14306411909E+03  0.00000000000E+00 0. -1.
        -13    1    3    3    0    0  0.22114052400E+03 -0.80590543271E+02  0.17703827349E+03  0.29451743124E+03  0.00000000000E+00 0.  1.
         22    1    1    2    0    0 -0.34503549612E+03  0.14184178923E+03 -0.18063840302E+04  0.18445031448E+04  0.00000000000E+00 0. -1.
<mgrwt>
<rscale>  0 0.16346871E+04</rscale>
<asrwt>0</asrwt>
<pdfrwt beam="1">  1        2 0.29803658E+00 0.16346871E+04</pdfrwt>
<pdfrwt beam="2">  1       -2 0.53053370E-01 0.16346871E+04</pdfrwt>
<totfact> 0.23200758E+01</totfact>
</mgrwt>
</event>
<event>
 6    1  0.2236204E-005  0.4981164E+03  0.7818608E-02  0.1014272E+00
         -2   -1    0    0    0  501 -0.00000000000E+00  0.00000000000E+00  0.11491867098E+03  0.11491867098E+03  0.00000000000E+00 0.  1.
          2   -1    0    0  501    0  0.00000000000E+00 -0.00000000000E+00 -0.53977281683E+03  0.53977281683E+03  0.00000000000E+00 0. -1.
         23    2    1    2    0    0 -0.23684194083E+03  0.13053132100E+02 -0.27502879052E+03  0.37413467308E+03  0.89841130863E+02 0.  0.
         11    1    3    3    0    0 -0.17517769830E+03  0.30710474099E+02 -0.24643157180E+03  0.30390603610E+03  0.00000000000E+00 0.  1.
        -11    1    3    3    0    0 -0.61664242531E+02 -0.17657341999E+02 -0.28597218717E+02  0.70228636978E+02  0.00000000000E+00 0. -1.
         22    1    1    2    0    0  0.23684194083E+03 -0.13053132100E+02 -0.14982535533E+03  0.28055681474E+03  0.00000000000E+00 0.  1.
<mgrwt>
<rscale>  0 0.49811635E+03</rscale>
<asrwt>0</asrwt>
<pdfrwt beam="1">  1        2 0.83041970E-01 0.49811635E+03</pdfrwt>
<pdfrwt beam="2">  1       -2 0.17679796E-01 0.49811635E+03</pdfrwt>
<totfact> 0.14879175E+03</totfact>
</mgrwt>
</event>
<event>
 6    1  0.2236204E-005  0.2102111E+04  0.7818608E-02  0.8560314E-01
          2   -1    0    0  501    0  0.00000000000E+00  0.00000000000E+00  0.13057974045E+04  0.13057974045E+04  0.00000000000E+00 0. -1.
         -2   -1    0    0    0  501 -0.00000000000E+00 -0.00000000000E+00 -0.84600964517E+03  0.84600964517E+03  0.00000000000E+00 0.  1.
         23    2    1    2    0    0 -0.84345789620E+03  0.38644582257E+02 -0.40743665894E+03  0.94143817281E+03  0.85945190500E+02 0.  0.
         11    1    3    3    0    0 -0.41204684016E+03 -0.40249312610E+01 -0.15825682190E+03  0.44141139568E+03  0.00000000000E+00 0. -1.
        -11    1    3    3    0    0 -0.43141105604E+03  0.42669513518E+02 -0.24917983704E+03  0.50002677713E+03  0.00000000000E+00 0.  1.
         22    1    1    2    0    0  0.84345789620E+03 -0.38644582257E+02  0.86722441825E+03  0.12103688768E+04  0.00000000000E+00 0. -1.
<mgrwt>
<rscale>  0 0.21021106E+04</rscale>
<asrwt>0</asrwt>
<pdfrwt beam="1">  1        2 0.20089191E+00 0.21021106E+04</pdfrwt>
<pdfrwt beam="2">  1       -2 0.13015533E+00 0.21021106E+04</pdfrwt>
<totfact> 0.65451812E+00</totfact>
</mgrwt>
</event>
<event>
 6    1  0.2236204E-005  0.1367766E+04  0.7818608E-02  0.8977487E-01
          1   -1    0    0  501    0  0.00000000000E+00  0.00000000000E+00  0.89382981197E+03  0.89382981197E+03  0.00000000000E+00 0. -1.
         -1   -1    0    0    0  501 -0.00000000000E+00 -0.00000000000E+00 -0.52324939020E+03  0.52324939020E+03  0.00000000000E+00 0.  1.
         23    2    1    2    0    0  0.24355882253E+03 -0.24349249540E+03 -0.42215658775E+03  0.55276359915E+03  0.93391202011E+02 0.  0.
         13    1    3    3    0    0  0.10594793704E+02 -0.54688868103E+02 -0.84116229982E+02  0.10088935570E+03  0.00000000000E+00 0. -1.
        -13    1    3    3    0    0  0.23296402882E+03 -0.18880362730E+03 -0.33804035777E+03  0.45187424344E+03  0.00000000000E+00 0.  1.
         22    1    1    2    0    0 -0.24355882253E+03  0.24349249540E+03  0.79273700953E+03  0.86431560302E+03  0.00000000000E+00 0. -1.
<mgrwt>
<rscale>  0 0.13677659E+04</rscale>
<asrwt>0</asrwt>
<pdfrwt beam="1">  1        1 0.13751228E+00 0.13677659E+04</pdfrwt>
<pdfrwt beam="2">  1       -1 0.80499906E-01 0.13677659E+04</pdfrwt>
<totfact> 0.27710505E+01</totfact>
</mgrwt>
</event>
<event>
 6    1  0.2236204E-005  0.2788840E+04  0.7818608E-02  0.8306742E-01
          2   -1    0    0  501    0  0.00000000000E+00  0.00000000000E+00  0.14745536082E+04  0.14745536082E+04  0.00000000000E+00 0. -1.
         -2   -1    0    0    0  501 -0.00000000000E+00 -0.00000000000E+00 -0.13186408923E+04  0.13186408923E+04  0.00000000000E+00 0.  1.
         23    2    1    2    0    0  0.11852183056E+04 -0.70201850983E+03  0.28370126678E+03  0.14097559100E+04  0.96710375615E+02 0.  0.
         11    1    3    3    0    0  0.91165885672E+03 -0.58558157502E+03  0.22886953666E+03  0.11074334819E+04  0.00000000000E+00 0.  1.
        -11    1    3    3    0    0  0.27355944891E+03 -0.11643693481E+03  0.54831730116E+02  0.30232242805E+03  0.00000000000E+00 0. -1.
         22    1    1    2    0    0 -0.11852183056E+04  0.70201850983E+03 -0.12778855087E+03  0.13834385906E+04  0.00000000000E+00 0. -1.
<mgrwt>
<rscale>  0 0.27888397E+04</rscale>
<asrwt>0</asrwt>
<pdfrwt beam="1">  1        2 0.22685440E+00 0.27888397E+04</pdfrwt>
<pdfrwt beam="2">  1       -2 0.20286783E+00 0.27888397E+04</pdfrwt>
<totfact> 0.14557879E+00</totfact>
</mgrwt>
</event>
<event>
 6    1  0.2236204E-005  0.3261614E+04  0.7818608E-02  0.8172732E-01
          2   -1    0    0  501    0  0.00000000000E+00  0.00000000000E+00  0.18854111164E+04  0.18854111164E+04  0.00000000000E+00 0. -1.
         -2   -1    0    0    0  501 -0.00000000000E+00 -0.00000000000E+00 -0.14105842368E+04  0.14105842368E+04  0.00000000000E+00 0.  1.
         23    2    1    2    0    0  0.73311579751E+03  0.12938982277E+04  0.91063289696E+03  0.17462991633E+04  0.93150945040E+02 0.  0.
         11    1    3    3    0    0  0.58610232438E+03  0.98664711270E+03  0.73823540322E+03  0.13645438689E+04  0.00000000000E+00 0. -1.
        -11    1    3    3    0    0  0.14701347313E+03  0.30725111498E+03  0.17239749374E+03  0.38175529438E+03  0.00000000000E+00 0.  1.
         22    1    1    2    0    0 -0.73311579751E+03 -0.12938982277E+04 -0.43580601735E+03  0.15496961899E+04  0.00000000000E+00 0.  1.
<mgrwt>
<rscale>  0 0.32616138E+04</rscale>
<asrwt>0</asrwt>
<pdfrwt beam="1">  1        2 0.29006325E+00 0.32616138E+04</pdfrwt>
<pdfrwt beam="2">  1       -2 0.21701296E+00 0.32616138E+04</pdfrwt>
<totfact> 0.66929954E-01</totfact>
</mgrwt>
</event>
<event>
 6    1  0.2236204E-005  0.2782473E+04  0.7818608E-02  0.8308730E-01
         -2   -1    0    0    0  501 -0.00000000000E+00  0.00000000000E+00  0.13736930866E+04  0.13736930866E+04  0.00000000000E+00 0.  1.
          2   -1    0    0  501    0  0.00000000000E+00 -0.00000000000E+00 -0.14090042867E+04  0.14090042867E+04  0.00000000000E+00 0. -1.
         23    2    1    2    0    0 -0.70926189602E+03  0.10956750178E+04 -0.49509222815E+03  0.13988784633E+04  0.90490104611E+02 0.  0.
         11    1    3    3    0    0 -0.12112947758E+03  0.18306284587E+03 -0.12022484761E+03  0.25027658671E+03  0.00000000000E+00 0. -1.
        -11    1    3    3    0    0 -0.58813241844E+03  0.91261217195E+03 -0.37486738055E+03  0.11486018766E+04  0.00000000000E+00 0.  1.
         22    1    1    2    0    0  0.70926189602E+03 -0.10956750178E+04  0.45978102802E+03  0.13838189100E+04  0.00000000000E+00 0.  1.
<mgrwt>
<rscale>  0 0.27824733E+04</rscale>
<asrwt>0</asrwt>
<pdfrwt beam="1">  1        2 0.21676989E+00 0.27824733E+04</pdfrwt>
<pdfrwt beam="2">  1       -2 0.21133740E+00 0.27824733E+04</pdfrwt>
<totfact> 0.13989756E+00</totfact>
</mgrwt>
</event>
<event>
 6    1  0.2236204E-005  0.1958811E+04  0.7818608E-02  0.8626124E-01
          2   -1    0    0  501    0  0.00000000000E+00  0.00000000000E+00  0.12499132210E+04  0.12499132210E+04  0.00000000000E+00 0. -1.
         -2   -1    0    0    0  501 -0.00000000000E+00 -0.00000000000E+00 -0.76744140024E+03  0.76744140024E+03  0.00000000000E+00 0.  1.
         23    2    1    2    0    0  0.17375162939E+03 -0.36607393920E+03  0.11580773475E+04  0.12295458974E+04  0.80250940026E+02 0.  0.
         11    1    3    3    0    0  0.94765193018E+02 -0.18174095813E+03  0.46790569417E+03  0.51082869566E+03  0.00000000000E+00 0.  1.
        -11    1    3    3    0    0  0.78986436370E+02 -0.18433298108E+03  0.69017165331E+03  0.71871720174E+03  0.00000000000E+00 0. -1.
         22    1    1    2    0    0 -0.17375162939E+03  0.36607393920E+03 -0.67560552670E+03  0.78780872386E+03  0.00000000000E+00 0.  1.
<mgrwt>
<rscale>  0 0.19588110E+04</rscale>
<asrwt>0</asrwt>
<pdfrwt beam="1">  1        2 0.19229434E+00 0.19588110E+04</pdfrwt>
<pdfrwt beam="2">  1       -2 0.11806791E+00 0.19588110E+04</pdfrwt>
<totfact> 0.91171918E+00</totfact>
</mgrwt>
</event>
<event>
 6    1  0.2236204E-005  0.1023998E+04  0.7818608E-02  0.9282609E-01
          2   -1    0    0  501    0  0.00000000000E+00  0.00000000000E+00  0.13295101242E+04  0.13295101242E+04  0.00000000000E+00 0. -1.
         -2   -1    0    0    0  501 -0.00000000000E+00 -0.00000000000E+00 -0.19717263119E+03  0.19717263119E+03  0.00000000000E+00 0.  1.
         23    2    1    2    0    0 -0.95990885856E+02 -0.21960457901E+03  0.12382014899E+04  0.12646758717E+04  0.93923955991E+02 0.  0.
         13    1    3    3    0    0 -0.93741001506E+01 -0.27127303647E+02  0.37293720955E+03  0.37404000672E+03  0.00000000000E+00 0.  1.
        -13    1    3    3    0    0 -0.86616785705E+02 -0.19247727536E+03  0.86526428034E+03  0.89063586494E+03  0.00000000000E+00 0. -1.
         22    1    1    2    0    0  0.95990885856E+02  0.21960457901E+03 -0.10586399687E+03  0.26200688373E+03  0.00000000000E+00 0.  1.
<mgrwt>
<rscale>  0 0.10239981E+04</rscale>
<asrwt>0</asrwt>
<pdfrwt beam="1">  1        2 0.20454001E+00 0.10239981E+04</pdfrwt>
<pdfrwt beam="2">  1       -2 0.30334252E-01 0.10239981E+04</pdfrwt>
<totfact> 0.15894477E+02</totfact>
</mgrwt>
</event>
<event>
 6    1  0.2236204E-005  0.2988329E+04  0.7818608E-02  0.8247071E-01
         -2   -1    0    0    0  501 -0.00000000000E+00  0.00000000000E+00  0.13416190830E+04  0.13416190830E+04  0.00000000000E+00 0.  1.
          2   -1    0    0  501    0  0.00000000000E+00 -0.00000000000E+00 -0.16640550732E+04  0.16640550732E+04  0.00000000000E+00 0. -1.
         23    2    1    2    0    0  0.56573019049E+03 -0.41041014245E+03 -0.14880959850E+04  0.16465382702E+04  0.90396245056E+02 0.  0.
         13    1    3    3    0    0  0.39557005677E+03 -0.26143269200E+03 -0.10904455302E+04  0.11890728222E+04  0.00000000000E+00 0.  1.
        -13    1    3    3    0    0  0.17016013373E+03 -0.14897745046E+03 -0.39765045480E+03  0.45746544794E+03  0.00000000000E+00 0. -1.
         22    1    1    2    0    0 -0.56573019049E+03  0.41041014245E+03  0.11656599948E+04  0.13591358861E+04  0.00000000000E+00 0.  1.
<mgrwt>
<rscale>  0 0.29883293E+04</rscale>
<asrwt>0</asrwt>
<pdfrwt beam="1">  1        2 0.25600847E+00 0.29883293E+04</pdfrwt>
<pdfrwt beam="2">  1       -2 0.20640294E+00 0.29883293E+04</pdfrwt>
<totfact> 0.10630966E+00</totfact>
</mgrwt>
</event>
<event>
 6    1  0.2236204E-005  0.3280802E+04  0.7818608E-02  0.8167797E-01
          2   -1    0    0  501    0  0.00000000000E+00  0.00000000000E+00  0.14488802909E+04  0.14488802909E+04  0.00000000000E+00 0. -1.
         -2   -1    0    0    0  501 -0.00000000000E+00 -0.00000000000E+00 -0.18572383184E+04  0.18572383184E+04  0.00000000000E+00 0.  1.
         23    2    1    2    0    0 -0.11000037745E+04  0.87115483429E+03  0.65009221084E+03  0.15484963643E+04  0.79385505158E+02 0.  0.
         11    1    3    3    0    0 -0.70408649139E+03  0.51676925914E+03  0.38055168911E+03  0.95268454519E+03  0.00000000000E+00 0. -1.
        -11    1    3    3    0    0 -0.39591728310E+03  0.35438557515E+03  0.26954052173E+03  0.59581181911E+03  0.00000000000E+00 0.  1.
         22    1    1    2    0    0  0.11000037745E+04 -0.87115483429E+03 -0.10584502383E+04  0.17576222450E+04  0.00000000000E+00 0.  1.
<mgrwt>
<rscale>  0 0.32808023E+04</rscale>
<asrwt>0</asrwt>
<pdfrwt beam="1">  1        2 0.22290466E+00 0.32808023E+04</pdfrwt>
<pdfrwt beam="2">  1       -2 0.28572897E+00 0.32808023E+04</pdfrwt>
<totfact> 0.44103865E-01</totfact>
</mgrwt>
</event>
<event>
 6    1  0.2236204E-005  0.2148833E+04  0.7818608E-02  0.8540032E-01
         -2   -1    0    0    0  501 -0.00000000000E+00  0.00000000000E+00  0.81674661171E+03  0.81674661171E+03  0.00000000000E+00 0.  1.
          2   -1    0    0  501    0  0.00000000000E+00 -0.00000000000E+00 -0.14133767710E+04  0.14133767710E+04  0.00000000000E+00 0. -1.
         23    2    1    2    0    0 -0.10509642765E+04 -0.10030927607E+02 -0.77299378704E+02  0.10578047444E+04  0.91373701642E+02 0.  0.
         13    1    3    3    0    0 -0.73088197534E+03 -0.48376071487E+02 -0.61158145618E+02  0.73502994833E+03  0.00000000000E+00 0. -1.
        -13    1    3    3    0    0 -0.32008230118E+03  0.38345143880E+02 -0.16141233086E+02  0.32277479610E+03  0.00000000000E+00 0.  1.
         22    1    1    2    0    0  0.10509642765E+04  0.10030927607E+02 -0.51933078063E+03  0.11723186383E+04  0.00000000000E+00 0. -1.
<mgrwt>
<rscale>  0 0.21488329E+04</rscale>
<asrwt>0</asrwt>
<pdfrwt beam="1">  1        2 0.21744258E+00 0.21488329E+04</pdfrwt>
<pdfrwt beam="2">  1       -2 0.12565333E+00 0.21488329E+04</pdfrwt>
<totfact> 0.61769809E+00</totfact>
</mgrwt>
</event>
<event>
 6    1  0.2236204E-005  0.2388342E+04  0.7818608E-02  0.8443881E-01
         -2   -1    0    0    0  501 -0.00000000000E+00  0.00000000000E+00  0.95445445002E+03  0.95445445002E+03  0.00000000000E+00 0.  1.
          2   -1    0    0  501    0  0.00000000000E+00 -0.00000000000E+00 -0.14940932639E+04  0.14940932639E+04  0.00000000000E+00 0. -1.
         23    2    1    2    0    0  0.58107820584E+03  0.74431727529E+03  0.47622776426E+03  0.10615924183E+04  0.92333587914E+02 0.  0.
         13    1    3    3    0    0  0.33973063023E+03  0.36166470297E+03  0.25916275497E+03  0.55980674528E+03  0.00000000000E+00 0.  1.
        -13    1    3    3    0    0  0.24134757561E+03  0.38265257232E+03  0.21706500928E+03  0.50178567298E+03  0.00000000000E+00 0. -1.
         22    1    1    2    0    0 -0.58107820584E+03 -0.74431727529E+03 -0.10158665782E+04  0.13869552957E+04  0.00000000000E+00 0. -1.
<mgrwt>
<rscale>  0 0.23883417E+04</rscale>
<asrwt>0</asrwt>
<pdfrwt beam="1">  1        2 0.22986050E+00 0.23883417E+04</pdfrwt>
<pdfrwt beam="2">  1       -2 0.14683915E+00 0.23883417E+04</pdfrwt>
<totfact> 0.36503086E+00</totfact>
</mgrwt>
</event>
<event>
 6    1  0.2236204E-005  0.5719367E+04  0.7818608E-02  0.7726205E-01
         -2   -1    0    0    0  501 -0.00000000000E+00  0.00000000000E+00  0.17416041913E+04  0.17416041913E+04  0.00000000000E+00 0.  1.
          2   -1    0    0  501    0  0.00000000000E+00 -0.00000000000E+00 -0.46955507393E+04  0.46955507393E+04  0.00000000000E+00 0. -1.
         23    2    1    2    0    0  0.26449887127E+04 -0.10072872836E+04 -0.19321251148E+04  0.34280500798E+04  0.88469929656E+02 0.  0.
         13    1    3    3    0    0  0.11966088668E+04 -0.49431054853E+03 -0.91420823264E+03  0.15849266201E+04  0.00000000000E+00 0. -1.
        -13    1    3    3    0    0  0.14483798459E+04 -0.51297673502E+03 -0.10179168822E+04  0.18431234597E+04  0.00000000000E+00 0.  1.
         22    1    1    2    0    0 -0.26449887127E+04  0.10072872836E+04 -0.10218214331E+04  0.30091048508E+04  0.00000000000E+00 0. -1.
<mgrwt>
<rscale>  0 0.57193674E+04</rscale>
<asrwt>0</asrwt>
<pdfrwt beam="1">  1        2 0.72239241E+00 0.57193674E+04</pdfrwt>
<pdfrwt beam="2">  1       -2 0.26793911E+00 0.57193674E+04</pdfrwt>
<totfact> 0.26245087E-03</totfact>
</mgrwt>
</event>
<event>
 6    1  0.2236204E-005  0.4036262E+03  0.7818608E-02  0.1042531E+00
          2   -1    0    0  501    0  0.00000000000E+00  0.00000000000E+00  0.37520305933E+03  0.37520305933E+03  0.00000000000E+00 0. -1.
         -2   -1    0    0    0  501 -0.00000000000E+00 -0.00000000000E+00 -0.10855064233E+03  0.10855064233E+03  0.00000000000E+00 0.  1.
         23    2    1    2    0    0 -0.14687126818E+03 -0.74096370161E+02  0.22892146134E+02  0.18967801219E+03  0.91609259712E+02 0.  0.
         13    1    3    3    0    0 -0.43232904517E+02  0.15958618641E+02 -0.12775792672E+02  0.47822405003E+02  0.00000000000E+00 0.  1.
        -13    1    3    3    0    0 -0.10363836366E+03 -0.90054988802E+02  0.35667938807E+02  0.14185560718E+03  0.00000000000E+00 0. -1.
         22    1    1    2    0    0  0.14687126818E+03  0.74096370161E+02  0.24376027087E+03  0.29407568948E+03  0.00000000000E+00 0. -1.
<mgrwt>
<rscale>  0 0.40362623E+03</rscale>
<asrwt>0</asrwt>
<pdfrwt beam="1">  1        2 0.57723547E-01 0.40362623E+03</pdfrwt>
<pdfrwt beam="2">  1       -2 0.16700099E-01 0.40362623E+03</pdfrwt>
<totfact> 0.24641821E+03</totfact>
</mgrwt>
</event>
<event>
 6    1  0.2236204E-005  0.1571791E+04  0.7818608E-02  0.8838068E-01
          2   -1    0    0  501    0  0.00000000000E+00  0.00000000000E+00  0.35155883912E+04  0.35155883912E+04  0.00000000000E+00 0. -1.
         -2   -1    0    0    0  501 -0.00000000000E+00 -0.00000000000E+00 -0.17568376606E+03  0.17568376606E+03  0.00000000000E+00 0.  1.
         23    2    1    2    0    0  0.71834630918E+03 -0.25573889705E+03  0.12547028692E+04  0.14710266379E+04  0.90643676022E+02 0.  0.
         11    1    3    3    0    0  0.22478880293E+03 -0.12081312223E+03  0.45372500102E+03  0.52056910490E+03  0.00000000000E+00 0. -1.
        -11    1    3    3    0    0  0.49355750626E+03 -0.13492577481E+03  0.80097786817E+03  0.95045753297E+03  0.00000000000E+00 0.  1.
         22    1    1    2    0    0 -0.71834630918E+03  0.25573889705E+03  0.20852017560E+04  0.22202455194E+04  0.00000000000E+00 0. -1.
<mgrwt>
<rscale>  0 0.15717911E+04</rscale>
<asrwt>0</asrwt>
<pdfrwt beam="1">  1        2 0.54085970E+00 0.15717911E+04</pdfrwt>
<pdfrwt beam="2">  1       -2 0.27028274E-01 0.15717911E+04</pdfrwt>
<totfact> 0.95992041E+00</totfact>
</mgrwt>
</event>
<event>
 6    1  0.2236204E-005  0.2093896E+04  0.7818608E-02  0.8563937E-01
         -2   -1    0    0    0  501 -0.00000000000E+00  0.00000000000E+00  0.65083379786E+03  0.65083379786E+03  0.00000000000E+00 0.  1.
          2   -1    0    0  501    0  0.00000000000E+00 -0.00000000000E+00 -0.16841477564E+04  0.16841477564E+04  0.00000000000E+00 0. -1.
         23    2    1    2    0    0 -0.31608515987E+03  0.85473372272E+03 -0.10878472900E+04  0.14220448372E+04  0.91215282020E+02 0.  0.
         11    1    3    3    0    0 -0.67662000416E+02  0.20330654036E+03 -0.19933917126E+03  0.29265645534E+03  0.00000000000E+00 0.  1.
        -11    1    3    3    0    0 -0.24842315945E+03  0.65142718235E+03 -0.88850811872E+03  0.11293883819E+04  0.00000000000E+00 0. -1.
         22    1    1    2    0    0  0.31608515987E+03 -0.85473372272E+03  0.54533331481E+02  0.91293671702E+03  0.00000000000E+00 0.  1.
<mgrwt>
<rscale>  0 0.20938962E+04</rscale>
<asrwt>0</asrwt>
<pdfrwt beam="1">  1        2 0.25909965E+00 0.20938962E+04</pdfrwt>
<pdfrwt beam="2">  1       -2 0.10012828E+00 0.20938962E+04</pdfrwt>
<totfact> 0.75994541E+00</totfact>
</mgrwt>
</event>
<event>
 6    1  0.2236204E-005  0.4101459E+04  0.7818608E-02  0.7984386E-01
          2   -1    0    0  501    0  0.00000000000E+00  0.00000000000E+00  0.34319727349E+04  0.34319727349E+04  0.00000000000E+00 0.  1.
         -2   -1    0    0    0  501 -0.00000000000E+00 -0.00000000000E+00 -0.12253860373E+04  0.12253860373E+04  0.00000000000E+00 0. -1.
         23    2    1    2    0    0  0.16505195506E+04  0.16723856897E+03  0.24708012124E+04  0.29774799564E+04  0.91349515882E+02 0.  0.
         13    1    3    3    0    0  0.10231936458E+04  0.13551338564E+03  0.15910780447E+04  0.18965280011E+04  0.00000000000E+00 0.  1.
        -13    1    3    3    0    0  0.62732590470E+03  0.31725183324E+02  0.87972316770E+03  0.10809519553E+04  0.00000000000E+00 0. -1.
         22    1    1    2    0    0 -0.16505195506E+04 -0.16723856897E+03 -0.26421451479E+03  0.16798788157E+04  0.00000000000E+00 0. -1.
<mgrwt>
<rscale>  0 0.41014590E+04</rscale>
<asrwt>0</asrwt>
<pdfrwt beam="1">  1        2 0.52799580E+00 0.41014590E+04</pdfrwt>
<pdfrwt beam="2">  1       -2 0.18852093E+00 0.41014590E+04</pdfrwt>
<totfact> 0.11229972E-01</totfact>
</mgrwt>
</event>
<event>
 6    1  0.2236204E-005  0.2184969E+04  0.7818608E-02  0.8524710E-01
         -2   -1    0    0    0  501 -0.00000000000E+00  0.00000000000E+00  0.14810495692E+04  0.14810495692E+04  0.00000000000E+00 0.  1.
          2   -1    0    0  501    0  0.00000000000E+00 -0.00000000000E+00 -0.80586272755E+03  0.80586272755E+03  0.00000000000E+00 0. -1.
         23    2    1    2    0    0  0.69878498305E+03 -0.30337313632E+03  0.11549572852E+04  0.13866260140E+04  0.92030753832E+02 0.  0.
         11    1    3    3    0    0  0.33366583391E+03 -0.17690327952E+03  0.50695849677E+03  0.63216657336E+03  0.00000000000E+00 0. -1.
        -11    1    3    3    0    0  0.36511914914E+03 -0.12646985680E+03  0.64799878840E+03  0.75445944061E+03  0.00000000000E+00 0.  1.
         22    1    1    2    0    0 -0.69878498305E+03  0.30337313632E+03 -0.47977044357E+03  0.90028628275E+03  0.00000000000E+00 0. -1.
<mgrwt>
<rscale>  0 0.21849692E+04</rscale>
<asrwt>0</asrwt>
<pdfrwt beam="1">  1        2 0.12397888E+00 0.21849692E+04</pdfrwt>
<pdfrwt beam="2">  1       -2 0.22785378E+00 0.21849692E+04</pdfrwt>
<totfact> 0.27521087E+00</totfact>
</mgrwt>
</event>
<event>
 6    1  0.2236204E-005  0.1996335E+04  0.7818608E-02  0.8608336E-01
         -2   -1    0    0    0  501 -0.00000000000E+00  0.00000000000E+00  0.52048249520E+03  0.52048249520E+03  0.00000000000E+00 0.  1.
          2   -1    0    0  501    0  0.00000000000E+00 -0.00000000000E+00 -0.19142582140E+04  0.19142582140E+04  0.00000000000E+00 0. -1.
         23    2    1    2    0    0 -0.57666480127E+02  0.99116000337E+03 -0.60014443555E+03  0.11636883149E+04  0.90959197357E+02 0.  0.
         11    1    3    3    0    0 -0.68269614013E+02  0.82982259832E+03 -0.53301601800E+03  0.98862144440E+03  0.00000000000E+00 0. -1.
        -11    1    3    3    0    0  0.10603133887E+02  0.16133740505E+03 -0.67128417546E+02  0.17506687053E+03  0.00000000000E+00 0.  1.
         22    1    1    2    0    0  0.57666480127E+02 -0.99116000337E+03 -0.79363128327E+03  0.12710523943E+04  0.00000000000E+00 0. -1.
<mgrwt>
<rscale>  0 0.19963345E+04</rscale>
<asrwt>0</asrwt>
<pdfrwt beam="1">  1        2 0.29450127E+00 0.19963345E+04</pdfrwt>
<pdfrwt beam="2">  1       -2 0.80074230E-01 0.19963345E+04</pdfrwt>
<totfact> 0.95576673E+00</totfact>
</mgrwt>
</event>
<event>
 6    1  0.2236204E-005  0.2874573E+04  0.7818608E-02  0.8280483E-01
          2   -1    0    0  501    0  0.00000000000E+00  0.00000000000E+00  0.31360966765E+04  0.31360966765E+04  0.00000000000E+00 0. -1.
         -2   -1    0    0    0  501 -0.00000000000E+00 -0.00000000000E+00 -0.65871475657E+03  0.65871475657E+03  0.00000000000E+00 0.  1.
         23    2    1    2    0    0 -0.72017537268E+03 -0.23341852386E+02  0.28794091307E+04  0.29696912675E+04  0.94190620803E+02 0.  0.
         11    1    3    3    0    0 -0.34339180862E+03 -0.58012344037E+02  0.13624972056E+04  0.14063008219E+04  0.00000000000E+00 0. -1.
        -11    1    3    3    0    0 -0.37678356406E+03  0.34670491650E+02  0.15169119251E+04  0.15633904457E+04  0.00000000000E+00 0.  1.
         22    1    1    2    0    0  0.72017537268E+03  0.23341852386E+02 -0.40202721073E+03  0.82512016558E+03  0.00000000000E+00 0.  1.
<mgrwt>
<rscale>  0 0.28745735E+04</rscale>
<asrwt>0</asrwt>
<pdfrwt beam="1">  1        2 0.48247640E+00 0.28745735E+04</pdfrwt>
<pdfrwt beam="2">  1       -2 0.10134073E+00 0.28745735E+04</pdfrwt>
<totfact> 0.98686240E-01</totfact>
</mgrwt>
</event>
<event>
 6    1  0.2236204E-005  0.8107067E+03  0.7818608E-02  0.9544648E-01
          1   -1    0    0  501    0  0.00000000000E+00  0.00000000000E+00  0.14678636804E+04  0.14678636804E+04  0.00000000000E+00 0. -1.
         -1   -1    0    0    0  501 -0.00000000000E+00 -0.00000000000E+00 -0.11193910854E+03  0.11193910854E+03  0.00000000000E+00 0.  1.
         23    2    1    2    0    0 -0.35277073493E+03  0.11251594989E+03  0.38971856496E+03  0.54507525081E+03  0.90107928441E+02 0.  0.
         11    1    3    3    0    0 -0.31150290564E+03  0.79602083272E+02  0.36612735968E+03  0.48725742210E+03  0.00000000000E+00 0. -1.
        -11    1    3    3    0    0 -0.41267829295E+02  0.32913866622E+02  0.23591205278E+02  0.57817828714E+02  0.00000000000E+00 0.  1.
         22    1    1    2    0    0  0.35277073493E+03 -0.11251594989E+03  0.96620600695E+03  0.10347275382E+04  0.00000000000E+00 0.  1.
<mgrwt>
<rscale>  0 0.81070673E+03</rscale>
<asrwt>0</asrwt>
<pdfrwt beam="1">  1        1 0.22582517E+00 0.81070673E+03</pdfrwt>
<pdfrwt beam="2">  1       -1 0.17221402E-01 0.81070673E+03</pdfrwt>
<totfact> 0.18316412E+02</totfact>
</mgrwt>
</event>
<event>
 6    1  0.2236204E-005  0.9787827E+03  0.7818608E-02  0.9332127E-01
         -1   -1    0    0    0  501 -0.00000000000E+00  0.00000000000E+00  0.30246525309E+03  0.30246525309E+03  0.00000000000E+00 0.  1.
          1   -1    0    0  501    0  0.00000000000E+00 -0.00000000000E+00 -0.79183932941E+03  0.79183932941E+03  0.00000000000E+00 0. -1.
         23    2    1    2    0    0 -0.36190254514E+03 -0.26501255070E+03 -0.37989330139E+02  0.45794517674E+03  0.84056477961E+02 0.  0.
         13    1    3    3    0    0 -0.29612888144E+03 -0.23587927108E+03 -0.58633317248E+02  0.38310469958E+03  0.00000000000E+00 0. -1.
        -13    1    3    3    0    0 -0.65773663698E+02 -0.29133279623E+02  0.20643987109E+02  0.74840477160E+02  0.00000000000E+00 0.  1.
         22    1    1    2    0    0  0.36190254514E+03  0.26501255070E+03 -0.45138474618E+03  0.63635940575E+03  0.00000000000E+00 0.  1.
<mgrwt>
<rscale>  0 0.97878268E+03</rscale>
<asrwt>0</asrwt>
<pdfrwt beam="1">  1        1 0.12182143E+00 0.97878268E+03</pdfrwt>
<pdfrwt beam="2">  1       -1 0.46533116E-01 0.97878268E+03</pdfrwt>
<totfact> 0.10370717E+02</totfact>
</mgrwt>
</event>
<event>
 6    1  0.2236204E-005  0.4829956E+03  0.7818608E-02  0.1018315E+00
          1   -1    0    0  501    0  0.00000000000E+00  0.00000000000E+00  0.67216909643E+03  0.67216909643E+03  0.00000000000E+00 0. -1.
         -1   -1    0    0    0  501 -0.00000000000E+00 -0.00000000000E+00 -0.86765661976E+02  0.86765661976E+02  0.00000000000E+00 0.  1.
         23    2    1    2    0    0  0.24802929689E+02  0.86257397486E+02  0.64080586223E+03  0.65345986592E+03  0.91225650813E+02 0.  0.
         11    1    3    3    0    0  0.56651519652E+02  0.39089372038E+02  0.28920800669E+03  0.29728546015E+03  0.00000000000E+00 0. -1.
        -11    1    3    3    0    0 -0.31848589963E+02  0.47168025448E+02  0.35159785554E+03  0.35617440577E+03  0.00000000000E+00 0.  1.
         22    1    1    2    0    0 -0.24802929689E+02 -0.86257397486E+02 -0.55402427769E+02  0.10547489249E+03  0.00000000000E+00 0.  1.
<mgrwt>
<rscale>  0 0.48299564E+03</rscale>
<asrwt>0</asrwt>
<pdfrwt beam="1">  1        1 0.10341063E+00 0.48299564E+03</pdfrwt>
<pdfrwt beam="2">  1       -1 0.13348564E-01 0.48299564E+03</pdfrwt>
<totfact> 0.11580002E+03</totfact>
</mgrwt>
</event>
<event>
 6    1  0.2236204E-005  0.2034677E+04  0.7818608E-02  0.8590578E-01
          2   -1    0    0  501    0  0.00000000000E+00  0.00000000000E+00  0.24591398245E+04  0.24591398245E+04  0.00000000000E+00 0. -1.
         -2   -1    0    0    0  501 -0.00000000000E+00 -0.00000000000E+00 -0.42086969455E+03  0.42086969455E+03  0.00000000000E+00 0.  1.
         23    2    1    2    0    0 -0.25604170085E+03 -0.96770987071E+03  0.12619962485E+04  0.16132732066E+04  0.89421257491E+02 0.  0.
         13    1    3    3    0    0  0.87714385460E+00 -0.37509022862E+02  0.28406785027E+02  0.47059978889E+02  0.00000000000E+00 0.  1.
        -13    1    3    3    0    0 -0.25691884471E+03 -0.93020084785E+03  0.12335894635E+04  0.15662132277E+04  0.00000000000E+00 0. -1.
         22    1    1    2    0    0  0.25604170085E+03  0.96770987071E+03  0.77627388147E+03  0.12667363125E+04  0.00000000000E+00 0. -1.
<mgrwt>
<rscale>  0 0.20346768E+04</rscale>
<asrwt>0</asrwt>
<pdfrwt beam="1">  1        2 0.37832919E+00 0.20346768E+04</pdfrwt>
<pdfrwt beam="2">  1       -2 0.64749185E-01 0.20346768E+04</pdfrwt>
<totfact> 0.74997671E+00</totfact>
</mgrwt>
</event>
<event>
 6    1  0.2236204E-005  0.2215148E+04  0.7818608E-02  0.8512149E-01
          2   -1    0    0  501    0  0.00000000000E+00  0.00000000000E+00  0.28417871716E+04  0.28417871716E+04  0.00000000000E+00 0. -1.
         -2   -1    0    0    0  501 -0.00000000000E+00 -0.00000000000E+00 -0.43167212521E+03  0.43167212521E+03  0.00000000000E+00 0.  1.
         23    2    1    2    0    0  0.72206901664E+03  0.36183091763E+02  0.24433578981E+04  0.25497204156E+04  0.91561447323E+02 0.  0.
         11    1    3    3    0    0  0.48741643060E+03  0.28787032802E+02  0.14939137767E+04  0.15716812152E+04  0.00000000000E+00 0.  1.
        -11    1    3    3    0    0  0.23465258604E+03  0.73960589616E+01  0.94944412142E+03  0.97803920040E+03  0.00000000000E+00 0. -1.
         22    1    1    2    0    0 -0.72206901664E+03 -0.36183091763E+02 -0.33242851739E+02  0.72373888117E+03  0.00000000000E+00 0.  1.
<mgrwt>
<rscale>  0 0.22151481E+04</rscale>
<asrwt>0</asrwt>
<pdfrwt beam="1">  1        2 0.43719801E+00 0.22151481E+04</pdfrwt>
<pdfrwt beam="2">  1       -2 0.66411098E-01 0.22151481E+04</pdfrwt>
<totfact> 0.41530004E+00</totfact>
</mgrwt>
</event>
<event>
 6    1  0.2236204E-005  0.1404179E+04  0.7818608E-02  0.8950799E-01
          4   -1    0    0  501    0  0.00000000000E+00  0.00000000000E+00  0.27621608069E+04  0.27621608069E+04  0.00000000000E+00 0. -1.
         -4   -1    0    0    0  501 -0.00000000000E+00 -0.00000000000E+00 -0.17845787468E+03  0.17845787468E+03  0.00000000000E+00 0.  1.
         23    2    1    2    0    0  0.19613313043E+03  0.22215338294E+03  0.26234052680E+04  0.26416260297E+04  0.90069695822E+02 0.  0.
         11    1    3    3    0    0  0.18691812460E+03  0.18177349824E+03  0.20126349829E+04  0.20294530210E+04  0.00000000000E+00 0. -1.
        -11    1    3    3    0    0  0.92150058315E+01  0.40379884708E+02  0.61077028513E+03  0.61217300873E+03  0.00000000000E+00 0.  1.
         22    1    1    2    0    0 -0.19613313043E+03 -0.22215338294E+03 -0.39702335800E+02  0.29899265187E+03  0.00000000000E+00 0.  1.
<mgrwt>
<rscale>  0 0.14041785E+04</rscale>
<asrwt>0</asrwt>
<pdfrwt beam="1">  1        4 0.42494779E+00 0.14041785E+04</pdfrwt>
<pdfrwt beam="2">  1       -4 0.27455060E-01 0.14041785E+04</pdfrwt>
<totfact> 0.11502261E-01</totfact>
</mgrwt>
</event>
<event>
 6    1  0.2236204E-005  0.4435354E+04  0.7818608E-02  0.7922053E-01
          3   -1    0    0  501    0  0.00000000000E+00  0.00000000000E+00  0.36673575153E+04  0.36673575153E+04  0.00000000000E+00 0. -1.
         -3   -1    0    0    0  501 -0.00000000000E+00 -0.00000000000E+00 -0.13410447743E+04  0.13410447743E+04  0.00000000000E+00 0.  1.
         23    2    1    2    0    0  0.83001601746E+03 -0.16734472710E+04  0.25114640491E+04  0.31312679405E+04  0.89637532867E+02 0.  0.
         13    1    3    3    0    0  0.37589704802E+03 -0.72299656379E+03  0.11655164789E+04  0.14221291378E+04  0.00000000000E+00 0. -1.
        -13    1    3    3    0    0  0.45411896944E+03 -0.95045070721E+03  0.13459475701E+04  0.17091388027E+04  0.00000000000E+00 0.  1.
         22    1    1    2    0    0 -0.83001601746E+03  0.16734472710E+04 -0.18515130805E+03  0.18771343492E+04  0.00000000000E+00 0.  1.
<mgrwt>
<rscale>  0 0.44353537E+04</rscale>
<asrwt>0</asrwt>
<pdfrwt beam="1">  1        3 0.56420884E+00 0.44353537E+04</pdfrwt>
<pdfrwt beam="2">  1       -3 0.20631458E+00 0.44353537E+04</pdfrwt>
<totfact> 0.44035134E-04</totfact>
</mgrwt>
</event>
<event>
 6    1  0.2236204E-005  0.1597892E+04  0.7818608E-02  0.8821844E-01
         -1   -1    0    0    0  501 -0.00000000000E+00  0.00000000000E+00  0.45274925928E+03  0.45274925928E+03  0.00000000000E+00 0.  1.
          1   -1    0    0  501    0  0.00000000000E+00 -0.00000000000E+00 -0.14098638818E+04  0.14098638818E+04  0.00000000000E+00 0. -1.
         23    2    1    2    0    0 -0.71519726028E+02  0.40172714100E+03  0.31696079634E+03  0.52479105277E+03  0.91878918313E+02 0.  0.
         11    1    3    3    0    0 -0.20395373411E+02  0.17639696921E+03  0.83156705468E+02  0.19607880984E+03  0.00000000000E+00 0.  1.
        -11    1    3    3    0    0 -0.51124352616E+02  0.22533017179E+03  0.23380409087E+03  0.32871224293E+03  0.00000000000E+00 0. -1.
         22    1    1    2    0    0  0.71519726028E+02 -0.40172714100E+03 -0.12740754189E+04  0.13378220883E+04  0.00000000000E+00 0. -1.
<mgrwt>
<rscale>  0 0.15978921E+04</rscale>
<asrwt>0</asrwt>
<pdfrwt beam="1">  1        1 0.21690214E+00 0.15978921E+04</pdfrwt>
<pdfrwt beam="2">  1       -1 0.69653731E-01 0.15978921E+04</pdfrwt>
<totfact> 0.15124804E+01</totfact>
</mgrwt>
</event>
<event>
 6    1  0.2236204E-005  0.1895370E+04  0.7818608E-02  0.8657165E-01
          2   -1    0    0  501    0  0.00000000000E+00  0.00000000000E+00  0.60450280480E+03  0.60450280480E+03  0.00000000000E+00 0. -1.
         -2   -1    0    0    0  501 -0.00000000000E+00 -0.00000000000E+00 -0.14856948294E+04  0.14856948294E+04  0.00000000000E+00 0.  1.
         23    2    1    2    0    0 -0.15504656776E+03  0.89344197691E+03 -0.73681403099E+03  0.11719803345E+04  0.91460286616E+02 0.  0.
         13    1    3    3    0    0 -0.68780864646E+02  0.58694246506E+03 -0.51562695638E+03  0.78428529425E+03  0.00000000000E+00 0. -1.
        -13    1    3    3    0    0 -0.86265703110E+02  0.30649951185E+03 -0.22118707461E+03  0.38769504029E+03  0.00000000000E+00 0.  1.
         22    1    1    2    0    0  0.15504656776E+03 -0.89344197691E+03 -0.14437799357E+03  0.91821729961E+03  0.00000000000E+00 0. -1.
<mgrwt>
<rscale>  0 0.18953698E+04</rscale>
<asrwt>0</asrwt>
<pdfrwt beam="1">  1        2 0.93000433E-01 0.18953698E+04</pdfrwt>
<pdfrwt beam="2">  1       -2 0.22856843E+00 0.18953698E+04</pdfrwt>
<totfact> 0.40170952E+00</totfact>
</mgrwt>
</event>
<event>
 6    1  0.2236204E-005  0.1088248E+04  0.7818608E-02  0.9216722E-01
          2   -1    0    0  501    0  0.00000000000E+00  0.00000000000E+00  0.20087693186E+04  0.20087693186E+04  0.00000000000E+00 0. -1.
         -2   -1    0    0    0  501 -0.00000000000E+00 -0.00000000000E+00 -0.14738933625E+03  0.14738933625E+03  0.00000000000E+00 0.  1.
         23    2    1    2    0    0  0.50306185567E+03 -0.38800843797E+00  0.13286272820E+04  0.14234262201E+04  0.88432847010E+02 0.  0.
         13    1    3    3    0    0  0.53707889007E+02 -0.87322153808E+01  0.23160265160E+03  0.23790875805E+03  0.00000000000E+00 0. -1.
        -13    1    3    3    0    0  0.44935396666E+03  0.83442069428E+01  0.10970246304E+04  0.11855174621E+04  0.00000000000E+00 0.  1.
         22    1    1    2    0    0 -0.50306185567E+03  0.38800843797E+00  0.53275270027E+03  0.73273243468E+03  0.00000000000E+00 0.  1.
<mgrwt>
<rscale>  0 0.10882485E+04</rscale>
<asrwt>0</asrwt>
<pdfrwt beam="1">  1        2 0.30904142E+00 0.10882485E+04</pdfrwt>
<pdfrwt beam="2">  1       -2 0.22675284E-01 0.10882485E+04</pdfrwt>
<totfact> 0.11255364E+02</totfact>
</mgrwt>
</event>
<event>
 6    1  0.2236204E-005  0.2664687E+04  0.7818608E-02  0.8346554E-01
          3   -1    0    0  501    0  0.00000000000E+00  0.00000000000E+00  0.29987331696E+04  0.29987331696E+04  0.00000000000E+00 0. -1.
         -3   -1    0    0    0  501 -0.00000000000E+00 -0.00000000000E+00 -0.59196323142E+03  0.59196323142E+03  0.00000000000E+00 0.  1.
         23    2    1    2    0    0  0.44911048390E+03 -0.11475966983E+04  0.18780768312E+04  0.22497285378E+04  0.12420749301E+03 0.  0.
         13    1    3    3    0    0  0.34873032685E+03 -0.10081734097E+04  0.16148301264E+04  0.19353818233E+04  0.00000000000E+00 0. -1.
        -13    1    3    3    0    0  0.10038015704E+03 -0.13942328855E+03  0.26324670486E+03  0.31434671454E+03  0.00000000000E+00 0.  1.
         22    1    1    2    0    0 -0.44911048390E+03  0.11475966983E+04  0.52869310692E+03  0.13409678631E+04  0.00000000000E+00 0.  1.
<mgrwt>
<rscale>  0 0.26646874E+04</rscale>
<asrwt>0</asrwt>
<pdfrwt beam="1">  1        3 0.46134355E+00 0.26646874E+04</pdfrwt>
<pdfrwt beam="2">  1       -3 0.91071268E-01 0.26646874E+04</pdfrwt>
<totfact> 0.13274221E-02</totfact>
</mgrwt>
</event>
<event>
 6    1  0.2236204E-005  0.1625119E+04  0.7818608E-02  0.8805264E-01
         -2   -1    0    0    0  501 -0.00000000000E+00  0.00000000000E+00  0.22056729893E+03  0.22056729893E+03  0.00000000000E+00 0.  1.
          2   -1    0    0  501    0  0.00000000000E+00 -0.00000000000E+00 -0.29934292275E+04  0.29934292275E+04  0.00000000000E+00 0. -1.
         23    2    1    2    0    0 -0.40217458147E+03  0.53891039688E+03 -0.49753927835E+03  0.84138994876E+03  0.90680221203E+02 0.  0.
         13    1    3    3    0    0 -0.21713138944E+03  0.31205380415E+03 -0.33406500517E+03  0.50608600519E+03  0.00000000000E+00 0.  1.
        -13    1    3    3    0    0 -0.18504319203E+03  0.22685659273E+03 -0.16347427318E+03  0.33530394357E+03  0.00000000000E+00 0. -1.
         22    1    1    2    0    0  0.40217458147E+03 -0.53891039688E+03 -0.22753226502E+04  0.23726065777E+04  0.00000000000E+00 0. -1.
<mgrwt>
<rscale>  0 0.16251186E+04</rscale>
<asrwt>0</asrwt>
<pdfrwt beam="1">  1        2 0.46052752E+00 0.16251186E+04</pdfrwt>
<pdfrwt beam="2">  1       -2 0.33933434E-01 0.16251186E+04</pdfrwt>
<totfact> 0.13750010E+01</totfact>
</mgrwt>
</event>
<event>
 6    1  0.2236204E-005  0.1194631E+04  0.7818608E-02  0.9117569E-01
          2   -1    0    0  501    0  0.00000000000E+00  0.00000000000E+00  0.25170093230E+04  0.25170093230E+04  0.00000000000E+00 0. -1.
         -2   -1    0    0    0  501 -0.00000000000E+00 -0.00000000000E+00 -0.14174991753E+03  0.14174991753E+03  0.00000000000E+00 0.  1.
         23    2    1    2    0    0 -0.13667264389E+03 -0.48021826774E+03  0.19099235929E+04  0.19762444680E+04  0.91897063914E+02 0.  0.
         11    1    3    3    0    0 -0.12334164682E+03 -0.28808512499E+03  0.12599092604E+04  0.12982979417E+04  0.00000000000E+00 0.  1.
        -11    1    3    3    0    0 -0.13330997078E+02 -0.19213314275E+03  0.65001433248E+03  0.67794652625E+03  0.00000000000E+00 0. -1.
         22    1    1    2    0    0  0.13667264389E+03  0.48021826774E+03  0.46533581259E+03  0.68251477254E+03  0.00000000000E+00 0.  1.
<mgrwt>
<rscale>  0 0.11946311E+04</rscale>
<asrwt>0</asrwt>
<pdfrwt beam="1">  1        2 0.38723217E+00 0.11946311E+04</pdfrwt>
<pdfrwt beam="2">  1       -2 0.21807681E-01 0.11946311E+04</pdfrwt>
<totfact> 0.62019491E+01</totfact>
</mgrwt>
</event>
<event>
 6    1  0.2236204E-005  0.2835585E+04  0.7818608E-02  0.8292305E-01
         -2   -1    0    0    0  501 -0.00000000000E+00  0.00000000000E+00  0.13595248317E+04  0.13595248317E+04  0.00000000000E+00 0.  1.
          2   -1    0    0  501    0  0.00000000000E+00 -0.00000000000E+00 -0.14785573804E+04  0.14785573804E+04  0.00000000000E+00 0. -1.
         23    2    1    2    0    0 -0.80082839601E+03  0.38118257728E+03 -0.11647814330E+04  0.14668721603E+04  0.91497927330E+02 0.  0.
         13    1    3    3    0    0 -0.56021102190E+03  0.28950712896E+03 -0.88443640991E+03  0.10862221366E+04  0.00000000000E+00 0.  1.
        -13    1    3    3    0    0 -0.24061737411E+03  0.91675448327E+02 -0.28034502314E+03  0.38065002370E+03  0.00000000000E+00 0. -1.
         22    1    1    2    0    0  0.80082839601E+03 -0.38118257728E+03  0.10457488844E+04  0.13712100518E+04  0.00000000000E+00 0.  1.
<mgrwt>
<rscale>  0 0.28355849E+04</rscale>
<asrwt>0</asrwt>
<pdfrwt beam="1">  1        2 0.22747036E+00 0.28355849E+04</pdfrwt>
<pdfrwt beam="2">  1       -2 0.20915767E+00 0.28355849E+04</pdfrwt>
<totfact> 0.13133029E+00</totfact>
</mgrwt>
</event>
<event>
 6    1  0.2412779E-005  0.4218274E+04  0.7818608E-02  0.7961905E-01
         -2   -1    0    0    0  501 -0.00000000000E+00  0.00000000000E+00  0.15632139074E+04  0.15632139074E+04  0.00000000000E+00 0.  1.
          2   -1    0    0  501    0  0.00000000000E+00 -0.00000000000E+00 -0.28457129095E+04  0.28457129095E+04  0.00000000000E+00 0. -1.
         23    2    1    2    0    0 -0.43072082096E+03 -0.28206406240E+03  0.14952149760E+04  0.15839001789E+04  0.89394582381E+02 0.  0.
         11    1    3    3    0    0 -0.36642026941E+03 -0.23763578276E+03  0.11547008906E+04  0.12345317840E+04  0.00000000000E+00 0. -1.
        -11    1    3    3    0    0 -0.64300551551E+02 -0.44428279638E+02  0.34051408546E+03  0.34936839490E+03  0.00000000000E+00 0.  1.
         22    1    1    2    0    0  0.43072082096E+03  0.28206406240E+03 -0.27777139781E+04  0.28250266379E+04  0.00000000000E+00 0. -1.
<mgrwt>
<rscale>  0 0.42182736E+04</rscale>
<asrwt>0</asrwt>
<pdfrwt beam="1">  1        2 0.43780198E+00 0.42182736E+04</pdfrwt>
<pdfrwt beam="2">  1       -2 0.24049445E+00 0.42182736E+04</pdfrwt>
<totfact> 0.12362984E-01</totfact>
</mgrwt>
</event>
<event>
 6    1  0.2236204E-005  0.1783014E+04  0.7818608E-02  0.8715385E-01
          2   -1    0    0  501    0  0.00000000000E+00  0.00000000000E+00  0.14824704488E+04  0.14824704488E+04  0.00000000000E+00 0. -1.
         -2   -1    0    0    0  501 -0.00000000000E+00 -0.00000000000E+00 -0.53612188469E+03  0.53612188469E+03  0.00000000000E+00 0.  1.
         23    2    1    2    0    0  0.18740815616E+03  0.37195857700E+02  0.14575546317E+04  0.14728478947E+04  0.91159573935E+02 0.  0.
         13    1    3    3    0    0  0.79157789385E+02  0.62074489728E+02  0.70506186646E+03  0.71220182072E+03  0.00000000000E+00 0. -1.
        -13    1    3    3    0    0  0.10825036678E+03 -0.24878632028E+02  0.75249276521E+03  0.76064607403E+03  0.00000000000E+00 0.  1.
         22    1    1    2    0    0 -0.18740815616E+03 -0.37195857700E+02 -0.51120606760E+03  0.54574443871E+03  0.00000000000E+00 0.  1.
<mgrwt>
<rscale>  0 0.17830141E+04</rscale>
<asrwt>0</asrwt>
<pdfrwt beam="1">  1        2 0.22807237E+00 0.17830141E+04</pdfrwt>
<pdfrwt beam="2">  1       -2 0.82480291E-01 0.17830141E+04</pdfrwt>
<totfact> 0.15840049E+01</totfact>
</mgrwt>
</event>
<event>
 6    1  0.2236204E-005  0.1247996E+04  0.7818608E-02  0.9071853E-01
         -2   -1    0    0    0  501 -0.00000000000E+00  0.00000000000E+00  0.18309426199E+03  0.18309426199E+03  0.00000000000E+00 0.  1.
          2   -1    0    0  501    0  0.00000000000E+00 -0.00000000000E+00 -0.21266275499E+04  0.21266275499E+04  0.00000000000E+00 0. -1.
         23    2    1    2    0    0  0.41977885733E+03  0.44928699428E+03 -0.11331054138E+04  0.12924379619E+04  0.91623765005E+02 0.  0.
         11    1    3    3    0    0  0.19319852162E+03  0.16163052408E+03 -0.53123119444E+03  0.58792574107E+03  0.00000000000E+00 0. -1.
        -11    1    3    3    0    0  0.22658033570E+03  0.28765647020E+03 -0.60187421934E+03  0.70451222082E+03  0.00000000000E+00 0.  1.
         22    1    1    2    0    0 -0.41977885733E+03 -0.44928699428E+03 -0.81042787414E+03  0.10172838500E+04  0.00000000000E+00 0. -1.
<mgrwt>
<rscale>  0 0.12479957E+04</rscale>
<asrwt>0</asrwt>
<pdfrwt beam="1">  1        2 0.32717346E+00 0.12479957E+04</pdfrwt>
<pdfrwt beam="2">  1       -2 0.28168349E-01 0.12479957E+04</pdfrwt>
<totfact> 0.64508542E+01</totfact>
</mgrwt>
</event>
<event>
 6    1  0.2236204E-005  0.8861738E+03  0.7818608E-02  0.9443032E-01
         -2   -1    0    0    0  501 -0.00000000000E+00  0.00000000000E+00  0.25188139706E+03  0.25188139706E+03  0.00000000000E+00 0.  1.
          2   -1    0    0  501    0  0.00000000000E+00 -0.00000000000E+00 -0.77943827079E+03  0.77943827079E+03  0.00000000000E+00 0. -1.
         23    2    1    2    0    0 -0.67735675171E+02 -0.27537268644E+03 -0.65549946443E+03  0.72021270128E+03  0.92782267135E+02 0.  0.
         13    1    3    3    0    0  0.73931471058E+01 -0.49143913803E+02 -0.20030855797E+03  0.20638144607E+03  0.00000000000E+00 0.  1.
        -13    1    3    3    0    0 -0.75128822277E+02 -0.22622877264E+03 -0.45519090646E+03  0.51383125521E+03  0.00000000000E+00 0. -1.
         22    1    1    2    0    0  0.67735675171E+02  0.27537268644E+03  0.12794259070E+03  0.31110696657E+03  0.00000000000E+00 0.  1.
<mgrwt>
<rscale>  0 0.88617380E+03</rscale>
<asrwt>0</asrwt>
<pdfrwt beam="1">  1        2 0.11991358E+00 0.88617380E+03</pdfrwt>
<pdfrwt beam="2">  1       -2 0.38750985E-01 0.88617380E+03</pdfrwt>
<totfact> 0.22497753E+02</totfact>
</mgrwt>
</event>
<event>
 6    1  0.2236204E-005  0.3031112E+04  0.7818608E-02  0.8234902E-01
          2   -1    0    0  501    0  0.00000000000E+00  0.00000000000E+00  0.14810606788E+04  0.14810606788E+04  0.00000000000E+00 0. -1.
         -2   -1    0    0    0  501 -0.00000000000E+00 -0.00000000000E+00 -0.15508543985E+04  0.15508543985E+04  0.00000000000E+00 0.  1.
         23    2    1    2    0    0 -0.87089992765E+03  0.62303875236E+03 -0.11058754800E+04  0.15419119279E+04  0.88813542083E+02 0.  0.
         13    1    3    3    0    0 -0.37337408145E+03  0.26908677259E+03 -0.53888653547E+03  0.70867100547E+03  0.00000000000E+00 0.  1.
        -13    1    3    3    0    0 -0.49752584619E+03  0.35395197978E+03 -0.56698894455E+03  0.83324092246E+03  0.00000000000E+00 0. -1.
         22    1    1    2    0    0  0.87089992765E+03 -0.62303875236E+03  0.10360817603E+04  0.14900031493E+04  0.00000000000E+00 0. -1.
<mgrwt>
<rscale>  0 0.30311117E+04</rscale>
<asrwt>0</asrwt>
<pdfrwt beam="1">  1        2 0.22785549E+00 0.30311117E+04</pdfrwt>
<pdfrwt beam="2">  1       -2 0.23859298E+00 0.30311117E+04</pdfrwt>
<totfact> 0.83965219E-01</totfact>
</mgrwt>
</event>
<event>
 6    1  0.2236204E-005  0.1264820E+04  0.7818608E-02  0.9057938E-01
          4   -1    0    0  501    0  0.00000000000E+00  0.00000000000E+00  0.13715230997E+04  0.13715230997E+04  0.00000000000E+00 0. -1.
         -4   -1    0    0    0  501 -0.00000000000E+00 -0.00000000000E+00 -0.29160447818E+03  0.29160447818E+03  0.00000000000E+00 0.  1.
         23    2    1    2    0    0 -0.54512121813E+03  0.31227128010E+03  0.59041184694E+03  0.86670597018E+03  0.89008959729E+02 0.  0.
         11    1    3    3    0    0 -0.10885873881E+03  0.90661918404E+02  0.96260947517E+02  0.17127748971E+03  0.00000000000E+00 0.  1.
        -11    1    3    3    0    0 -0.43626247931E+03  0.22160936169E+03  0.49415089942E+03  0.69542848047E+03  0.00000000000E+00 0. -1.
         22    1    1    2    0    0  0.54512121813E+03 -0.31227128010E+03  0.48950677455E+03  0.79642160767E+03  0.00000000000E+00 0. -1.
<mgrwt>
<rscale>  0 0.12648198E+04</rscale>
<asrwt>0</asrwt>
<pdfrwt beam="1">  1        4 0.21100355E+00 0.12648198E+04</pdfrwt>
<pdfrwt beam="2">  1       -4 0.44862228E-01 0.12648198E+04</pdfrwt>
<totfact> 0.10580583E+00</totfact>
</mgrwt>
</event>
<event>
 6    1  0.2236204E-005  0.4186709E+04  0.7818608E-02  0.7967905E-01
          2   -1    0    0  501    0  0.00000000000E+00  0.00000000000E+00  0.33506974425E+04  0.33506974425E+04  0.00000000000E+00 0. -1.
         -2   -1    0    0    0  501 -0.00000000000E+00 -0.00000000000E+00 -0.13078272913E+04  0.13078272913E+04  0.00000000000E+00 0.  1.
         23    2    1    2    0    0 -0.11042460294E+04  0.16319272909E+04  0.23863544679E+03  0.19868569317E+04  0.90042291895E+02 0.  0.
         13    1    3    3    0    0 -0.33546316525E+03  0.44682874348E+03  0.97820461469E+02  0.56723919463E+03  0.00000000000E+00 0. -1.
        -13    1    3    3    0    0 -0.76878286419E+03  0.11850985474E+04  0.14081498532E+03  0.14196177371E+04  0.00000000000E+00 0.  1.
         22    1    1    2    0    0  0.11042460294E+04 -0.16319272909E+04  0.18042347044E+04  0.26716678021E+04  0.00000000000E+00 0. -1.
<mgrwt>
<rscale>  0 0.41867092E+04</rscale>
<asrwt>0</asrwt>
<pdfrwt beam="1">  1        2 0.51549191E+00 0.41867092E+04</pdfrwt>
<pdfrwt beam="2">  1       -2 0.20120420E+00 0.41867092E+04</pdfrwt>
<totfact> 0.10437518E-01</totfact>
</mgrwt>
</event>
<event>
 6    1  0.2236204E-005  0.1005703E+04  0.7818608E-02  0.9302312E-01
         -2   -1    0    0    0  501 -0.00000000000E+00  0.00000000000E+00  0.11235300810E+03  0.11235300810E+03  0.00000000000E+00 0.  1.
          2   -1    0    0  501    0  0.00000000000E+00 -0.00000000000E+00 -0.22505821727E+04  0.22505821727E+04  0.00000000000E+00 0. -1.
         23    2    1    2    0    0 -0.21488643367E+03  0.37647866410E+03 -0.16570823218E+04  0.17153128771E+04  0.92000441532E+02 0.  0.
         13    1    3    3    0    0 -0.38754372215E+02  0.28004569126E+02 -0.11451374823E+03  0.12409494668E+03  0.00000000000E+00 0.  1.
        -13    1    3    3    0    0 -0.17613206145E+03  0.34847409498E+03 -0.15425685736E+04  0.15912179305E+04  0.00000000000E+00 0. -1.
         22    1    1    2    0    0  0.21488643367E+03 -0.37647866410E+03 -0.48114684277E+03  0.64762230367E+03  0.00000000000E+00 0.  1.
<mgrwt>
<rscale>  0 0.10057031E+04</rscale>
<asrwt>0</asrwt>
<pdfrwt beam="1">  1        2 0.34624339E+00 0.10057031E+04</pdfrwt>
<pdfrwt beam="2">  1       -2 0.17285079E-01 0.10057031E+04</pdfrwt>
<totfact> 0.13398432E+02</totfact>
</mgrwt>
</event>
<event>
 6    1  0.2236204E-005  0.4157284E+04  0.7818608E-02  0.7973548E-01
         -2   -1    0    0    0  501 -0.00000000000E+00  0.00000000000E+00  0.35833169510E+04  0.35833169510E+04  0.00000000000E+00 0.  1.
          2   -1    0    0  501    0  0.00000000000E+00 -0.00000000000E+00 -0.12057971414E+04  0.12057971414E+04  0.00000000000E+00 0. -1.
         23    2    1    2    0    0  0.10174737432E+04  0.16787500359E+04  0.19734275890E+04  0.27849322084E+04  0.89311005446E+02 0.  0.
         13    1    3    3    0    0  0.64563630615E+03  0.11275386431E+04  0.12664818429E+04  0.18144326634E+04  0.00000000000E+00 0. -1.
        -13    1    3    3    0    0  0.37183743701E+03  0.55121139279E+03  0.70694574606E+03  0.97049954507E+03  0.00000000000E+00 0.  1.
         22    1    1    2    0    0 -0.10174737432E+04 -0.16787500359E+04  0.40409222065E+03  0.20041818839E+04  0.00000000000E+00 0. -1.
<mgrwt>
<rscale>  0 0.41572844E+04</rscale>
<asrwt>0</asrwt>
<pdfrwt beam="1">  1        2 0.18550725E+00 0.41572844E+04</pdfrwt>
<pdfrwt beam="2">  1       -2 0.55127953E+00 0.41572844E+04</pdfrwt>
<totfact> 0.12335734E-02</totfact>
</mgrwt>
</event>
<event>
 6    1  0.2236204E-005  0.3322157E+04  0.7818608E-02  0.8157280E-01
          2   -1    0    0  501    0  0.00000000000E+00  0.00000000000E+00  0.16765725148E+04  0.16765725148E+04  0.00000000000E+00 0. -1.
         -2   -1    0    0    0  501 -0.00000000000E+00 -0.00000000000E+00 -0.16457276324E+04  0.16457276324E+04  0.00000000000E+00 0.  1.
         23    2    1    2    0    0  0.52967349937E+03 -0.12045568485E+04  0.10272283281E+04  0.16717574523E+04  0.89798240493E+02 0.  0.
         11    1    3    3    0    0  0.14424314477E+03 -0.42036976795E+03  0.32052842344E+03  0.54795556102E+03  0.00000000000E+00 0. -1.
        -11    1    3    3    0    0  0.38543035460E+03 -0.78418708050E+03  0.70669990468E+03  0.11238018912E+04  0.00000000000E+00 0.  1.
         22    1    1    2    0    0 -0.52967349937E+03  0.12045568485E+04 -0.99638344569E+03  0.16505426950E+04  0.00000000000E+00 0.  1.
<mgrwt>
<rscale>  0 0.33221570E+04</rscale>
<asrwt>0</asrwt>
<pdfrwt beam="1">  1        2 0.25793423E+00 0.33221570E+04</pdfrwt>
<pdfrwt beam="2">  1       -2 0.25318887E+00 0.33221570E+04</pdfrwt>
<totfact> 0.51754835E-01</totfact>
</mgrwt>
</event>
<event>
 6    1  0.2236204E-005  0.4071422E+04  0.7818608E-02  0.7990291E-01
         -2   -1    0    0    0  501 -0.00000000000E+00  0.00000000000E+00  0.14246737210E+04  0.14246737210E+04  0.00000000000E+00 0.  1.
          2   -1    0    0  501    0  0.00000000000E+00 -0.00000000000E+00 -0.29088204911E+04  0.29088204911E+04  0.00000000000E+00 0. -1.
         23    2    1    2    0    0 -0.10525531821E+04  0.14941488391E+04 -0.16930523024E+04  0.24939316348E+04  0.11366594019E+03 0.  0.
         13    1    3    3    0    0 -0.30965965185E+03  0.40239188493E+03 -0.53430761105E+03  0.73708408765E+03  0.00000000000E+00 0. -1.
        -13    1    3    3    0    0 -0.74289353021E+03  0.10917569542E+04 -0.11587446914E+04  0.17568475472E+04  0.00000000000E+00 0.  1.
         22    1    1    2    0    0  0.10525531821E+04 -0.14941488391E+04  0.20890553237E+03  0.18395625773E+04  0.00000000000E+00 0.  1.
<mgrwt>
<rscale>  0 0.40714224E+04</rscale>
<asrwt>0</asrwt>
<pdfrwt beam="1">  1        2 0.44751084E+00 0.40714224E+04</pdfrwt>
<pdfrwt beam="2">  1       -2 0.21918057E+00 0.40714224E+04</pdfrwt>
<totfact> 0.15559363E-01</totfact>
</mgrwt>
</event>
<event>
 6    1  0.2236204E-005  0.2363909E+04  0.7818608E-02  0.8453140E-01
          2   -1    0    0  501    0  0.00000000000E+00  0.00000000000E+00  0.10974856487E+04  0.10974856487E+04  0.00000000000E+00 0. -1.
         -2   -1    0    0    0  501 -0.00000000000E+00 -0.00000000000E+00 -0.12729243932E+04  0.12729243932E+04  0.00000000000E+00 0.  1.
         23    2    1    2    0    0 -0.50162629630E+02 -0.29973600128E+03  0.10557464325E+04  0.11022716821E+04  0.89690420811E+02 0.  0.
         11    1    3    3    0    0 -0.28722161505E+02 -0.16179076258E+03  0.41194649853E+03  0.44351001236E+03  0.00000000000E+00 0.  1.
        -11    1    3    3    0    0 -0.21440468126E+02 -0.13794523870E+03  0.64379993394E+03  0.65876166972E+03  0.00000000000E+00 0. -1.
         22    1    1    2    0    0  0.50162629630E+02  0.29973600128E+03 -0.12311851769E+04  0.12681383599E+04  0.00000000000E+00 0.  1.
<mgrwt>
<rscale>  0 0.23639088E+04</rscale>
<asrwt>0</asrwt>
<pdfrwt beam="1">  1        2 0.16884395E+00 0.23639088E+04</pdfrwt>
<pdfrwt beam="2">  1       -2 0.19583452E+00 0.23639088E+04</pdfrwt>
<totfact> 0.27938350E+00</totfact>
</mgrwt>
</event>
<event>
 6    1  0.2236204E-005  0.5557720E+04  0.7818608E-02  0.7747796E-01
          2   -1    0    0  501    0  0.00000000000E+00  0.00000000000E+00  0.37510846007E+04  0.37510846007E+04  0.00000000000E+00 0. -1.
         -2   -1    0    0    0  501 -0.00000000000E+00 -0.00000000000E+00 -0.20586215753E+04  0.20586215753E+04  0.00000000000E+00 0.  1.
         23    2    1    2    0    0 -0.15974721511E+04 -0.39262288999E+03 -0.14938263510E+04  0.22238297144E+04  0.88495335230E+02 0.  0.
         13    1    3    3    0    0 -0.97562909630E+03 -0.20427621338E+03 -0.93941936369E+03  0.13697042184E+04  0.00000000000E+00 0. -1.
        -13    1    3    3    0    0 -0.62184305479E+03 -0.18834667661E+03 -0.55440698731E+03  0.85412549603E+03  0.00000000000E+00 0.  1.
         22    1    1    2    0    0  0.15974721511E+04  0.39262288999E+03  0.31862893764E+04  0.35858764615E+04  0.00000000000E+00 0. -1.
<mgrwt>
<rscale>  0 0.55577203E+04</rscale>
<asrwt>0</asrwt>
<pdfrwt beam="1">  1        2 0.57708994E+00 0.55577203E+04</pdfrwt>
<pdfrwt beam="2">  1       -2 0.31671101E+00 0.55577203E+04</pdfrwt>
<totfact> 0.93148445E-03</totfact>
</mgrwt>
</event>
<event>
 6    1  0.2236204E-005  0.2889318E+04  0.7818608E-02  0.8276063E-01
          2   -1    0    0  501    0  0.00000000000E+00  0.00000000000E+00  0.23109664839E+04  0.23109664839E+04  0.00000000000E+00 0. -1.
         -2   -1    0    0    0  501 -0.00000000000E+00 -0.00000000000E+00 -0.90310269864E+03  0.90310269864E+03  0.00000000000E+00 0.  1.
         23    2    1    2    0    0 -0.29674305186E+03 -0.11087104968E+04 -0.26846748229E+03  0.11824732771E+04  0.94195845679E+02 0.  0.
         11    1    3    3    0    0 -0.17063228432E+03 -0.55457390639E+03 -0.92567411354E+02  0.58756814051E+03  0.00000000000E+00 0.  1.
        -11    1    3    3    0    0 -0.12611076754E+03 -0.55413659043E+03 -0.17590007094E+03  0.59490513655E+03  0.00000000000E+00 0. -1.
         22    1    1    2    0    0  0.29674305186E+03  0.11087104968E+04  0.16763312676E+04  0.20315959055E+04  0.00000000000E+00 0. -1.
<mgrwt>
<rscale>  0 0.28893183E+04</rscale>
<asrwt>0</asrwt>
<pdfrwt beam="1">  1        2 0.35553330E+00 0.28893183E+04</pdfrwt>
<pdfrwt beam="2">  1       -2 0.13893888E+00 0.28893183E+04</pdfrwt>
<totfact> 0.14140583E+00</totfact>
</mgrwt>
</event>
<event>
 6    1  0.2236204E-005  0.1993497E+04  0.7818608E-02  0.8609667E-01
         -2   -1    0    0    0  501 -0.00000000000E+00  0.00000000000E+00  0.35344943990E+03  0.35344943990E+03  0.00000000000E+00 0.  1.
          2   -1    0    0  501    0  0.00000000000E+00 -0.00000000000E+00 -0.28108903977E+04  0.28108903977E+04  0.00000000000E+00 0. -1.
         23    2    1    2    0    0  0.85869749184E+02  0.47560274384E+03  0.14898828856E+03  0.51348242913E+03  0.88854437815E+02 0.  0.
         13    1    3    3    0    0  0.26041154846E+02  0.22748435852E+02  0.91566236026E+01  0.35769775443E+02  0.00000000000E+00 0.  1.
        -13    1    3    3    0    0  0.59828594338E+02  0.45285430799E+03  0.13983166496E+03  0.47771265369E+03  0.00000000000E+00 0. -1.
         22    1    1    2    0    0 -0.85869749184E+02 -0.47560274384E+03 -0.26064292464E+04  0.26508574085E+04  0.00000000000E+00 0. -1.
<mgrwt>
<rscale>  0 0.19934971E+04</rscale>
<asrwt>0</asrwt>
<pdfrwt beam="1">  1        2 0.43244467E+00 0.19934971E+04</pdfrwt>
<pdfrwt beam="2">  1       -2 0.54376838E-01 0.19934971E+04</pdfrwt>
<totfact> 0.67504061E+00</totfact>
</mgrwt>
</event>
<event>
 6    1  0.2236204E-005  0.4221302E+03  0.7818608E-02  0.1036375E+00
         -2   -1    0    0    0  501 -0.00000000000E+00  0.00000000000E+00  0.36256009154E+02  0.36256009154E+02  0.00000000000E+00 0. -1.
          2   -1    0    0  501    0  0.00000000000E+00 -0.00000000000E+00 -0.12287195445E+04  0.12287195445E+04  0.00000000000E+00 0.  1.
         23    2    1    2    0    0 -0.12940334894E+03 -0.59811232936E+02 -0.10499590311E+04  0.10634063496E+04  0.89980481358E+02 0.  0.
         11    1    3    3    0    0 -0.11626413074E+03 -0.11940395507E+02 -0.65575322892E+03  0.66608724532E+03  0.00000000000E+00 0. -1.
        -11    1    3    3    0    0 -0.13139218193E+02 -0.47870837429E+02 -0.39420580223E+03  0.39731910430E+03  0.00000000000E+00 0.  1.
         22    1    1    2    0    0  0.12940334894E+03  0.59811232936E+02 -0.14250450424E+03  0.20156920407E+03  0.00000000000E+00 0. -1.
<mgrwt>
<rscale>  0 0.42213016E+03</rscale>
<asrwt>0</asrwt>
<pdfrwt beam="1">  1        2 0.18903375E+00 0.42213016E+03</pdfrwt>
<pdfrwt beam="2">  1       -2 0.55778483E-02 0.42213016E+03</pdfrwt>
<totfact> 0.31933541E+03</totfact>
</mgrwt>
</event>
<event>
 6    1  0.2236204E-005  0.1151306E+04  0.7818608E-02  0.9156579E-01
         -2   -1    0    0    0  501 -0.00000000000E+00  0.00000000000E+00  0.18630215447E+03  0.18630215447E+03  0.00000000000E+00 0. -1.
          2   -1    0    0  501    0  0.00000000000E+00 -0.00000000000E+00 -0.17787047942E+04  0.17787047942E+04  0.00000000000E+00 0.  1.
         23    2    1    2    0    0  0.16599890435E+03 -0.42205652461E+03 -0.20652672330E+03  0.50680963625E+03  0.92278782782E+02 0.  0.
         13    1    3    3    0    0  0.94159501565E+02 -0.27845294830E+03 -0.86717009827E+02  0.30646679420E+03  0.00000000000E+00 0.  1.
        -13    1    3    3    0    0  0.71839402786E+02 -0.14360357631E+03 -0.11980971347E+03  0.20034284206E+03  0.00000000000E+00 0. -1.
         22    1    1    2    0    0 -0.16599890435E+03  0.42205652461E+03 -0.13858759165E+04  0.14581973125E+04  0.00000000000E+00 0.  1.
<mgrwt>
<rscale>  0 0.11513063E+04</rscale>
<asrwt>0</asrwt>
<pdfrwt beam="1">  1        2 0.27364691E+00 0.11513063E+04</pdfrwt>
<pdfrwt beam="2">  1       -2 0.28661868E-01 0.11513063E+04</pdfrwt>
<totfact> 0.98000525E+01</totfact>
</mgrwt>
</event>
<event>
 6    1  0.2236204E-005  0.3298231E+04  0.7818608E-02  0.8163346E-01
          2   -1    0    0  501    0  0.00000000000E+00  0.00000000000E+00  0.31211118328E+04  0.31211118328E+04  0.00000000000E+00 0. -1.
         -2   -1    0    0    0  501 -0.00000000000E+00 -0.00000000000E+00 -0.87135042608E+03  0.87135042608E+03  0.00000000000E+00 0.  1.
         23    2    1    2    0    0 -0.84746705330E+03 -0.12653053625E+04  0.18876579874E+04  0.24271134310E+04  0.91808837236E+02 0.  0.
         11    1    3    3    0    0 -0.63888268684E+03 -0.10144325485E+04  0.15100949454E+04  0.19281159787E+04  0.00000000000E+00 0. -1.
        -11    1    3    3    0    0 -0.20858436647E+03 -0.25087281397E+03  0.37756304199E+03  0.49899745230E+03  0.00000000000E+00 0.  1.
         22    1    1    2    0    0  0.84746705330E+03  0.12653053625E+04  0.36210341928E+03  0.15653488279E+04  0.00000000000E+00 0.  1.
<mgrwt>
<rscale>  0 0.32982311E+04</rscale>
<asrwt>0</asrwt>
<pdfrwt beam="1">  1        2 0.48017104E+00 0.32982311E+04</pdfrwt>
<pdfrwt beam="2">  1       -2 0.13405391E+00 0.32982311E+04</pdfrwt>
<totfact> 0.48898749E-01</totfact>
</mgrwt>
</event>
<event>
 6    1  0.2236204E-005  0.1761501E+04  0.7818608E-02  0.8727045E-01
          2   -1    0    0  501    0  0.00000000000E+00  0.00000000000E+00  0.15720045409E+04  0.15720045409E+04  0.00000000000E+00 0. -1.
         -2   -1    0    0    0  501 -0.00000000000E+00 -0.00000000000E+00 -0.49346002467E+03  0.49346002467E+03  0.00000000000E+00 0.  1.
         23    2    1    2    0    0  0.55938980050E+03 -0.50465361434E+03  0.11117874604E+02  0.75894558193E+03  0.91008625012E+02 0.  0.
         13    1    3    3    0    0  0.35655636181E+03 -0.37747540420E+03 -0.64160186221E+00  0.51924997022E+03  0.00000000000E+00 0.  1.
        -13    1    3    3    0    0  0.20283343869E+03 -0.12717821014E+03  0.11759476466E+02  0.23969561171E+03  0.00000000000E+00 0. -1.
         22    1    1    2    0    0 -0.55938980050E+03  0.50465361434E+03  0.10674266417E+04  0.13065189837E+04  0.00000000000E+00 0. -1.
<mgrwt>
<rscale>  0 0.17615010E+04</rscale>
<asrwt>0</asrwt>
<pdfrwt beam="1">  1        2 0.24184685E+00 0.17615010E+04</pdfrwt>
<pdfrwt beam="2">  1       -2 0.75916928E-01 0.17615010E+04</pdfrwt>
<totfact> 0.17016630E+01</totfact>
</mgrwt>
</event>
<event>
 6    1  0.2236204E-005  0.4790690E+04  0.7818608E-02  0.7861632E-01
         -2   -1    0    0    0  501 -0.00000000000E+00  0.00000000000E+00  0.25372929202E+04  0.25372929202E+04  0.00000000000E+00 0.  1.
          2   -1    0    0  501    0  0.00000000000E+00 -0.00000000000E+00 -0.22613386939E+04  0.22613386939E+04  0.00000000000E+00 0. -1.
         23    2    1    2    0    0  0.11361802720E+02 -0.21375786488E+04 -0.94271621727E+03  0.23380363161E+04  0.91259952957E+02 0.  0.
         13    1    3    3    0    0 -0.35919010663E+02 -0.12306284978E+04 -0.52586730371E+03  0.13387580424E+04  0.00000000000E+00 0.  1.
        -13    1    3    3    0    0  0.47280813383E+02 -0.90695015093E+03 -0.41684891355E+03  0.99927827371E+03  0.00000000000E+00 0. -1.
         22    1    1    2    0    0 -0.11361802720E+02  0.21375786488E+04  0.12186704436E+04  0.24605952979E+04  0.00000000000E+00 0. -1.
<mgrwt>
<rscale>  0 0.47906904E+04</rscale>
<asrwt>0</asrwt>
<pdfrwt beam="1">  1        2 0.34789826E+00 0.47906904E+04</pdfrwt>
<pdfrwt beam="2">  1       -2 0.39035276E+00 0.47906904E+04</pdfrwt>
<totfact> 0.30291900E-02</totfact>
</mgrwt>
</event>
<event>
 6    1  0.2236204E-005  0.5313371E+04  0.7818608E-02  0.7781905E-01
          2   -1    0    0  501    0  0.00000000000E+00  0.00000000000E+00  0.27482702814E+04  0.27482702814E+04  0.00000000000E+00 0. -1.
         -2   -1    0    0    0  501 -0.00000000000E+00 -0.00000000000E+00 -0.25681523488E+04  0.25681523488E+04  0.00000000000E+00 0.  1.
         23    2    1    2    0    0 -0.35566122322E+03 -0.10583243220E+04 -0.23211838999E+04  0.25772519286E+04  0.88246983229E+02 0.  0.
         11    1    3    3    0    0 -0.38769066484E+02 -0.21976950556E+03 -0.48969376388E+03  0.53814650280E+03  0.00000000000E+00 0. -1.
        -11    1    3    3    0    0 -0.31689215674E+03 -0.83855481639E+03 -0.18314901360E+04  0.20391054258E+04  0.00000000000E+00 0.  1.
         22    1    1    2    0    0  0.35566122322E+03  0.10583243220E+04  0.25013018324E+04  0.27391707017E+04  0.00000000000E+00 0. -1.
<mgrwt>
<rscale>  0 0.53133706E+04</rscale>
<asrwt>0</asrwt>
<pdfrwt beam="1">  1        2 0.42281082E+00 0.53133706E+04</pdfrwt>
<pdfrwt beam="2">  1       -2 0.39510036E+00 0.53133706E+04</pdfrwt>
<totfact> 0.14108837E-02</totfact>
</mgrwt>
</event>
<event>
 6    1  0.2236204E-005  0.9419301E+03  0.7818608E-02  0.9374633E-01
         -1   -1    0    0    0  501 -0.00000000000E+00  0.00000000000E+00  0.13455360875E+03  0.13455360875E+03  0.00000000000E+00 0.  1.
          1   -1    0    0  501    0  0.00000000000E+00 -0.00000000000E+00 -0.16484735699E+04  0.16484735699E+04  0.00000000000E+00 0. -1.
         23    2    1    2    0    0 -0.44210221028E+03  0.84819784975E+02 -0.52974721389E+03  0.70078655999E+03  0.88436032114E+02 0.  0.
         13    1    3    3    0    0 -0.39429329952E+03  0.49794703598E+02 -0.48174315046E+03  0.62451835967E+03  0.00000000000E+00 0. -1.
        -13    1    3    3    0    0 -0.47808910762E+02  0.35025081377E+02 -0.48004063436E+02  0.76268200320E+02  0.00000000000E+00 0.  1.
         22    1    1    2    0    0  0.44210221028E+03 -0.84819784975E+02 -0.98417274724E+03  0.10822406187E+04  0.00000000000E+00 0. -1.
<mgrwt>
<rscale>  0 0.94193008E+03</rscale>
<asrwt>0</asrwt>
<pdfrwt beam="1">  1        1 0.25361130E+00 0.94193008E+03</pdfrwt>
<pdfrwt beam="2">  1       -1 0.20700556E-01 0.94193008E+03</pdfrwt>
<totfact> 0.10054442E+02</totfact>
</mgrwt>
</event>
<event>
 6    1  0.2236204E-005  0.3095156E+04  0.7818608E-02  0.8217068E-01
          2   -1    0    0  501    0  0.00000000000E+00  0.00000000000E+00  0.41199451664E+04  0.41199451664E+04  0.00000000000E+00 0. -1.
         -2   -1    0    0    0  501 -0.00000000000E+00 -0.00000000000E+00 -0.58131798651E+03  0.58131798651E+03  0.00000000000E+00 0.  1.
         23    2    1    2    0    0  0.42653553493E+03 -0.62473142218E+03 -0.27747511503E+03  0.81090858839E+03  0.91424213726E+02 0.  0.
         13    1    3    3    0    0  0.29635803068E+03 -0.40903134311E+03 -0.22788916447E+03  0.55413734153E+03  0.00000000000E+00 0.  1.
        -13    1    3    3    0    0  0.13017750425E+03 -0.21570007907E+03 -0.49585950556E+02  0.25677124686E+03  0.00000000000E+00 0. -1.
         22    1    1    2    0    0 -0.42653553493E+03  0.62473142218E+03  0.38161022950E+04  0.38903545646E+04  0.00000000000E+00 0. -1.
<mgrwt>
<rscale>  0 0.30951564E+04</rscale>
<asrwt>0</asrwt>
<pdfrwt beam="1">  1        2 0.63383770E+00 0.30951564E+04</pdfrwt>
<pdfrwt beam="2">  1       -2 0.89433539E-01 0.30951564E+04</pdfrwt>
<totfact> 0.24768507E-01</totfact>
</mgrwt>
</event>
<event>
 6    1  0.2236204E-005  0.2944427E+04  0.7818608E-02  0.8259780E-01
         -2   -1    0    0    0  501 -0.00000000000E+00  0.00000000000E+00  0.15480781049E+04  0.15480781049E+04  0.00000000000E+00 0. -1.
          2   -1    0    0  501    0  0.00000000000E+00 -0.00000000000E+00 -0.14000670663E+04  0.14000670663E+04  0.00000000000E+00 0.  1.
         23    2    1    2    0    0 -0.11590046046E+04 -0.83630132710E+03 -0.27368914741E+03  0.14580033558E+04  0.90423740479E+02 0.  0.
         13    1    3    3    0    0 -0.45307550638E+03 -0.38096043036E+03 -0.10509532981E+03  0.60120985715E+03  0.00000000000E+00 0.  1.
        -13    1    3    3    0    0 -0.70592909820E+03 -0.45534089674E+03 -0.16859381761E+03  0.85679349861E+03  0.00000000000E+00 0. -1.
         22    1    1    2    0    0  0.11590046046E+04  0.83630132710E+03  0.42170018598E+03  0.14901418154E+04  0.00000000000E+00 0. -1.
<mgrwt>
<rscale>  0 0.29444274E+04</rscale>
<asrwt>0</asrwt>
<pdfrwt beam="1">  1        2 0.21539493E+00 0.29444274E+04</pdfrwt>
<pdfrwt beam="2">  1       -2 0.23816586E+00 0.29444274E+04</pdfrwt>
<totfact> 0.94617840E-01</totfact>
</mgrwt>
</event>
<event>
 6    1  0.2236204E-005  0.1955424E+04  0.7818608E-02  0.8627749E-01
         -2   -1    0    0    0  501 -0.00000000000E+00  0.00000000000E+00  0.39877130722E+03  0.39877130722E+03  0.00000000000E+00 0.  1.
          2   -1    0    0  501    0  0.00000000000E+00 -0.00000000000E+00 -0.23971663763E+04  0.23971663763E+04  0.00000000000E+00 0. -1.
         23    2    1    2    0    0  0.79591284411E+03 -0.20667542847E+03 -0.17508412133E+04  0.19371740957E+04  0.10491203365E+03 0.  0.
         11    1    3    3    0    0  0.56876350902E+03 -0.15479019302E+03 -0.11393854502E+04  0.12828293484E+04  0.00000000000E+00 0.  1.
        -11    1    3    3    0    0  0.22714933509E+03 -0.51885235449E+02 -0.61145576316E+03  0.65434474736E+03  0.00000000000E+00 0. -1.
         22    1    1    2    0    0 -0.79591284411E+03  0.20667542847E+03 -0.24755385573E+03  0.85876358775E+03  0.00000000000E+00 0.  1.
<mgrwt>
<rscale>  0 0.19554244E+04</rscale>
<asrwt>0</asrwt>
<pdfrwt beam="1">  1        2 0.36879483E+00 0.19554244E+04</pdfrwt>
<pdfrwt beam="2">  1       -2 0.61349431E-01 0.19554244E+04</pdfrwt>
<totfact> 0.91959204E+00</totfact>
</mgrwt>
</event>
<event>
 6    1  0.2236204E-005  0.9520192E+03  0.7818608E-02  0.9362794E-01
          2   -1    0    0  501    0  0.00000000000E+00  0.00000000000E+00  0.86032191913E+03  0.86032191913E+03  0.00000000000E+00 0. -1.
         -2   -1    0    0    0  501 -0.00000000000E+00 -0.00000000000E+00 -0.26337248859E+03  0.26337248859E+03  0.00000000000E+00 0.  1.
         23    2    1    2    0    0  0.22221111790E+03  0.20386352598E+03  0.72927834617E+03  0.79437835883E+03  0.90840258986E+02 0.  0.
         13    1    3    3    0    0  0.11619232000E+03  0.12354914738E+03  0.29601926352E+03  0.34116337937E+03  0.00000000000E+00 0.  1.
        -13    1    3    3    0    0  0.10601879789E+03  0.80314378602E+02  0.43325908265E+03  0.45321497947E+03  0.00000000000E+00 0. -1.
         22    1    1    2    0    0 -0.22221111790E+03 -0.20386352598E+03 -0.13232891563E+03  0.32931604889E+03  0.00000000000E+00 0.  1.
<mgrwt>
<rscale>  0 0.95201917E+03</rscale>
<asrwt>0</asrwt>
<pdfrwt beam="1">  1        2 0.13235722E+00 0.95201917E+03</pdfrwt>
<pdfrwt beam="2">  1       -2 0.40518845E-01 0.95201917E+03</pdfrwt>
<totfact> 0.18001127E+02</totfact>
</mgrwt>
</event>
<event>
 6    1  0.2236204E-005  0.5148832E+04  0.7818608E-02  0.7805950E-01
          2   -1    0    0  501    0  0.00000000000E+00  0.00000000000E+00  0.27630557946E+04  0.27630557946E+04  0.00000000000E+00 0. -1.
         -2   -1    0    0    0  501 -0.00000000000E+00 -0.00000000000E+00 -0.23986545996E+04  0.23986545996E+04  0.00000000000E+00 0.  1.
         23    2    1    2    0    0  0.20433620702E+04  0.89779052510E+03 -0.11022988266E+04  0.24910240910E+04  0.93712018329E+02 0.  0.
         13    1    3    3    0    0  0.34268321570E+03  0.15543918486E+03 -0.22530558864E+03  0.43858378309E+03  0.00000000000E+00 0.  1.
        -13    1    3    3    0    0  0.17006788545E+04  0.74235134024E+03 -0.87699323792E+03  0.20524403079E+04  0.00000000000E+00 0. -1.
         22    1    1    2    0    0 -0.20433620702E+04 -0.89779052510E+03  0.14667000216E+04  0.26706863032E+04  0.00000000000E+00 0. -1.
<mgrwt>
<rscale>  0 0.51488315E+04</rscale>
<asrwt>0</asrwt>
<pdfrwt beam="1">  1        2 0.42508551E+00 0.51488315E+04</pdfrwt>
<pdfrwt beam="2">  1       -2 0.36902378E+00 0.51488315E+04</pdfrwt>
<totfact> 0.20631640E-02</totfact>
</mgrwt>
</event>
<event>
 6    1  0.2236204E-005  0.4305586E+04  0.7818608E-02  0.7945586E-01
          1   -1    0    0  501    0  0.00000000000E+00  0.00000000000E+00  0.13577654777E+04  0.13577654777E+04  0.00000000000E+00 0. -1.
         -1   -1    0    0    0  501 -0.00000000000E+00 -0.00000000000E+00 -0.34133423532E+04  0.34133423532E+04  0.00000000000E+00 0.  1.
         23    2    1    2    0    0  0.86790471673E+02  0.21339907669E+04 -0.73747704414E+03  0.22613595677E+04  0.91790655211E+02 0.  0.
         13    1    3    3    0    0  0.29032640295E+02  0.14953154610E+04 -0.48685727148E+03  0.15728449463E+04  0.00000000000E+00 0.  1.
        -13    1    3    3    0    0  0.57757831378E+02  0.63867530587E+03 -0.25061977266E+03  0.68851462139E+03  0.00000000000E+00 0. -1.
         22    1    1    2    0    0 -0.86790471673E+02 -0.21339907669E+04 -0.13180998313E+04  0.25097482632E+04  0.00000000000E+00 0. -1.
<mgrwt>
<rscale>  0 0.43055863E+04</rscale>
<asrwt>0</asrwt>
<pdfrwt beam="1">  1        1 0.20888700E+00 0.43055863E+04</pdfrwt>
<pdfrwt beam="2">  1       -1 0.52512959E+00 0.43055863E+04</pdfrwt>
<totfact> 0.65471856E-03</totfact>
</mgrwt>
</event>
<event>
 6    1  0.2236204E-005  0.4737313E+03  0.7818608E-02  0.1020872E+00
          1   -1    0    0  501    0  0.00000000000E+00  0.00000000000E+00  0.80509074277E+03  0.80509074277E+03  0.00000000000E+00 0. -1.
         -1   -1    0    0    0  501 -0.00000000000E+00 -0.00000000000E+00 -0.69688202728E+02  0.69688202728E+02  0.00000000000E+00 0.  1.
         23    2    1    2    0    0 -0.71254763468E+02 -0.50860980768E+01  0.78131659698E+03  0.78986009992E+03  0.91215366130E+02 0.  0.
         13    1    3    3    0    0 -0.17447589297E+02  0.41277262509E+02  0.30931454944E+03  0.31254395094E+03  0.00000000000E+00 0.  1.
        -13    1    3    3    0    0 -0.53807174170E+02 -0.46363360586E+02  0.47200204754E+03  0.47731614898E+03  0.00000000000E+00 0. -1.
         22    1    1    2    0    0  0.71254763468E+02  0.50860980768E+01 -0.45914056935E+02  0.84918845580E+02  0.00000000000E+00 0.  1.
<mgrwt>
<rscale>  0 0.47373126E+03</rscale>
<asrwt>0</asrwt>
<pdfrwt beam="1">  1        1 0.12386011E+00 0.47373126E+03</pdfrwt>
<pdfrwt beam="2">  1       -1 0.10721263E-01 0.47373126E+03</pdfrwt>
<totfact> 0.12463083E+03</totfact>
</mgrwt>
</event>
<event>
 6    1  0.2236204E-005  0.8783161E+03  0.7818608E-02  0.9453101E-01
          2   -1    0    0  501    0  0.00000000000E+00  0.00000000000E+00  0.16461285204E+04  0.16461285204E+04  0.00000000000E+00 0. -1.
         -2   -1    0    0    0  501 -0.00000000000E+00 -0.00000000000E+00 -0.11715961475E+03  0.11715961475E+03  0.00000000000E+00 0.  1.
         23    2    1    2    0    0 -0.35791704916E+03 -0.20586604620E+03  0.51963798961E+03  0.67276791933E+03  0.11003449447E+03 0.  0.
         11    1    3    3    0    0 -0.32930034212E+03 -0.21117430526E+03  0.44415073687E+03  0.59186415636E+03  0.00000000000E+00 0. -1.
        -11    1    3    3    0    0 -0.28616707037E+02  0.53082590598E+01  0.75487252736E+02  0.80903762963E+02  0.00000000000E+00 0.  1.
         22    1    1    2    0    0  0.35791704916E+03  0.20586604620E+03  0.10093309160E+04  0.10905202158E+04  0.00000000000E+00 0. -1.
<mgrwt>
<rscale>  0 0.87831608E+03</rscale>
<asrwt>0</asrwt>
<pdfrwt beam="1">  1        2 0.25325052E+00 0.87831608E+03</pdfrwt>
<pdfrwt beam="2">  1       -2 0.18024557E-01 0.87831608E+03</pdfrwt>
<totfact> 0.27080644E+02</totfact>
</mgrwt>
</event>
<event>
 6    1  0.2236204E-005  0.4448156E+04  0.7818608E-02  0.7919776E-01
          2   -1    0    0  501    0  0.00000000000E+00  0.00000000000E+00  0.30305221568E+04  0.30305221568E+04  0.00000000000E+00 0. -1.
         -2   -1    0    0    0  501 -0.00000000000E+00 -0.00000000000E+00 -0.16322346484E+04  0.16322346484E+04  0.00000000000E+00 0.  1.
         23    2    1    2    0    0  0.14239051433E+04  0.17048356143E+04  0.60350160342E+03  0.23035927661E+04  0.91406331366E+02 0.  0.
         13    1    3    3    0    0  0.13791476805E+04  0.16718748623E+04  0.58301423510E+03  0.22443527972E+04  0.00000000000E+00 0. -1.
        -13    1    3    3    0    0  0.44757462827E+02  0.32960752017E+02  0.20487368317E+02  0.59239968879E+02  0.00000000000E+00 0.  1.
         22    1    1    2    0    0 -0.14239051433E+04 -0.17048356143E+04  0.79478590498E+03  0.23591640392E+04  0.00000000000E+00 0.  1.
<mgrwt>
<rscale>  0 0.44481561E+04</rscale>
<asrwt>0</asrwt>
<pdfrwt beam="1">  1        2 0.46623418E+00 0.44481561E+04</pdfrwt>
<pdfrwt beam="2">  1       -2 0.25111302E+00 0.44481561E+04</pdfrwt>
<totfact> 0.80129927E-02</totfact>
</mgrwt>
</event>
<event>
 6    1  0.2236204E-005  0.3537098E+04  0.7818608E-02  0.8105054E-01
          2   -1    0    0  501    0  0.00000000000E+00  0.00000000000E+00  0.16740220222E+04  0.16740220222E+04  0.00000000000E+00 0. -1.
         -2   -1    0    0    0  501 -0.00000000000E+00 -0.00000000000E+00 -0.18684139705E+04  0.18684139705E+04  0.00000000000E+00 0.  1.
         23    2    1    2    0    0  0.19929224228E+03  0.59838790134E+03  0.15562308165E+04  0.16816658448E+04  0.91434025108E+02 0.  0.
         11    1    3    3    0    0  0.37797604114E+02  0.24969158886E+03  0.58541884114E+03  0.63756550093E+03  0.00000000000E+00 0.  1.
        -11    1    3    3    0    0  0.16149463817E+03  0.34869631248E+03  0.97081197541E+03  0.10441003439E+04  0.00000000000E+00 0. -1.
         22    1    1    2    0    0 -0.19929224228E+03 -0.59838790134E+03 -0.17506227648E+04  0.18607701478E+04  0.00000000000E+00 0.  1.
<mgrwt>
<rscale>  0 0.35370983E+04</rscale>
<asrwt>0</asrwt>
<pdfrwt beam="1">  1        2 0.25754185E+00 0.35370983E+04</pdfrwt>
<pdfrwt beam="2">  1       -2 0.28744830E+00 0.35370983E+04</pdfrwt>
<totfact> 0.31502288E-01</totfact>
</mgrwt>
</event>
<event>
 6    1  0.2236204E-005  0.3713521E+04  0.7818608E-02  0.8064972E-01
          3   -1    0    0  501    0  0.00000000000E+00  0.00000000000E+00  0.11930965487E+04  0.11930965487E+04  0.00000000000E+00 0. -1.
         -3   -1    0    0    0  501 -0.00000000000E+00 -0.00000000000E+00 -0.28895895180E+04  0.28895895180E+04  0.00000000000E+00 0.  1.
         23    2    1    2    0    0 -0.50174932914E+03 -0.14311076514E+04  0.32683299188E+03  0.15541154341E+04  0.92916514636E+02 0.  0.
         11    1    3    3    0    0 -0.28969497168E+03 -0.95298727540E+03  0.20014672628E+03  0.10159560206E+04  0.00000000000E+00 0. -1.
        -11    1    3    3    0    0 -0.21205435746E+03 -0.47812037602E+03  0.12668626560E+03  0.53815941354E+03  0.00000000000E+00 0.  1.
         22    1    1    2    0    0  0.50174932914E+03  0.14311076514E+04 -0.20233259611E+04  0.25285706326E+04  0.00000000000E+00 0.  1.
<mgrwt>
<rscale>  0 0.37135209E+04</rscale>
<asrwt>0</asrwt>
<pdfrwt beam="1">  1        3 0.18355332E+00 0.37135209E+04</pdfrwt>
<pdfrwt beam="2">  1       -3 0.44455223E+00 0.37135209E+04</pdfrwt>
<totfact> 0.23621138E-03</totfact>
</mgrwt>
</event>
<event>
 6    1  0.2236204E-005  0.3852780E+04  0.7818608E-02  0.8034922E-01
         -2   -1    0    0    0  501 -0.00000000000E+00  0.00000000000E+00  0.17131063156E+04  0.17131063156E+04  0.00000000000E+00 0.  1.
          2   -1    0    0  501    0  0.00000000000E+00 -0.00000000000E+00 -0.21662281640E+04  0.21662281640E+04  0.00000000000E+00 0. -1.
         23    2    1    2    0    0  0.31209600070E+03 -0.18747409997E+04 -0.53631747783E+03  0.19769729885E+04  0.93423928890E+02 0.  0.
         13    1    3    3    0    0  0.13633764409E+03 -0.60171869838E+03 -0.20031981810E+03  0.64867663339E+03  0.00000000000E+00 0.  1.
        -13    1    3    3    0    0  0.17575835661E+03 -0.12730223014E+04 -0.33599765973E+03  0.13282963551E+04  0.00000000000E+00 0. -1.
         22    1    1    2    0    0 -0.31209600070E+03  0.18747409997E+04  0.83195629464E+02  0.19023614910E+04  0.00000000000E+00 0. -1.
<mgrwt>
<rscale>  0 0.38527804E+04</rscale>
<asrwt>0</asrwt>
<pdfrwt beam="1">  1        2 0.33326587E+00 0.38527804E+04</pdfrwt>
<pdfrwt beam="2">  1       -2 0.26355482E+00 0.38527804E+04</pdfrwt>
<totfact> 0.22857305E-01</totfact>
</mgrwt>
</event>
<event>
 6    1  0.2236204E-005  0.7372624E+03  0.7818608E-02  0.9655548E-01
         -2   -1    0    0    0  501 -0.00000000000E+00  0.00000000000E+00  0.93567230409E+02  0.93567230409E+02  0.00000000000E+00 0.  1.
          2   -1    0    0  501    0  0.00000000000E+00 -0.00000000000E+00 -0.14523137974E+04  0.14523137974E+04  0.00000000000E+00 0. -1.
         23    2    1    2    0    0 -0.94693939851E+00  0.29500412092E+03 -0.24473678790E+03  0.39347219585E+03  0.88859132905E+02 0.  0.
         13    1    3    3    0    0  0.32322967354E+02  0.18940097393E+03 -0.11931542862E+03  0.22617178128E+03  0.00000000000E+00 0. -1.
        -13    1    3    3    0    0 -0.33269906752E+02  0.10560314700E+03 -0.12542135927E+03  0.16730041457E+03  0.00000000000E+00 0.  1.
         22    1    1    2    0    0  0.94693939851E+00 -0.29500412092E+03 -0.11140097791E+04  0.11524088320E+04  0.00000000000E+00 0. -1.
<mgrwt>
<rscale>  0 0.73726245E+03</rscale>
<asrwt>0</asrwt>
<pdfrwt beam="1">  1        2 0.22343288E+00 0.73726245E+03</pdfrwt>
<pdfrwt beam="2">  1       -2 0.14394959E-01 0.73726245E+03</pdfrwt>
<totfact> 0.51357842E+02</totfact>
</mgrwt>
</event>
<event>
 6    1  0.2236204E-005  0.3062747E+04  0.7818608E-02  0.8226037E-01
          2   -1    0    0  501    0  0.00000000000E+00  0.00000000000E+00  0.10658926683E+04  0.10658926683E+04  0.00000000000E+00 0. -1.
         -2   -1    0    0    0  501 -0.00000000000E+00 -0.00000000000E+00 -0.22001329167E+04  0.22001329167E+04  0.00000000000E+00 0.  1.
         23    2    1    2    0    0 -0.83580983936E+03  0.22245088693E+03 -0.19135669407E+04  0.21018037083E+04  0.88192441512E+02 0.  0.
         11    1    3    3    0    0 -0.57248659567E+03  0.13120536601E+03 -0.12086221280E+04  0.13437720039E+04  0.00000000000E+00 0.  1.
        -11    1    3    3    0    0 -0.26332324369E+03  0.91245520923E+02 -0.70494481274E+03  0.75803170433E+03  0.00000000000E+00 0. -1.
         22    1    1    2    0    0  0.83580983936E+03 -0.22245088693E+03  0.77932669236E+03  0.11642218767E+04  0.00000000000E+00 0. -1.
<mgrwt>
<rscale>  0 0.30627475E+04</rscale>
<asrwt>0</asrwt>
<pdfrwt beam="1">  1        2 0.16398349E+00 0.30627475E+04</pdfrwt>
<pdfrwt beam="2">  1       -2 0.33848198E+00 0.30627475E+04</pdfrwt>
<totfact> 0.35796857E-01</totfact>
</mgrwt>
</event>
<event>
 6    1  0.2236204E-005  0.1158576E+04  0.7818608E-02  0.9149908E-01
          1   -1    0    0  501    0  0.00000000000E+00  0.00000000000E+00  0.53861049153E+03  0.53861049153E+03  0.00000000000E+00 0. -1.
         -1   -1    0    0    0  501 -0.00000000000E+00 -0.00000000000E+00 -0.62303713232E+03  0.62303713232E+03  0.00000000000E+00 0.  1.
         23    2    1    2    0    0 -0.47841450996E+03  0.18550089413E+03 -0.30470192045E+03  0.60324613397E+03  0.88156751071E+02 0.  0.
         13    1    3    3    0    0 -0.25060082856E+03  0.13408054382E+03 -0.19860971946E+03  0.34673359827E+03  0.00000000000E+00 0.  1.
        -13    1    3    3    0    0 -0.22781368140E+03  0.51420350310E+02 -0.10609220099E+03  0.25651253570E+03  0.00000000000E+00 0. -1.
         22    1    1    2    0    0  0.47841450996E+03 -0.18550089413E+03  0.22027527966E+03  0.55840148987E+03  0.00000000000E+00 0. -1.
<mgrwt>
<rscale>  0 0.11585756E+04</rscale>
<asrwt>0</asrwt>
<pdfrwt beam="1">  1        1 0.82863153E-01 0.11585756E+04</pdfrwt>
<pdfrwt beam="2">  1       -1 0.95851867E-01 0.11585756E+04</pdfrwt>
<totfact> 0.41642276E+01</totfact>
</mgrwt>
</event>
<event>
 6    1  0.2236204E-005  0.3201061E+04  0.7818608E-02  0.8188537E-01
         -2   -1    0    0    0  501 -0.00000000000E+00  0.00000000000E+00  0.12559488147E+04  0.12559488147E+04  0.00000000000E+00 0.  1.
          2   -1    0    0  501    0  0.00000000000E+00 -0.00000000000E+00 -0.20396509141E+04  0.20396509141E+04  0.00000000000E+00 0. -1.
         23    2    1    2    0    0 -0.95964566047E+03  0.48115769379E+03  0.82809279739E+03  0.13590266449E+04  0.93718837157E+02 0.  0.
         13    1    3    3    0    0 -0.58068652136E+03  0.33619467475E+03  0.54235377376E+03  0.86276955865E+03  0.00000000000E+00 0.  1.
        -13    1    3    3    0    0 -0.37895913911E+03  0.14496301904E+03  0.28573902363E+03  0.49625708623E+03  0.00000000000E+00 0. -1.
         22    1    1    2    0    0  0.95964566047E+03 -0.48115769379E+03 -0.16117948968E+04  0.19365730839E+04  0.00000000000E+00 0. -1.
<mgrwt>
<rscale>  0 0.32010605E+04</rscale>
<asrwt>0</asrwt>
<pdfrwt beam="1">  1        2 0.31379245E+00 0.32010605E+04</pdfrwt>
<pdfrwt beam="2">  1       -2 0.19322290E+00 0.32010605E+04</pdfrwt>
<totfact> 0.78859692E-01</totfact>
</mgrwt>
</event>
<event>
 6    1  0.3149384E-005  0.2865589E+04  0.7818608E-02  0.8283190E-01
         -2   -1    0    0    0  501 -0.00000000000E+00  0.00000000000E+00  0.11348514380E+04  0.11348514380E+04  0.00000000000E+00 0.  1.
          2   -1    0    0  501    0  0.00000000000E+00 -0.00000000000E+00 -0.18089588651E+04  0.18089588651E+04  0.00000000000E+00 0. -1.
         23    2    1    2    0    0  0.50171980434E+03 -0.20785105958E+03  0.10223941920E+04  0.11625066882E+04  0.10586355005E+03 0.  0.
         11    1    3    3    0    0  0.17391406147E+03 -0.92745834581E+02  0.47368480380E+03  0.51305475727E+03  0.00000000000E+00 0.  1.
        -11    1    3    3    0    0  0.32780574286E+03 -0.11510522500E+03  0.54870938817E+03  0.64945193089E+03  0.00000000000E+00 0. -1.
         22    1    1    2    0    0 -0.50171980434E+03  0.20785105958E+03 -0.16965016190E+04  0.17813036149E+04  0.00000000000E+00 0. -1.
<mgrwt>
<rscale>  0 0.28655886E+04</rscale>
<asrwt>0</asrwt>
<pdfrwt beam="1">  1        2 0.27830136E+00 0.28655886E+04</pdfrwt>
<pdfrwt beam="2">  1       -2 0.17459253E+00 0.28655886E+04</pdfrwt>
<totfact> 0.14604371E+00</totfact>
</mgrwt>
</event>
<event>
 6    1  0.2236204E-005  0.4245272E+04  0.7818608E-02  0.7956816E-01
          1   -1    0    0  501    0  0.00000000000E+00  0.00000000000E+00  0.21997833944E+04  0.21997833944E+04  0.00000000000E+00 0. -1.
         -1   -1    0    0    0  501 -0.00000000000E+00 -0.00000000000E+00 -0.20481942071E+04  0.20481942071E+04  0.00000000000E+00 0.  1.
         23    2    1    2    0    0 -0.14602505212E+04  0.14920107661E+04  0.45543888643E+03  0.21382969739E+04  0.80384440407E+02 0.  0.
         13    1    3    3    0    0 -0.36261657386E+03  0.33094864166E+03  0.12747877013E+03  0.50721654142E+03  0.00000000000E+00 0. -1.
        -13    1    3    3    0    0 -0.10976339474E+04  0.11610621245E+04  0.32796011630E+03  0.16310804325E+04  0.00000000000E+00 0.  1.
         22    1    1    2    0    0  0.14602505212E+04 -0.14920107661E+04 -0.30384969908E+03  0.21096806276E+04  0.00000000000E+00 0. -1.
<mgrwt>
<rscale>  0 0.42452720E+04</rscale>
<asrwt>0</asrwt>
<pdfrwt beam="1">  1        1 0.33842821E+00 0.42452720E+04</pdfrwt>
<pdfrwt beam="2">  1       -1 0.31510680E+00 0.42452720E+04</pdfrwt>
<totfact> 0.44037479E-02</totfact>
</mgrwt>
</event>
<event>
 6    1  0.2236204E-005  0.1642461E+04  0.7818608E-02  0.8794879E-01
         -1   -1    0    0    0  501 -0.00000000000E+00  0.00000000000E+00  0.27913985775E+03  0.27913985775E+03  0.00000000000E+00 0.  1.
          1   -1    0    0  501    0  0.00000000000E+00 -0.00000000000E+00 -0.24160619985E+04  0.24160619985E+04  0.00000000000E+00 0. -1.
         23    2    1    2    0    0  0.58035908351E+02  0.49366553516E+03 -0.40184555539E+01  0.50514433244E+03  0.89893388806E+02 0.  0.
         11    1    3    3    0    0  0.14240686170E+02  0.41376253187E+03 -0.39294192273E+01  0.41402617098E+03  0.00000000000E+00 0.  1.
        -11    1    3    3    0    0  0.43795222180E+02  0.79903003288E+02 -0.89036326576E-01  0.91118161459E+02  0.00000000000E+00 0. -1.
         22    1    1    2    0    0 -0.58035908351E+02 -0.49366553516E+03 -0.21329036852E+04  0.21900575238E+04  0.00000000000E+00 0. -1.
<mgrwt>
<rscale>  0 0.16424606E+04</rscale>
<asrwt>0</asrwt>
<pdfrwt beam="1">  1        1 0.37170183E+00 0.16424606E+04</pdfrwt>
<pdfrwt beam="2">  1       -1 0.42944595E-01 0.16424606E+04</pdfrwt>
<totfact> 0.79238115E+00</totfact>
</mgrwt>
</event>
<event>
 6    1  0.2236204E-005  0.2119043E+04  0.7818608E-02  0.8552901E-01
         -2   -1    0    0    0  501 -0.00000000000E+00  0.00000000000E+00  0.76786277226E+03  0.76786277226E+03  0.00000000000E+00 0. -1.
          2   -1    0    0  501    0  0.00000000000E+00 -0.00000000000E+00 -0.14619611724E+04  0.14619611724E+04  0.00000000000E+00 0.  1.
         23    2    1    2    0    0  0.34764397072E+03 -0.27851991666E+03 -0.13569609853E+04  0.14311898099E+04  0.92366021556E+02 0.  0.
         13    1    3    3    0    0  0.12975006551E+03 -0.14953015474E+03 -0.50585566161E+03  0.54321662075E+03  0.00000000000E+00 0.  1.
        -13    1    3    3    0    0  0.21789390520E+03 -0.12898976191E+03 -0.85110532368E+03  0.88797318912E+03  0.00000000000E+00 0. -1.
         22    1    1    2    0    0 -0.34764397072E+03  0.27851991666E+03  0.66286258519E+03  0.79863413475E+03  0.00000000000E+00 0. -1.
<mgrwt>
<rscale>  0 0.21190428E+04</rscale>
<asrwt>0</asrwt>
<pdfrwt beam="1">  1        2 0.22491710E+00 0.21190428E+04</pdfrwt>
<pdfrwt beam="2">  1       -2 0.11813273E+00 0.21190428E+04</pdfrwt>
<totfact> 0.67772309E+00</totfact>
</mgrwt>
</event>
<event>
 6    1  0.2236204E-005  0.9748190E+03  0.7818608E-02  0.9336602E-01
         -2   -1    0    0    0  501 -0.00000000000E+00  0.00000000000E+00  0.21333705748E+03  0.21333705748E+03  0.00000000000E+00 0.  1.
          2   -1    0    0  501    0  0.00000000000E+00 -0.00000000000E+00 -0.11135805779E+04  0.11135805779E+04  0.00000000000E+00 0. -1.
         23    2    1    2    0    0  0.28387414423E+03  0.36527949618E+03 -0.26580878963E+03  0.54172907985E+03  0.93821336705E+02 0.  0.
         13    1    3    3    0    0  0.14394839484E+02  0.50705890935E+02 -0.57773208582E+02  0.78205130325E+02  0.00000000000E+00 0. -1.
        -13    1    3    3    0    0  0.26947930475E+03  0.31457360525E+03 -0.20803558105E+03  0.46352394953E+03  0.00000000000E+00 0.  1.
         22    1    1    2    0    0 -0.28387414423E+03 -0.36527949618E+03 -0.63443473081E+03  0.78518855554E+03  0.00000000000E+00 0.  1.
<mgrwt>
<rscale>  0 0.97481897E+03</rscale>
<asrwt>0</asrwt>
<pdfrwt beam="1">  1        2 0.17132008E+00 0.97481897E+03</pdfrwt>
<pdfrwt beam="2">  1       -2 0.32821087E-01 0.97481897E+03</pdfrwt>
<totfact> 0.18470575E+02</totfact>
</mgrwt>
</event>
<event>
 6    1  0.2236204E-005  0.1816618E+04  0.7818608E-02  0.8697512E-01
         -2   -1    0    0    0  501 -0.00000000000E+00  0.00000000000E+00  0.33949103718E+03  0.33949103718E+03  0.00000000000E+00 0.  1.
          2   -1    0    0  501    0  0.00000000000E+00 -0.00000000000E+00 -0.24301815475E+04  0.24301815475E+04  0.00000000000E+00 0. -1.
         23    2    1    2    0    0  0.85286020093E+03 -0.23309080874E+03 -0.74365245840E+03  0.11583956498E+04  0.84614745945E+02 0.  0.
         13    1    3    3    0    0  0.73209698796E+03 -0.22879723468E+03 -0.65295573335E+03  0.10073059933E+04  0.00000000000E+00 0.  1.
        -13    1    3    3    0    0  0.12076321297E+03 -0.42935740596E+01 -0.90696725050E+02  0.15108965656E+03  0.00000000000E+00 0. -1.
         22    1    1    2    0    0 -0.85286020093E+03  0.23309080874E+03 -0.13470380520E+04  0.16112769349E+04  0.00000000000E+00 0.  1.
<mgrwt>
<rscale>  0 0.18166176E+04</rscale>
<asrwt>0</asrwt>
<pdfrwt beam="1">  1        2 0.37387409E+00 0.18166176E+04</pdfrwt>
<pdfrwt beam="2">  1       -2 0.52229389E-01 0.18166176E+04</pdfrwt>
<totfact> 0.12472853E+01</totfact>
</mgrwt>
</event>
<event>
 6    1  0.2236204E-005  0.1769355E+04  0.7818608E-02  0.8722768E-01
          2   -1    0    0  501    0  0.00000000000E+00  0.00000000000E+00  0.94188449359E+03  0.94188449359E+03  0.00000000000E+00 0.  1.
         -2   -1    0    0    0  501 -0.00000000000E+00 -0.00000000000E+00 -0.83094552375E+03  0.83094552375E+03  0.00000000000E+00 0. -1.
         23    2    1    2    0    0  0.51189244819E+03 -0.71330002735E+03 -0.31217413286E+02  0.88342614687E+03  0.92932354741E+02 0.  0.
         13    1    3    3    0    0  0.14306635188E+03 -0.17423084258E+03  0.29848112131E+02  0.22740993238E+03  0.00000000000E+00 0. -1.
        -13    1    3    3    0    0  0.36882609631E+03 -0.53906918477E+03 -0.61065525416E+02  0.65601621449E+03  0.00000000000E+00 0.  1.
         22    1    1    2    0    0 -0.51189244819E+03  0.71330002735E+03  0.14215638312E+03  0.88940387046E+03  0.00000000000E+00 0.  1.
<mgrwt>
<rscale>  0 0.17693555E+04</rscale>
<asrwt>0</asrwt>
<pdfrwt beam="1">  1        2 0.14490531E+00 0.17693555E+04</pdfrwt>
<pdfrwt beam="2">  1       -2 0.12783777E+00 0.17693555E+04</pdfrwt>
<totfact> 0.11786852E+01</totfact>
</mgrwt>
</event>
<event>
 6    1  0.2236204E-005  0.7012490E+03  0.7818608E-02  0.9715099E-01
          1   -1    0    0  501    0  0.00000000000E+00  0.00000000000E+00  0.10789992447E+04  0.10789992447E+04  0.00000000000E+00 0. -1.
         -1   -1    0    0    0  501 -0.00000000000E+00 -0.00000000000E+00 -0.11393662149E+03  0.11393662149E+03  0.00000000000E+00 0.  1.
         23    2    1    2    0    0 -0.30244277305E+03 -0.16585939286E+03  0.48058136612E+03  0.59820646751E+03  0.88946945661E+02 0.  0.
         13    1    3    3    0    0 -0.19106579396E+03 -0.15069606644E+03  0.31416695496E+03  0.39738686145E+03  0.00000000000E+00 0. -1.
        -13    1    3    3    0    0 -0.11137697909E+03 -0.15163326427E+02  0.16641441116E+03  0.20081960607E+03  0.00000000000E+00 0.  1.
         22    1    1    2    0    0  0.30244277305E+03  0.16585939286E+03  0.48448125710E+03  0.59472939868E+03  0.00000000000E+00 0.  1.
<mgrwt>
<rscale>  0 0.70124897E+03</rscale>
<asrwt>0</asrwt>
<pdfrwt beam="1">  1        1 0.16599988E+00 0.70124897E+03</pdfrwt>
<pdfrwt beam="2">  1       -1 0.17528712E-01 0.70124897E+03</pdfrwt>
<totfact> 0.33953709E+02</totfact>
</mgrwt>
</event>
<event>
 6    1  0.2236204E-005  0.2161326E+04  0.7818608E-02  0.8534700E-01
         -2   -1    0    0    0  501 -0.00000000000E+00  0.00000000000E+00  0.87187872413E+03  0.87187872413E+03  0.00000000000E+00 0.  1.
          2   -1    0    0  501    0  0.00000000000E+00 -0.00000000000E+00 -0.13394431811E+04  0.13394431811E+04  0.00000000000E+00 0. -1.
         23    2    1    2    0    0 -0.29023589532E+03  0.10347712681E+04 -0.32932171532E+03  0.11277631815E+04  0.91698141511E+02 0.  0.
         11    1    3    3    0    0 -0.15870358226E+03  0.41515838833E+03 -0.15626060162E+03  0.47112704236E+03  0.00000000000E+00 0. -1.
        -11    1    3    3    0    0 -0.13153231306E+03  0.61961287977E+03 -0.17306111370E+03  0.65663613915E+03  0.00000000000E+00 0.  1.
         22    1    1    2    0    0  0.29023589532E+03 -0.10347712681E+04 -0.13824274168E+03  0.10835587238E+04  0.00000000000E+00 0. -1.
<mgrwt>
<rscale>  0 0.21613255E+04</rscale>
<asrwt>0</asrwt>
<pdfrwt beam="1">  1        2 0.20606818E+00 0.21613255E+04</pdfrwt>
<pdfrwt beam="2">  1       -2 0.13413519E+00 0.21613255E+04</pdfrwt>
<totfact> 0.57674694E+00</totfact>
</mgrwt>
</event>
<event>
 6    1  0.2236204E-005  0.9648746E+03  0.7818608E-02  0.9347931E-01
         -2   -1    0    0    0  501 -0.00000000000E+00  0.00000000000E+00  0.60720005861E+03  0.60720005861E+03  0.00000000000E+00 0.  1.
          2   -1    0    0  501    0  0.00000000000E+00 -0.00000000000E+00 -0.38330985604E+03  0.38330985604E+03  0.00000000000E+00 0. -1.
         23    2    1    2    0    0  0.63815887036E+02 -0.26821910112E+03 -0.28719647075E+03  0.40980039924E+03  0.97162754012E+02 0.  0.
         11    1    3    3    0    0  0.83151309250E+02 -0.19171068351E+03 -0.17463121319E+03  0.27232918871E+03  0.00000000000E+00 0.  1.
        -11    1    3    3    0    0 -0.19335422214E+02 -0.76508417607E+02 -0.11256525756E+03  0.13747121053E+03  0.00000000000E+00 0. -1.
         22    1    1    2    0    0 -0.63815887036E+02  0.26821910112E+03  0.51108667332E+03  0.58070951541E+03  0.00000000000E+00 0.  1.
<mgrwt>
<rscale>  0 0.96487464E+03</rscale>
<asrwt>0</asrwt>
<pdfrwt beam="1">  1        2 0.58970747E-01 0.96487464E+03</pdfrwt>
<pdfrwt beam="2">  1       -2 0.93415394E-01 0.96487464E+03</pdfrwt>
<totfact> 0.80926978E+01</totfact>
</mgrwt>
</event>
<event>
 6    1  0.2236204E-005  0.2972014E+04  0.7818608E-02  0.8251768E-01
          2   -1    0    0  501    0  0.00000000000E+00  0.00000000000E+00  0.33847809290E+04  0.33847809290E+04  0.00000000000E+00 0. -1.
         -2   -1    0    0    0  501 -0.00000000000E+00 -0.00000000000E+00 -0.65239558514E+03  0.65239558514E+03  0.00000000000E+00 0.  1.
         23    2    1    2    0    0  0.10807439843E+03 -0.33131958203E+03  0.33278065761E+04  0.33472640670E+04  0.91800789824E+02 0.  0.
         13    1    3    3    0    0  0.69856961081E+02 -0.24943832417E+03  0.20564189406E+04  0.20726693735E+04  0.00000000000E+00 0.  1.
        -13    1    3    3    0    0  0.38217437348E+02 -0.81881257858E+02  0.12713876355E+04  0.12745946935E+04  0.00000000000E+00 0. -1.
         22    1    1    2    0    0 -0.10807439843E+03  0.33131958203E+03 -0.59542123222E+03  0.68991244720E+03  0.00000000000E+00 0.  1.
<mgrwt>
<rscale>  0 0.29720135E+04</rscale>
<asrwt>0</asrwt>
<pdfrwt beam="1">  1        2 0.52073552E+00 0.29720135E+04</pdfrwt>
<pdfrwt beam="2">  1       -2 0.10036855E+00 0.29720135E+04</pdfrwt>
<totfact> 0.68551613E-01</totfact>
</mgrwt>
</event>
<event>
 6    1  0.2236204E-005  0.5191321E+04  0.7818608E-02  0.7799653E-01
          2   -1    0    0  501    0  0.00000000000E+00  0.00000000000E+00  0.31048202454E+04  0.31048202454E+04  0.00000000000E+00 0. -1.
         -2   -1    0    0    0  501 -0.00000000000E+00 -0.00000000000E+00 -0.21699983108E+04  0.21699983108E+04  0.00000000000E+00 0.  1.
         23    2    1    2    0    0  0.76558084104E+02  0.25815326727E+04  0.21680534283E+03  0.25941992422E+04  0.11266353110E+03 0.  0.
         13    1    3    3    0    0  0.71794004537E+01  0.19106066756E+04  0.16048513348E+03  0.19173484010E+04  0.00000000000E+00 0. -1.
        -13    1    3    3    0    0  0.69378683650E+02  0.67092599708E+03  0.56320209348E+02  0.67685084123E+03  0.00000000000E+00 0.  1.
         22    1    1    2    0    0 -0.76558084104E+02 -0.25815326727E+04  0.71801659186E+03  0.26806193140E+04  0.00000000000E+00 0. -1.
<mgrwt>
<rscale>  0 0.51913215E+04</rscale>
<asrwt>0</asrwt>
<pdfrwt beam="1">  1        2 0.47766466E+00 0.51913215E+04</pdfrwt>
<pdfrwt beam="2">  1       -2 0.33384589E+00 0.51913215E+04</pdfrwt>
<totfact> 0.21034790E-02</totfact>
</mgrwt>
</event>
<event>
 6    1  0.2236204E-005  0.3166776E+04  0.7818608E-02  0.8197647E-01
         -2   -1    0    0    0  501 -0.00000000000E+00  0.00000000000E+00  0.10553707311E+04  0.10553707311E+04  0.00000000000E+00 0.  1.
          2   -1    0    0  501    0  0.00000000000E+00 -0.00000000000E+00 -0.23755799382E+04  0.23755799382E+04  0.00000000000E+00 0. -1.
         23    2    1    2    0    0 -0.10860436850E+04  0.79212176225E+03 -0.15653374786E+04  0.20645555429E+04  0.71835895719E+02 0.  0.
         11    1    3    3    0    0 -0.84598021663E+03  0.58627814611E+03 -0.12240581188E+04  0.15992882385E+04  0.00000000000E+00 0.  1.
        -11    1    3    3    0    0 -0.24006346838E+03  0.20584361614E+03 -0.34127935977E+03  0.46526730442E+03  0.00000000000E+00 0. -1.
         22    1    1    2    0    0  0.10860436850E+04 -0.79212176225E+03  0.24512827153E+03  0.13663951264E+04  0.00000000000E+00 0.  1.
<mgrwt>
<rscale>  0 0.31667760E+04</rscale>
<asrwt>0</asrwt>
<pdfrwt beam="1">  1        2 0.36547383E+00 0.31667760E+04</pdfrwt>
<pdfrwt beam="2">  1       -2 0.16236473E+00 0.31667760E+04</pdfrwt>
<totfact> 0.83881007E-01</totfact>
</mgrwt>
</event>
<event>
 6    1  0.2236204E-005  0.2325174E+04  0.7818608E-02  0.8468061E-01
         -2   -1    0    0    0  501 -0.00000000000E+00  0.00000000000E+00  0.74381078267E+03  0.74381078267E+03  0.00000000000E+00 0.  1.
          2   -1    0    0  501    0  0.00000000000E+00 -0.00000000000E+00 -0.18171396330E+04  0.18171396330E+04  0.00000000000E+00 0. -1.
         23    2    1    2    0    0  0.16026724975E+03  0.36534722476E+03 -0.17377437119E+04  0.17859592580E+04  0.10360056490E+03 0.  0.
         11    1    3    3    0    0  0.13044329852E+03  0.18824797904E+03 -0.10885574678E+04  0.11123893726E+04  0.00000000000E+00 0. -1.
        -11    1    3    3    0    0  0.29823951226E+02  0.17709924572E+03 -0.64918624417E+03  0.67356988540E+03  0.00000000000E+00 0.  1.
         22    1    1    2    0    0 -0.16026724975E+03 -0.36534722476E+03  0.66441486163E+03  0.77499115759E+03  0.00000000000E+00 0.  1.
<mgrwt>
<rscale>  0 0.23251736E+04</rscale>
<asrwt>0</asrwt>
<pdfrwt beam="1">  1        2 0.27955994E+00 0.23251736E+04</pdfrwt>
<pdfrwt beam="2">  1       -2 0.11443243E+00 0.23251736E+04</pdfrwt>
<totfact> 0.45585859E+00</totfact>
</mgrwt>
</event>
<event>
 6    1  0.2236204E-005  0.2772945E+04  0.7818608E-02  0.8311717E-01
         -2   -1    0    0    0  501 -0.00000000000E+00  0.00000000000E+00  0.11165633669E+04  0.11165633669E+04  0.00000000000E+00 0.  1.
          2   -1    0    0  501    0  0.00000000000E+00 -0.00000000000E+00 -0.17216275537E+04  0.17216275537E+04  0.00000000000E+00 0. -1.
         23    2    1    2    0    0  0.12566312550E+04 -0.34298169519E+03  0.17882195420E+03  0.13179159335E+04  0.90369033430E+02 0.  0.
         11    1    3    3    0    0  0.43145930456E+03 -0.10715934501E+03  0.19143791375E+02  0.44497948432E+03  0.00000000000E+00 0. -1.
        -11    1    3    3    0    0  0.82517195040E+03 -0.23582235018E+03  0.15967816283E+03  0.87293644915E+03  0.00000000000E+00 0.  1.
         22    1    1    2    0    0 -0.12566312550E+04  0.34298169519E+03 -0.78388614099E+03  0.15202749870E+04  0.00000000000E+00 0. -1.
<mgrwt>
<rscale>  0 0.27729452E+04</rscale>
<asrwt>0</asrwt>
<pdfrwt beam="1">  1        2 0.26486578E+00 0.27729452E+04</pdfrwt>
<pdfrwt beam="2">  1       -2 0.17177898E+00 0.27729452E+04</pdfrwt>
<totfact> 0.17224459E+00</totfact>
</mgrwt>
</event>
<event>
 6    1  0.2236204E-005  0.2662554E+04  0.7818608E-02  0.8347258E-01
          2   -1    0    0  501    0  0.00000000000E+00  0.00000000000E+00  0.23198515427E+04  0.23198515427E+04  0.00000000000E+00 0. -1.
         -2   -1    0    0    0  501 -0.00000000000E+00 -0.00000000000E+00 -0.76397076587E+03  0.76397076587E+03  0.00000000000E+00 0.  1.
         23    2    1    2    0    0  0.67878678343E+03 -0.11147980159E+04  0.10731427954E+04  0.16922181722E+04  0.91873660802E+02 0.  0.
         13    1    3    3    0    0  0.31432025612E+03 -0.43111095293E+03  0.44914274839E+03  0.69741170450E+03  0.00000000000E+00 0.  1.
        -13    1    3    3    0    0  0.36446652731E+03 -0.68368706294E+03  0.62400004699E+03  0.99480646771E+03  0.00000000000E+00 0. -1.
         22    1    1    2    0    0 -0.67878678343E+03  0.11147980159E+04  0.48273798143E+03  0.13916041363E+04  0.00000000000E+00 0.  1.
<mgrwt>
<rscale>  0 0.26625542E+04</rscale>
<asrwt>0</asrwt>
<pdfrwt beam="1">  1        2 0.35690023E+00 0.26625542E+04</pdfrwt>
<pdfrwt beam="2">  1       -2 0.11753396E+00 0.26625542E+04</pdfrwt>
<totfact> 0.21726583E+00</totfact>
</mgrwt>
</event>
<event>
 6    1  0.2236204E-005  0.5852580E+03  0.7818608E-02  0.9936472E-01
          2   -1    0    0  501    0  0.00000000000E+00  0.00000000000E+00  0.38460951325E+04  0.38460951325E+04  0.00000000000E+00 0. -1.
         -2   -1    0    0    0  501 -0.00000000000E+00 -0.00000000000E+00 -0.22264593640E+02  0.22264593640E+02  0.00000000000E+00 0.  1.
         23    2    1    2    0    0  0.60976722370E+01 -0.10633066150E+02  0.38438058363E+04  0.38449235103E+04  0.91887151578E+02 0.  0.
         13    1    3    3    0    0  0.24287689332E+02  0.33700112946E+02  0.22969701723E+04  0.22973457646E+04  0.00000000000E+00 0.  1.
        -13    1    3    3    0    0 -0.18190017095E+02 -0.44333179095E+02  0.15468356640E+04  0.15475777457E+04  0.00000000000E+00 0. -1.
         22    1    1    2    0    0 -0.60976722370E+01  0.10633066150E+02 -0.19975297509E+02  0.23436215843E+02  0.00000000000E+00 0.  1.
<mgrwt>
<rscale>  0 0.58525805E+03</rscale>
<asrwt>0</asrwt>
<pdfrwt beam="1">  1        2 0.59170642E+00 0.58525805E+03</pdfrwt>
<pdfrwt beam="2">  1       -2 0.34253251E-02 0.58525805E+03</pdfrwt>
<totfact> 0.18781452E+02</totfact>
</mgrwt>
</event>
<event>
 6    1  0.2236204E-005  0.1147450E+04  0.7818608E-02  0.9160139E-01
          3   -1    0    0  501    0  0.00000000000E+00  0.00000000000E+00  0.93646815768E+03  0.93646815768E+03  0.00000000000E+00 0. -1.
         -3   -1    0    0    0  501 -0.00000000000E+00 -0.00000000000E+00 -0.35149117530E+03  0.35149117530E+03  0.00000000000E+00 0.  1.
         23    2    1    2    0    0  0.69042406246E+00  0.39545639085E+03  0.75636067454E+03  0.85696211292E+03  0.76917873288E+02 0.  0.
         13    1    3    3    0    0  0.16771187761E+02  0.32183819484E+03  0.55253208092E+03  0.63965052712E+03  0.00000000000E+00 0. -1.
        -13    1    3    3    0    0 -0.16080763699E+02  0.73618196020E+02  0.20382859362E+03  0.21731158580E+03  0.00000000000E+00 0.  1.
         22    1    1    2    0    0 -0.69042406246E+00 -0.39545639085E+03 -0.17138369217E+03  0.43099722005E+03  0.00000000000E+00 0.  1.
<mgrwt>
<rscale>  0 0.11474499E+04</rscale>
<asrwt>0</asrwt>
<pdfrwt beam="1">  1        3 0.14407202E+00 0.11474499E+04</pdfrwt>
<pdfrwt beam="2">  1       -3 0.54075566E-01 0.11474499E+04</pdfrwt>
<totfact> 0.31448871E+00</totfact>
</mgrwt>
</event>
<event>
 6    1  0.2236204E-005  0.2552886E+04  0.7818608E-02  0.8384383E-01
          1   -1    0    0  501    0  0.00000000000E+00  0.00000000000E+00  0.11601954231E+04  0.11601954231E+04  0.00000000000E+00 0. -1.
         -1   -1    0    0    0  501 -0.00000000000E+00 -0.00000000000E+00 -0.14043385083E+04  0.14043385083E+04  0.00000000000E+00 0.  1.
         23    2    1    2    0    0  0.80875697442E+03 -0.46938116822E+03 -0.99268224761E+03  0.13667370361E+04  0.90252736563E+02 0.  0.
         11    1    3    3    0    0  0.23590949276E+03 -0.18535868976E+03 -0.32223620537E+03  0.44028093837E+03  0.00000000000E+00 0. -1.
        -11    1    3    3    0    0  0.57284748167E+03 -0.28402247846E+03 -0.67044604225E+03  0.92645609777E+03  0.00000000000E+00 0.  1.
         22    1    1    2    0    0 -0.80875697442E+03  0.46938116822E+03  0.74853916236E+03  0.11977968953E+04  0.00000000000E+00 0. -1.
<mgrwt>
<rscale>  0 0.25528863E+04</rscale>
<asrwt>0</asrwt>
<pdfrwt beam="1">  1        1 0.17849160E+00 0.25528863E+04</pdfrwt>
<pdfrwt beam="2">  1       -1 0.21605208E+00 0.25528863E+04</pdfrwt>
<totfact> 0.11826628E+00</totfact>
</mgrwt>
</event>
<event>
 6    1  0.2236204E-005  0.2635269E+04  0.7818608E-02  0.8356319E-01
         -2   -1    0    0    0  501 -0.00000000000E+00  0.00000000000E+00  0.18494601426E+04  0.18494601426E+04  0.00000000000E+00 0.  1.
          2   -1    0    0  501    0  0.00000000000E+00 -0.00000000000E+00 -0.93873916484E+03  0.93873916484E+03  0.00000000000E+00 0. -1.
         23    2    1    2    0    0 -0.28763334114E+03 -0.11810117298E+04 -0.77971664292E+02  0.12213442454E+04  0.89891826772E+02 0.  0.
         11    1    3    3    0    0 -0.19818530768E+03 -0.62667188562E+03 -0.48996192365E+02  0.65908701646E+03  0.00000000000E+00 0. -1.
        -11    1    3    3    0    0 -0.89448033463E+02 -0.55433984419E+03 -0.28975471927E+02  0.56225722896E+03  0.00000000000E+00 0.  1.
         22    1    1    2    0    0  0.28763334114E+03  0.11810117298E+04  0.98869264202E+03  0.15668550620E+04  0.00000000000E+00 0.  1.
<mgrwt>
<rscale>  0 0.26352690E+04</rscale>
<asrwt>0</asrwt>
<pdfrwt beam="1">  1        2 0.14442141E+00 0.26352690E+04</pdfrwt>
<pdfrwt beam="2">  1       -2 0.28453233E+00 0.26352690E+04</pdfrwt>
<totfact> 0.96258529E-01</totfact>
</mgrwt>
</event>
<event>
 6    1  0.2236204E-005  0.1773732E+04  0.7818608E-02  0.8720395E-01
         -2   -1    0    0    0  501 -0.00000000000E+00  0.00000000000E+00  0.41995603048E+03  0.41995603048E+03  0.00000000000E+00 0.  1.
          2   -1    0    0  501    0  0.00000000000E+00 -0.00000000000E+00 -0.18728891317E+04  0.18728891317E+04  0.00000000000E+00 0. -1.
         23    2    1    2    0    0 -0.38872623215E+03  0.23460053318E+03 -0.17096218054E+04  0.17712758144E+04  0.92009779224E+02 0.  0.
         13    1    3    3    0    0 -0.47034447239E+02  0.54819440695E+02 -0.18705747349E+03  0.20051909808E+03  0.00000000000E+00 0. -1.
        -13    1    3    3    0    0 -0.34169178492E+03  0.17978109249E+03 -0.15225643319E+04  0.15707567163E+04  0.00000000000E+00 0.  1.
         22    1    1    2    0    0  0.38872623215E+03 -0.23460053318E+03  0.25668870415E+03  0.52156934781E+03  0.00000000000E+00 0.  1.
<mgrwt>
<rscale>  0 0.17737318E+04</rscale>
<asrwt>0</asrwt>
<pdfrwt beam="1">  1        2 0.28813679E+00 0.17737318E+04</pdfrwt>
<pdfrwt beam="2">  1       -2 0.64608619E-01 0.17737318E+04</pdfrwt>
<totfact> 0.16447207E+01</totfact>
</mgrwt>
</event>
<event>
 6    1  0.2236204E-005  0.2477773E+04  0.7818608E-02  0.8410947E-01
          2   -1    0    0  501    0  0.00000000000E+00  0.00000000000E+00  0.16454863522E+04  0.16454863522E+04  0.00000000000E+00 0. -1.
         -2   -1    0    0    0  501 -0.00000000000E+00 -0.00000000000E+00 -0.93275739053E+03  0.93275739053E+03  0.00000000000E+00 0.  1.
         23    2    1    2    0    0 -0.57848697005E+03 -0.67985085577E+03  0.12482493712E+04  0.15372699344E+04  0.90708310871E+02 0.  0.
         13    1    3    3    0    0 -0.23997855009E+03 -0.35120372428E+03  0.60290145234E+03  0.73785088039E+03  0.00000000000E+00 0. -1.
        -13    1    3    3    0    0 -0.33850841996E+03 -0.32864713149E+03  0.64534791890E+03  0.79941905397E+03  0.00000000000E+00 0.  1.
         22    1    1    2    0    0  0.57848697005E+03  0.67985085577E+03 -0.53552040959E+03  0.10409738084E+04  0.00000000000E+00 0.  1.
<mgrwt>
<rscale>  0 0.24777728E+04</rscale>
<asrwt>0</asrwt>
<pdfrwt beam="1">  1        2 0.25315175E+00 0.24777728E+04</pdfrwt>
<pdfrwt beam="2">  1       -2 0.14350114E+00 0.24777728E+04</pdfrwt>
<totfact> 0.31650158E+00</totfact>
</mgrwt>
</event>
<event>
 6    1  0.2236204E-005  0.6484800E+03  0.7818608E-02  0.9809636E-01
         -2   -1    0    0    0  501 -0.00000000000E+00  0.00000000000E+00  0.17561947466E+03  0.17561947466E+03  0.00000000000E+00 0.  1.
          2   -1    0    0  501    0  0.00000000000E+00 -0.00000000000E+00 -0.59863270806E+03  0.59863270806E+03  0.00000000000E+00 0. -1.
         23    2    1    2    0    0  0.11132124526E+03 -0.43294847164E+02  0.13598082860E+03  0.20263935502E+03  0.91132096546E+02 0.  0.
         13    1    3    3    0    0  0.11188168970E+03 -0.98342482966E+01  0.81752209717E+02  0.13891597720E+03  0.00000000000E+00 0. -1.
        -13    1    3    3    0    0 -0.56044444228E+00 -0.33460598867E+02  0.54228618883E+02  0.63723377817E+02  0.00000000000E+00 0.  1.
         22    1    1    2    0    0 -0.11132124526E+03  0.43294847164E+02 -0.55899406200E+03  0.57161282769E+03  0.00000000000E+00 0. -1.
<mgrwt>
<rscale>  0 0.64847995E+03</rscale>
<asrwt>0</asrwt>
<pdfrwt beam="1">  1        2 0.92097340E-01 0.64847995E+03</pdfrwt>
<pdfrwt beam="2">  1       -2 0.27018381E-01 0.64847995E+03</pdfrwt>
<totfact> 0.62241292E+02</totfact>
</mgrwt>
</event>
<event>
 6    1  0.2236204E-005  0.3502379E+04  0.7818608E-02  0.8113226E-01
          2   -1    0    0  501    0  0.00000000000E+00  0.00000000000E+00  0.12434269864E+04  0.12434269864E+04  0.00000000000E+00 0. -1.
         -2   -1    0    0    0  501 -0.00000000000E+00 -0.00000000000E+00 -0.24663001757E+04  0.24663001757E+04  0.00000000000E+00 0.  1.
         23    2    1    2    0    0  0.13157375672E+04 -0.78258504519E+03  0.28628648031E+03  0.15600370432E+04  0.90282493693E+02 0.  0.
         13    1    3    3    0    0  0.48064863430E+03 -0.27116942415E+03  0.14549742201E+03  0.57072363370E+03  0.00000000000E+00 0. -1.
        -13    1    3    3    0    0  0.83508893288E+03 -0.51141562104E+03  0.14078905830E+03  0.98931340949E+03  0.00000000000E+00 0.  1.
         22    1    1    2    0    0 -0.13157375672E+04  0.78258504519E+03 -0.15091596696E+04  0.21496901188E+04  0.00000000000E+00 0. -1.
<mgrwt>
<rscale>  0 0.35023787E+04</rscale>
<asrwt>0</asrwt>
<pdfrwt beam="1">  1        2 0.19129646E+00 0.35023787E+04</pdfrwt>
<pdfrwt beam="2">  1       -2 0.37943079E+00 0.35023787E+04</pdfrwt>
<totfact> 0.14794456E-01</totfact>
</mgrwt>
</event>
<event>
 6    1  0.2236204E-005  0.2164684E+04  0.7818608E-02  0.8533273E-01
         -1   -1    0    0    0  501 -0.00000000000E+00  0.00000000000E+00  0.38320698335E+03  0.38320698335E+03  0.00000000000E+00 0.  1.
          1   -1    0    0  501    0  0.00000000000E+00 -0.00000000000E+00 -0.30570006081E+04  0.30570006081E+04  0.00000000000E+00 0. -1.
         23    2    1    2    0    0  0.57515208858E+03  0.90911129607E+03 -0.11815308738E+04  0.16006067132E+04  0.92969730478E+02 0.  0.
         13    1    3    3    0    0  0.31902583869E+03  0.58228570962E+03 -0.75268214744E+03  0.10036755195E+04  0.00000000000E+00 0. -1.
        -13    1    3    3    0    0  0.25612624989E+03  0.32682558644E+03 -0.42884872639E+03  0.59693119366E+03  0.00000000000E+00 0.  1.
         22    1    1    2    0    0 -0.57515208858E+03 -0.90911129607E+03 -0.14922627510E+04  0.18396008783E+04  0.00000000000E+00 0.  1.
<mgrwt>
<rscale>  0 0.21646838E+04</rscale>
<asrwt>0</asrwt>
<pdfrwt beam="1">  1        1 0.47030779E+00 0.21646838E+04</pdfrwt>
<pdfrwt beam="2">  1       -1 0.58954920E-01 0.21646838E+04</pdfrwt>
<totfact> 0.14497123E+00</totfact>
</mgrwt>
</event>
<event>
 6    1  0.2236204E-005  0.4994732E+04  0.7818608E-02  0.7829320E-01
         -2   -1    0    0    0  501 -0.00000000000E+00  0.00000000000E+00  0.16564118683E+04  0.16564118683E+04  0.00000000000E+00 0.  1.
          2   -1    0    0  501    0  0.00000000000E+00 -0.00000000000E+00 -0.37652700002E+04  0.37652700002E+04  0.00000000000E+00 0. -1.
         23    2    1    2    0    0 -0.86618413166E+02 -0.13630079619E+04 -0.33232806088E+04  0.35940836068E+04  0.89160047967E+02 0.  0.
         13    1    3    3    0    0 -0.54052644338E+02 -0.67189641781E+03 -0.15268480806E+04  0.16690211340E+04  0.00000000000E+00 0.  1.
        -13    1    3    3    0    0 -0.32565768827E+02 -0.69111154407E+03 -0.17964325283E+04  0.19250624728E+04  0.00000000000E+00 0. -1.
         22    1    1    2    0    0  0.86618413166E+02  0.13630079619E+04  0.12144224770E+04  0.18275982617E+04  0.00000000000E+00 0.  1.
<mgrwt>
<rscale>  0 0.49947324E+04</rscale>
<asrwt>0</asrwt>
<pdfrwt beam="1">  1        2 0.57927230E+00 0.49947324E+04</pdfrwt>
<pdfrwt beam="2">  1       -2 0.25483260E+00 0.49947324E+04</pdfrwt>
<totfact> 0.22733262E-02</totfact>
</mgrwt>
</event>
<event>
 6    1  0.2236204E-005  0.1566048E+04  0.7818608E-02  0.8841682E-01
         -2   -1    0    0    0  501 -0.00000000000E+00  0.00000000000E+00  0.41825327032E+03  0.41825327032E+03  0.00000000000E+00 0.  1.
          2   -1    0    0  501    0  0.00000000000E+00 -0.00000000000E+00 -0.14659216338E+04  0.14659216338E+04  0.00000000000E+00 0. -1.
         23    2    1    2    0    0 -0.43524044786E+03 -0.48140708568E+03 -0.10485840810E+04  0.12351850212E+04  0.70472917941E+02 0.  0.
         13    1    3    3    0    0 -0.18670976981E+03 -0.17114972229E+03 -0.45584250125E+03  0.52148360619E+03  0.00000000000E+00 0. -1.
        -13    1    3    3    0    0 -0.24853067805E+03 -0.31025736339E+03 -0.59274157973E+03  0.71370141502E+03  0.00000000000E+00 0.  1.
         22    1    1    2    0    0  0.43524044786E+03  0.48140708568E+03  0.91571746021E+00  0.64898988293E+03  0.00000000000E+00 0.  1.
<mgrwt>
<rscale>  0 0.15660479E+04</rscale>
<asrwt>0</asrwt>
<pdfrwt beam="1">  1        2 0.22552641E+00 0.15660479E+04</pdfrwt>
<pdfrwt beam="2">  1       -2 0.64346655E-01 0.15660479E+04</pdfrwt>
<totfact> 0.28463017E+01</totfact>
</mgrwt>
</event>
<event>
 6    1  0.2236204E-005  0.3679562E+03  0.7818608E-02  0.1055477E+00
         -2   -1    0    0    0  501 -0.00000000000E+00  0.00000000000E+00  0.15609075969E+03  0.15609075969E+03  0.00000000000E+00 0.  1.
          2   -1    0    0  501    0  0.00000000000E+00 -0.00000000000E+00 -0.21684784161E+03  0.21684784161E+03  0.00000000000E+00 0. -1.
         23    2    1    2    0    0 -0.12179609106E+03  0.49363121855E+02 -0.14562070541E+03  0.21650062576E+03  0.91630374394E+02 0.  0.
         13    1    3    3    0    0 -0.86760155072E+02  0.60746724198E+02 -0.56443571034E+02  0.12001402301E+03  0.00000000000E+00 0. -1.
        -13    1    3    3    0    0 -0.35035935988E+02 -0.11383602343E+02 -0.89177134381E+02  0.96486602745E+02  0.00000000000E+00 0.  1.
         22    1    1    2    0    0  0.12179609106E+03 -0.49363121855E+02  0.84863623500E+02  0.15643797554E+03  0.00000000000E+00 0.  1.
<mgrwt>
<rscale>  0 0.36795622E+03</rscale>
<asrwt>0</asrwt>
<pdfrwt beam="1">  1        2 0.33361207E-01 0.36795622E+03</pdfrwt>
<pdfrwt beam="2">  1       -2 0.24013963E-01 0.36795622E+03</pdfrwt>
<totfact> 0.23932302E+03</totfact>
</mgrwt>
</event>
<event>
 6    1  0.2236204E-005  0.2176269E+04  0.7818608E-02  0.8528371E-01
          2   -1    0    0  501    0  0.00000000000E+00  0.00000000000E+00  0.12636295708E+04  0.12636295708E+04  0.00000000000E+00 0. -1.
         -2   -1    0    0    0  501 -0.00000000000E+00 -0.00000000000E+00 -0.93701252833E+03  0.93701252833E+03  0.00000000000E+00 0.  1.
         23    2    1    2    0    0  0.89185633065E+03 -0.26002623848E+02  0.78994086130E+03  0.11952800688E+04  0.92757897756E+02 0.  0.
         13    1    3    3    0    0  0.93319023277E+02 -0.16545931273E+02  0.52835886894E+02  0.10850732183E+03  0.00000000000E+00 0.  1.
        -13    1    3    3    0    0  0.79853730737E+03 -0.94566925756E+01  0.73710497440E+03  0.10867727470E+04  0.00000000000E+00 0. -1.
         22    1    1    2    0    0 -0.89185633065E+03  0.26002623848E+02 -0.46332381881E+03  0.10053620303E+04  0.00000000000E+00 0.  1.
<mgrwt>
<rscale>  0 0.21762690E+04</rscale>
<asrwt>0</asrwt>
<pdfrwt beam="1">  1        2 0.19440455E+00 0.21762690E+04</pdfrwt>
<pdfrwt beam="2">  1       -2 0.14415577E+00 0.21762690E+04</pdfrwt>
<totfact> 0.52918388E+00</totfact>
</mgrwt>
</event>
<event>
 6    1  0.2236204E-005  0.8881587E+03  0.7818608E-02  0.9440506E-01
          2   -1    0    0  501    0  0.00000000000E+00  0.00000000000E+00  0.24830921174E+03  0.24830921174E+03  0.00000000000E+00 0. -1.
         -2   -1    0    0    0  501 -0.00000000000E+00 -0.00000000000E+00 -0.79419714362E+03  0.79419714362E+03  0.00000000000E+00 0.  1.
         23    2    1    2    0    0  0.15421559462E+03  0.36523858890E+03 -0.49382129349E+03  0.64264061379E+03  0.10929689907E+03 0.  0.
         13    1    3    3    0    0  0.69566088881E+02  0.58627526296E+02 -0.13891761177E+03  0.16605640735E+03  0.00000000000E+00 0. -1.
        -13    1    3    3    0    0  0.84649505739E+02  0.30661106260E+03 -0.35490368172E+03  0.47658420644E+03  0.00000000000E+00 0.  1.
         22    1    1    2    0    0 -0.15421559462E+03 -0.36523858890E+03 -0.52066638393E+02  0.39986574156E+03  0.00000000000E+00 0. -1.
<mgrwt>
<rscale>  0 0.88815869E+03</rscale>
<asrwt>0</asrwt>
<pdfrwt beam="1">  1        2 0.38201417E-01 0.88815869E+03</pdfrwt>
<pdfrwt beam="2">  1       -2 0.12218418E+00 0.88815869E+03</pdfrwt>
<totfact> 0.69069379E+01</totfact>
</mgrwt>
</event>
<event>
 6    1  0.2236204E-005  0.9483905E+03  0.7818608E-02  0.9367034E-01
         -2   -1    0    0    0  501 -0.00000000000E+00  0.00000000000E+00  0.54861702105E+03  0.54861702105E+03  0.00000000000E+00 0.  1.
          2   -1    0    0  501    0  0.00000000000E+00 -0.00000000000E+00 -0.40986905462E+03  0.40986905462E+03  0.00000000000E+00 0. -1.
         23    2    1    2    0    0 -0.14863814768E+03  0.28880665574E+03 -0.27280425508E+03  0.43419816396E+03  0.92753979170E+02 0.  0.
         13    1    3    3    0    0 -0.29521638879E+02  0.13302291883E+03 -0.74465321695E+02  0.15527945205E+03  0.00000000000E+00 0.  1.
        -13    1    3    3    0    0 -0.11911650880E+03  0.15578373692E+03 -0.19833893338E+03  0.27891871191E+03  0.00000000000E+00 0. -1.
         22    1    1    2    0    0  0.14863814768E+03 -0.28880665574E+03  0.41155222150E+03  0.52428791171E+03  0.00000000000E+00 0.  1.
<mgrwt>
<rscale>  0 0.94839051E+03</rscale>
<asrwt>0</asrwt>
<pdfrwt beam="1">  1        2 0.63056777E-01 0.94839051E+03</pdfrwt>
<pdfrwt beam="2">  1       -2 0.84402619E-01 0.94839051E+03</pdfrwt>
<totfact> 0.94871939E+01</totfact>
</mgrwt>
</event>
<event>
 6    1  0.2236204E-005  0.1765124E+04  0.7818608E-02  0.8725069E-01
          2   -1    0    0  501    0  0.00000000000E+00  0.00000000000E+00  0.95750638850E+03  0.95750638850E+03  0.00000000000E+00 0. -1.
         -2   -1    0    0    0  501 -0.00000000000E+00 -0.00000000000E+00 -0.81348366554E+03  0.81348366554E+03  0.00000000000E+00 0.  1.
         23    2    1    2    0    0 -0.83685793272E+03 -0.21493726428E+03  0.24113896636E+03  0.90152999638E+03  0.89883848043E+02 0.  0.
         11    1    3    3    0    0 -0.10865998940E+03 -0.54906446572E+02  0.51682394911E+02  0.13226027792E+03  0.00000000000E+00 0.  1.
        -11    1    3    3    0    0 -0.72819794332E+03 -0.16003081771E+03  0.18945657145E+03  0.76926971846E+03  0.00000000000E+00 0. -1.
         22    1    1    2    0    0  0.83685793272E+03  0.21493726428E+03 -0.97116243397E+02  0.86946005766E+03  0.00000000000E+00 0. -1.
<mgrwt>
<rscale>  0 0.17651241E+04</rscale>
<asrwt>0</asrwt>
<pdfrwt beam="1">  1        2 0.14730868E+00 0.17651241E+04</pdfrwt>
<pdfrwt beam="2">  1       -2 0.12515133E+00 0.17651241E+04</pdfrwt>
<totfact> 0.12147505E+01</totfact>
</mgrwt>
</event>
<event>
 6    1  0.2236204E-005  0.4261400E+04  0.7818608E-02  0.7953794E-01
         -2   -1    0    0    0  501 -0.00000000000E+00  0.00000000000E+00  0.26658785980E+04  0.26658785980E+04  0.00000000000E+00 0.  1.
          2   -1    0    0  501    0  0.00000000000E+00 -0.00000000000E+00 -0.17029588092E+04  0.17029588092E+04  0.00000000000E+00 0. -1.
         23    2    1    2    0    0 -0.63022083111E+03 -0.15888451971E+03 -0.15975899308E+04  0.17271272394E+04  0.90842322581E+02 0.  0.
         13    1    3    3    0    0 -0.95115000448E+02 -0.38742843333E+02 -0.18141759464E+03  0.20847113677E+03  0.00000000000E+00 0.  1.
        -13    1    3    3    0    0 -0.53510583066E+03 -0.12014167638E+03 -0.14161723362E+04  0.15186561027E+04  0.00000000000E+00 0. -1.
         22    1    1    2    0    0  0.63022083111E+03  0.15888451971E+03  0.25605097196E+04  0.26417101678E+04  0.00000000000E+00 0.  1.
<mgrwt>
<rscale>  0 0.42613995E+04</rscale>
<asrwt>0</asrwt>
<pdfrwt beam="1">  1        2 0.26199366E+00 0.42613995E+04</pdfrwt>
<pdfrwt beam="2">  1       -2 0.41013517E+00 0.42613995E+04</pdfrwt>
<totfact> 0.48056884E-02</totfact>
</mgrwt>
</event>
<event>
 6    1  0.2236204E-005  0.6013237E+04  0.7818608E-02  0.7688763E-01
         -2   -1    0    0    0  501 -0.00000000000E+00  0.00000000000E+00  0.21179155019E+04  0.21179155019E+04  0.00000000000E+00 0. -1.
          2   -1    0    0  501    0  0.00000000000E+00 -0.00000000000E+00 -0.42682323120E+04  0.42682323120E+04  0.00000000000E+00 0.  1.
         23    2    1    2    0    0 -0.27810694788E+04 -0.11056749768E+04 -0.77747467412E+03  0.30934953679E+04  0.91553928109E+02 0.  0.
         11    1    3    3    0    0 -0.11996253406E+04 -0.50819841129E+03 -0.37444926507E+03  0.13555732496E+04  0.00000000000E+00 0.  1.
        -11    1    3    3    0    0 -0.15814441382E+04 -0.59747656547E+03 -0.40302540906E+03  0.17379221182E+04  0.00000000000E+00 0. -1.
         22    1    1    2    0    0  0.27810694788E+04  0.11056749768E+04 -0.13728421360E+04  0.32926524461E+04  0.00000000000E+00 0.  1.
<mgrwt>
<rscale>  0 0.60132372E+04</rscale>
<asrwt>0</asrwt>
<pdfrwt beam="1">  1        2 0.65665112E+00 0.60132372E+04</pdfrwt>
<pdfrwt beam="2">  1       -2 0.32583316E+00 0.60132372E+04</pdfrwt>
<totfact> 0.29754488E-03</totfact>
</mgrwt>
</event>
<event>
 6    1  0.2236204E-005  0.2994373E+04  0.7818608E-02  0.8245340E-01
          2   -1    0    0  501    0  0.00000000000E+00  0.00000000000E+00  0.16155640688E+04  0.16155640688E+04  0.00000000000E+00 0.  1.
         -2   -1    0    0    0  501 -0.00000000000E+00 -0.00000000000E+00 -0.13874828482E+04  0.13874828482E+04  0.00000000000E+00 0. -1.
         23    2    1    2    0    0 -0.53855028569E+03  0.13789977730E+04 -0.10037700253E+03  0.14866181938E+04  0.91032101183E+02 0.  0.
         13    1    3    3    0    0 -0.18400539487E+03  0.55290189088E+03 -0.63606010923E+01  0.58275118492E+03  0.00000000000E+00 0.  1.
        -13    1    3    3    0    0 -0.35454489083E+03  0.82609588209E+03 -0.94016401435E+02  0.90386700889E+03  0.00000000000E+00 0. -1.
         22    1    1    2    0    0  0.53855028569E+03 -0.13789977730E+04  0.32845822308E+03  0.15164287231E+04  0.00000000000E+00 0. -1.
<mgrwt>
<rscale>  0 0.29943730E+04</rscale>
<asrwt>0</asrwt>
<pdfrwt beam="1">  1        2 0.24854832E+00 0.29943730E+04</pdfrwt>
<pdfrwt beam="2">  1       -2 0.21345890E+00 0.29943730E+04</pdfrwt>
<totfact> 0.10185159E+00</totfact>
</mgrwt>
</event>
<event>
 6    1  0.2236204E-005  0.2476200E+04  0.7818608E-02  0.8411514E-01
         -2   -1    0    0    0  501 -0.00000000000E+00  0.00000000000E+00  0.15458501655E+04  0.15458501655E+04  0.00000000000E+00 0.  1.
          2   -1    0    0  501    0  0.00000000000E+00 -0.00000000000E+00 -0.99161720538E+03  0.99161720538E+03  0.00000000000E+00 0. -1.
         23    2    1    2    0    0 -0.36927394832E+02  0.11836333227E+04 -0.87203131140E+02  0.11906965165E+04  0.88330817019E+02 0.  0.
         13    1    3    3    0    0  0.20622770600E+02  0.59757578900E+03 -0.23627437825E+02  0.59839817687E+03  0.00000000000E+00 0. -1.
        -13    1    3    3    0    0 -0.57550165432E+02  0.58605753370E+03 -0.63575693315E+02  0.59229833963E+03  0.00000000000E+00 0.  1.
         22    1    1    2    0    0  0.36927394832E+02 -0.11836333227E+04  0.64143609130E+03  0.13467708544E+04  0.00000000000E+00 0.  1.
<mgrwt>
<rscale>  0 0.24762000E+04</rscale>
<asrwt>0</asrwt>
<pdfrwt beam="1">  1        2 0.15255649E+00 0.24762000E+04</pdfrwt>
<pdfrwt beam="2">  1       -2 0.23782310E+00 0.24762000E+04</pdfrwt>
<totfact> 0.17412982E+00</totfact>
</mgrwt>
</event>
<event>
 6    1  0.2236204E-005  0.2595570E+04  0.7818608E-02  0.8369707E-01
         -1   -1    0    0    0  501 -0.00000000000E+00  0.00000000000E+00  0.17882679584E+04  0.17882679584E+04  0.00000000000E+00 0.  1.
          1   -1    0    0  501    0  0.00000000000E+00 -0.00000000000E+00 -0.94183097066E+03  0.94183097066E+03  0.00000000000E+00 0. -1.
         23    2    1    2    0    0  0.99471622146E+03  0.81657084471E+03  0.58627325894E+03  0.14171124587E+04  0.90791413319E+02 0.  0.
         13    1    3    3    0    0  0.88985587873E+03  0.73657131633E+03  0.55499643573E+03  0.12815622625E+04  0.00000000000E+00 0.  1.
        -13    1    3    3    0    0  0.10486034272E+03  0.79999528383E+02  0.31276823203E+02  0.13555019619E+03  0.00000000000E+00 0. -1.
         22    1    1    2    0    0 -0.99471622146E+03 -0.81657084471E+03  0.26016372883E+03  0.13129864704E+04  0.00000000000E+00 0. -1.
<mgrwt>
<rscale>  0 0.25955702E+04</rscale>
<asrwt>0</asrwt>
<pdfrwt beam="1">  1        1 0.14489707E+00 0.25955702E+04</pdfrwt>
<pdfrwt beam="2">  1       -1 0.27511815E+00 0.25955702E+04</pdfrwt>
<totfact> 0.70965771E-01</totfact>
</mgrwt>
</event>
<event>
 6    1  0.2236204E-005  0.2805005E+04  0.7818608E-02  0.8301716E-01
          2   -1    0    0  501    0  0.00000000000E+00  0.00000000000E+00  0.19417446722E+04  0.19417446722E+04  0.00000000000E+00 0. -1.
         -2   -1    0    0    0  501 -0.00000000000E+00 -0.00000000000E+00 -0.10130136661E+04  0.10130136661E+04  0.00000000000E+00 0.  1.
         23    2    1    2    0    0  0.11064326510E+04 -0.16221395268E+03 -0.42425748117E+03  0.11994565339E+04  0.90526176263E+02 0.  0.
         13    1    3    3    0    0  0.50347804399E+03 -0.76352300701E+02 -0.24144434367E+03  0.56357358499E+03  0.00000000000E+00 0.  1.
        -13    1    3    3    0    0  0.60295460705E+03 -0.85861651979E+02 -0.18281313750E+03  0.63588294889E+03  0.00000000000E+00 0. -1.
         22    1    1    2    0    0 -0.11064326510E+04  0.16221395268E+03  0.13529884873E+04  0.17553018044E+04  0.00000000000E+00 0. -1.
<mgrwt>
<rscale>  0 0.28050054E+04</rscale>
<asrwt>0</asrwt>
<pdfrwt beam="1">  1        2 0.29872995E+00 0.28050054E+04</pdfrwt>
<pdfrwt beam="2">  1       -2 0.15584826E+00 0.28050054E+04</pdfrwt>
<totfact> 0.16939716E+00</totfact>
</mgrwt>
</event>
<event>
 6    1  0.2236204E-005  0.3048001E+04  0.7818608E-02  0.8230155E-01
          2   -1    0    0  501    0  0.00000000000E+00  0.00000000000E+00  0.24305889781E+04  0.24305889781E+04  0.00000000000E+00 0. -1.
         -2   -1    0    0    0  501 -0.00000000000E+00 -0.00000000000E+00 -0.95556182707E+03  0.95556182707E+03  0.00000000000E+00 0.  1.
         23    2    1    2    0    0 -0.87797135187E+03  0.20647513836E+03 -0.62472675499E+03  0.11008866753E+04  0.90566417369E+02 0.  0.
         11    1    3    3    0    0 -0.41220414620E+03  0.61835224988E+02 -0.25215884506E+03  0.48715494079E+03  0.00000000000E+00 0. -1.
        -11    1    3    3    0    0 -0.46576720567E+03  0.14463991337E+03 -0.37256790993E+03  0.61373173450E+03  0.00000000000E+00 0.  1.
         22    1    1    2    0    0  0.87797135187E+03 -0.20647513836E+03  0.20997539060E+04  0.22852641299E+04  0.00000000000E+00 0. -1.
<mgrwt>
<rscale>  0 0.30480013E+04</rscale>
<asrwt>0</asrwt>
<pdfrwt beam="1">  1        2 0.37393677E+00 0.30480013E+04</pdfrwt>
<pdfrwt beam="2">  1       -2 0.14700951E+00 0.30480013E+04</pdfrwt>
<totfact> 0.10285613E+00</totfact>
</mgrwt>
</event>
<event>
 6    1  0.2236204E-005  0.2193370E+04  0.7818608E-02  0.8521193E-01
         -2   -1    0    0    0  501 -0.00000000000E+00  0.00000000000E+00  0.44825692044E+03  0.44825692044E+03  0.00000000000E+00 0.  1.
          2   -1    0    0  501    0  0.00000000000E+00 -0.00000000000E+00 -0.26830994517E+04  0.26830994517E+04  0.00000000000E+00 0. -1.
         23    2    1    2    0    0  0.16644985078E+03 -0.44911263343E+03  0.28607679806E+03  0.56533961942E+03  0.91439819408E+02 0.  0.
         13    1    3    3    0    0  0.14690640259E+03 -0.40990629630E+03  0.22487441014E+03  0.49007465065E+03  0.00000000000E+00 0. -1.
        -13    1    3    3    0    0  0.19543448192E+02 -0.39206337120E+02  0.61202387918E+02  0.75264968773E+02  0.00000000000E+00 0.  1.
         22    1    1    2    0    0 -0.16644985078E+03  0.44911263343E+03 -0.25209193293E+04  0.25660167527E+04  0.00000000000E+00 0. -1.
<mgrwt>
<rscale>  0 0.21933699E+04</rscale>
<asrwt>0</asrwt>
<pdfrwt beam="1">  1        2 0.41278453E+00 0.21933699E+04</pdfrwt>
<pdfrwt beam="2">  1       -2 0.68962604E-01 0.21933699E+04</pdfrwt>
<totfact> 0.47754046E+00</totfact>
</mgrwt>
</event>
<event>
 6    1  0.2284677E-005  0.2486668E+04  0.7818608E-02  0.8407750E-01
         -1   -1    0    0    0  501 -0.00000000000E+00  0.00000000000E+00  0.77658971255E+03  0.77658971255E+03  0.00000000000E+00 0.  1.
          1   -1    0    0  501    0  0.00000000000E+00 -0.00000000000E+00 -0.19906005515E+04  0.19906005515E+04  0.00000000000E+00 0. -1.
         23    2    1    2    0    0 -0.37538212708E+03  0.10459000894E+04  0.88637220164E+01  0.11148461927E+04  0.89357313570E+02 0.  0.
         11    1    3    3    0    0 -0.12547061808E+03  0.41545557339E+03  0.40950404698E+02  0.43591644280E+03  0.00000000000E+00 0. -1.
        -11    1    3    3    0    0 -0.24991150900E+03  0.63044451598E+03 -0.32086682681E+02  0.67892974988E+03  0.00000000000E+00 0.  1.
         22    1    1    2    0    0  0.37538212708E+03 -0.10459000894E+04 -0.12228745609E+04  0.16523440713E+04  0.00000000000E+00 0. -1.
<mgrwt>
<rscale>  0 0.24866684E+04</rscale>
<asrwt>0</asrwt>
<pdfrwt beam="1">  1        1 0.30624624E+00 0.24866684E+04</pdfrwt>
<pdfrwt beam="2">  1       -1 0.11947534E+00 0.24866684E+04</pdfrwt>
<totfact> 0.16828668E+00</totfact>
</mgrwt>
</event>
<event>
 6    1  0.2236204E-005  0.2378724E+04  0.7818608E-02  0.8447512E-01
          2   -1    0    0  501    0  0.00000000000E+00  0.00000000000E+00  0.26379800031E+04  0.26379800031E+04  0.00000000000E+00 0. -1.
         -2   -1    0    0    0  501 -0.00000000000E+00 -0.00000000000E+00 -0.53623663093E+03  0.53623663093E+03  0.00000000000E+00 0.  1.
         23    2    1    2    0    0 -0.11667970341E+04 -0.15523395094E+03  0.84121136636E+03  0.14495561353E+04  0.89797150174E+02 0.  0.
         13    1    3    3    0    0 -0.85157460256E+03 -0.86474151783E+02  0.64708293780E+03  0.10730206946E+04  0.00000000000E+00 0.  1.
        -13    1    3    3    0    0 -0.31522243152E+03 -0.68759799162E+02  0.19412842857E+03  0.37653544068E+03  0.00000000000E+00 0. -1.
         22    1    1    2    0    0  0.11667970341E+04  0.15523395094E+03  0.12605320058E+04  0.17246604987E+04  0.00000000000E+00 0. -1.
<mgrwt>
<rscale>  0 0.23787236E+04</rscale>
<asrwt>0</asrwt>
<pdfrwt beam="1">  1        2 0.40584307E+00 0.23787236E+04</pdfrwt>
<pdfrwt beam="2">  1       -2 0.82497945E-01 0.23787236E+04</pdfrwt>
<totfact> 0.33575581E+00</totfact>
</mgrwt>
</event>
<event>
 6    1  0.2236204E-005  0.2232054E+04  0.7818608E-02  0.8505204E-01
         -2   -1    0    0    0  501 -0.00000000000E+00  0.00000000000E+00  0.82486406419E+03  0.82486406419E+03  0.00000000000E+00 0.  1.
          2   -1    0    0  501    0  0.00000000000E+00 -0.00000000000E+00 -0.15099654116E+04  0.15099654116E+04  0.00000000000E+00 0. -1.
         23    2    1    2    0    0 -0.91810651979E+03 -0.46140567563E+03  0.10763041685E+03  0.10370473565E+04  0.89822790904E+02 0.  0.
         11    1    3    3    0    0 -0.80347400581E+03 -0.41381991122E+03  0.12249684333E+03  0.91204324106E+03  0.00000000000E+00 0.  1.
        -11    1    3    3    0    0 -0.11463251398E+03 -0.47585764410E+02 -0.14866426482E+02  0.12500411542E+03  0.00000000000E+00 0. -1.
         22    1    1    2    0    0  0.91810651979E+03  0.46140567563E+03 -0.79273176430E+03  0.12977821194E+04  0.00000000000E+00 0. -1.
<mgrwt>
<rscale>  0 0.22320539E+04</rscale>
<asrwt>0</asrwt>
<pdfrwt beam="1">  1        2 0.23230237E+00 0.22320539E+04</pdfrwt>
<pdfrwt beam="2">  1       -2 0.12690216E+00 0.22320539E+04</pdfrwt>
<totfact> 0.52738738E+00</totfact>
</mgrwt>
</event>
<event>
 6    1  0.2236204E-005  0.2364847E+04  0.7818608E-02  0.8452783E-01
          1   -1    0    0  501    0  0.00000000000E+00  0.00000000000E+00  0.14490932264E+04  0.14490932264E+04  0.00000000000E+00 0. -1.
         -1   -1    0    0    0  501 -0.00000000000E+00 -0.00000000000E+00 -0.96482796751E+03  0.96482796751E+03  0.00000000000E+00 0.  1.
         23    2    1    2    0    0 -0.10997410193E+04  0.42614145429E+03  0.18761390573E+03  0.11977678837E+04  0.91771874385E+02 0.  0.
         13    1    3    3    0    0 -0.22221160699E+03  0.57922723207E+02  0.62011066962E+02  0.23786217137E+03  0.00000000000E+00 0. -1.
        -13    1    3    3    0    0 -0.87752941234E+03  0.36821873108E+03  0.12560283877E+03  0.95990571232E+03  0.00000000000E+00 0.  1.
         22    1    1    2    0    0  0.10997410193E+04 -0.42614145429E+03  0.29665135316E+03  0.12161533102E+04  0.00000000000E+00 0. -1.
<mgrwt>
<rscale>  0 0.23648473E+04</rscale>
<asrwt>0</asrwt>
<pdfrwt beam="1">  1        1 0.22293742E+00 0.23648473E+04</pdfrwt>
<pdfrwt beam="2">  1       -1 0.14843507E+00 0.23648473E+04</pdfrwt>
<totfact> 0.22898081E+00</totfact>
</mgrwt>
</event>
<event>
 6    1  0.2236204E-005  0.6265492E+03  0.7818608E-02  0.9851806E-01
          2   -1    0    0  501    0  0.00000000000E+00  0.00000000000E+00  0.13347658979E+03  0.13347658979E+03  0.00000000000E+00 0. -1.
         -2   -1    0    0    0  501 -0.00000000000E+00 -0.00000000000E+00 -0.73526741028E+03  0.73526741028E+03  0.00000000000E+00 0.  1.
         23    2    1    2    0    0 -0.26162551653E+03  0.35160299364E+02 -0.52412256402E+03  0.59357765835E+03  0.89139311365E+02 0.  0.
         13    1    3    3    0    0 -0.83689464233E+02  0.33589551490E+02 -0.10602446870E+03  0.13918826228E+03  0.00000000000E+00 0. -1.
        -13    1    3    3    0    0 -0.17793605229E+03  0.15707478741E+01 -0.41809809532E+03  0.45438939607E+03  0.00000000000E+00 0.  1.
         22    1    1    2    0    0  0.26162551653E+03 -0.35160299364E+02 -0.77668256473E+02  0.27516634172E+03  0.00000000000E+00 0. -1.
<mgrwt>
<rscale>  0 0.62654924E+03</rscale>
<asrwt>0</asrwt>
<pdfrwt beam="1">  1        2 0.20534861E-01 0.62654924E+03</pdfrwt>
<pdfrwt beam="2">  1       -2 0.11311806E+00 0.62654924E+03</pdfrwt>
<totfact> 0.17122986E+02</totfact>
</mgrwt>
</event>
<event>
 6    1  0.2236204E-005  0.1384792E+04  0.7818608E-02  0.8964901E-01
          2   -1    0    0  501    0  0.00000000000E+00  0.00000000000E+00  0.79057230973E+03  0.79057230973E+03  0.00000000000E+00 0. -1.
         -2   -1    0    0    0  501 -0.00000000000E+00 -0.00000000000E+00 -0.60641163418E+03  0.60641163418E+03  0.00000000000E+00 0.  1.
         23    2    1    2    0    0 -0.46072428323E+03  0.47334341805E+03  0.29205284649E+03  0.72768462587E+03  0.88933643867E+02 0.  0.
         13    1    3    3    0    0 -0.34703716662E+03  0.29853309692E+03  0.20899345994E+03  0.50322467275E+03  0.00000000000E+00 0. -1.
        -13    1    3    3    0    0 -0.11368711662E+03  0.17481032114E+03  0.83059386558E+02  0.22445995312E+03  0.00000000000E+00 0.  1.
         22    1    1    2    0    0  0.46072428323E+03 -0.47334341805E+03 -0.10789217095E+03  0.66929931804E+03  0.00000000000E+00 0.  1.
<mgrwt>
<rscale>  0 0.13847920E+04</rscale>
<asrwt>0</asrwt>
<pdfrwt beam="1">  1        2 0.12162651E+00 0.13847920E+04</pdfrwt>
<pdfrwt beam="2">  1       -2 0.93294097E-01 0.13847920E+04</pdfrwt>
<totfact> 0.33161403E+01</totfact>
</mgrwt>
</event>
<event>
 6    1  0.2236204E-005  0.2105849E+04  0.7818608E-02  0.8558671E-01
          2   -1    0    0  501    0  0.00000000000E+00  0.00000000000E+00  0.20314814617E+04  0.20314814617E+04  0.00000000000E+00 0. -1.
         -2   -1    0    0    0  501 -0.00000000000E+00 -0.00000000000E+00 -0.54573472252E+03  0.54573472252E+03  0.00000000000E+00 0.  1.
         23    2    1    2    0    0 -0.40108613622E+03 -0.74530330620E+03  0.15068302992E+04  0.17305807117E+04  0.89582041886E+02 0.  0.
         13    1    3    3    0    0 -0.39606302722E+02 -0.65197512118E+02  0.19456689279E+03  0.20898720194E+03  0.00000000000E+00 0. -1.
        -13    1    3    3    0    0 -0.36147983349E+03 -0.68010579408E+03  0.13122634064E+04  0.15215935098E+04  0.00000000000E+00 0.  1.
         22    1    1    2    0    0  0.40108613622E+03  0.74530330620E+03 -0.21083559991E+02  0.84663547256E+03  0.00000000000E+00 0.  1.
<mgrwt>
<rscale>  0 0.21058490E+04</rscale>
<asrwt>0</asrwt>
<pdfrwt beam="1">  1        2 0.31253561E+00 0.21058490E+04</pdfrwt>
<pdfrwt beam="2">  1       -2 0.83959189E-01 0.21058490E+04</pdfrwt>
<totfact> 0.73236327E+00</totfact>
</mgrwt>
</event>
<event>
 6    1  0.2236204E-005  0.2116825E+04  0.7818608E-02  0.8553868E-01
         -2   -1    0    0    0  501 -0.00000000000E+00  0.00000000000E+00  0.51146435389E+03  0.51146435389E+03  0.00000000000E+00 0.  1.
          2   -1    0    0  501    0  0.00000000000E+00 -0.00000000000E+00 -0.21902537705E+04  0.21902537705E+04  0.00000000000E+00 0. -1.
         23    2    1    2    0    0 -0.19188031546E+03  0.89737910650E+03 -0.17234360131E+03  0.93777756114E+03  0.87276119340E+02 0.  0.
         13    1    3    3    0    0 -0.14052660332E+03  0.44856188936E+03 -0.87479248460E+02  0.47812980846E+03  0.00000000000E+00 0. -1.
        -13    1    3    3    0    0 -0.51353712136E+02  0.44881721714E+03 -0.84864352855E+02  0.45964775267E+03  0.00000000000E+00 0.  1.
         22    1    1    2    0    0  0.19188031546E+03 -0.89737910650E+03 -0.15064458153E+04  0.17639405632E+04  0.00000000000E+00 0. -1.
<mgrwt>
<rscale>  0 0.21168247E+04</rscale>
<asrwt>0</asrwt>
<pdfrwt beam="1">  1        2 0.33696212E+00 0.21168247E+04</pdfrwt>
<pdfrwt beam="2">  1       -2 0.78686824E-01 0.21168247E+04</pdfrwt>
<totfact> 0.69039847E+00</totfact>
</mgrwt>
</event>
<event>
 6    1  0.2236204E-005  0.1313604E+04  0.7818608E-02  0.9018846E-01
          2   -1    0    0  501    0  0.00000000000E+00  0.00000000000E+00  0.83537224415E+03  0.83537224415E+03  0.00000000000E+00 0. -1.
         -2   -1    0    0    0  501 -0.00000000000E+00 -0.00000000000E+00 -0.51640338768E+03  0.51640338768E+03  0.00000000000E+00 0.  1.
         23    2    1    2    0    0  0.29719582450E+03 -0.57871452127E+03  0.95603069382E+02  0.66393253193E+03  0.91818325198E+02 0.  0.
         11    1    3    3    0    0  0.16347329080E+03 -0.41146539977E+03  0.58284510902E+02  0.44656956482E+03  0.00000000000E+00 0.  1.
        -11    1    3    3    0    0  0.13372253370E+03 -0.16724912151E+03  0.37318558479E+02  0.21736296711E+03  0.00000000000E+00 0. -1.
         22    1    1    2    0    0 -0.29719582450E+03  0.57871452127E+03  0.22336578709E+03  0.68784309990E+03  0.00000000000E+00 0.  1.
<mgrwt>
<rscale>  0 0.13136043E+04</rscale>
<asrwt>0</asrwt>
<pdfrwt beam="1">  1        2 0.12851881E+00 0.13136043E+04</pdfrwt>
<pdfrwt beam="2">  1       -2 0.79446675E-01 0.13136043E+04</pdfrwt>
<totfact> 0.44700527E+01</totfact>
</mgrwt>
</event>
<event>
 6    1  0.2236204E-005  0.2318907E+04  0.7818608E-02  0.8470503E-01
         -2   -1    0    0    0  501 -0.00000000000E+00  0.00000000000E+00  0.56309536984E+03  0.56309536984E+03  0.00000000000E+00 0. -1.
          2   -1    0    0  501    0  0.00000000000E+00 -0.00000000000E+00 -0.23873972474E+04  0.23873972474E+04  0.00000000000E+00 0.  1.
         23    2    1    2    0    0 -0.22336796469E+03  0.98870526114E+03 -0.16251625772E+04  0.19174931971E+04  0.90528545308E+02 0.  0.
         11    1    3    3    0    0 -0.32582448575E+02  0.18095007905E+03 -0.36269421650E+03  0.40663453093E+03  0.00000000000E+00 0.  1.
        -11    1    3    3    0    0 -0.19078551611E+03  0.80775518209E+03 -0.12624683607E+04  0.15108586662E+04  0.00000000000E+00 0. -1.
         22    1    1    2    0    0  0.22336796469E+03 -0.98870526114E+03 -0.19913930035E+03  0.10329994201E+04  0.00000000000E+00 0. -1.
<mgrwt>
<rscale>  0 0.23189069E+04</rscale>
<asrwt>0</asrwt>
<pdfrwt beam="1">  1        2 0.36729188E+00 0.23189069E+04</pdfrwt>
<pdfrwt beam="2">  1       -2 0.86630058E-01 0.23189069E+04</pdfrwt>
<totfact> 0.42211139E+00</totfact>
</mgrwt>
</event>
<event>
 6    1  0.2236204E-005  0.2665278E+04  0.7818608E-02  0.8346360E-01
         -2   -1    0    0    0  501 -0.00000000000E+00  0.00000000000E+00  0.17498014356E+04  0.17498014356E+04  0.00000000000E+00 0.  1.
          2   -1    0    0  501    0  0.00000000000E+00 -0.00000000000E+00 -0.10149305620E+04  0.10149305620E+04  0.00000000000E+00 0. -1.
         23    2    1    2    0    0 -0.48899843271E+03  0.15100444280E+03  0.16426011146E+04  0.17226686600E+04  0.86758754123E+02 0.  0.
         11    1    3    3    0    0 -0.11879790253E+03  0.24671864302E-01  0.40832646416E+03  0.42525691480E+03  0.00000000000E+00 0.  1.
        -11    1    3    3    0    0 -0.37020053018E+03  0.15097977094E+03  0.12342746505E+04  0.12974117452E+04  0.00000000000E+00 0. -1.
         22    1    1    2    0    0  0.48899843271E+03 -0.15100444280E+03 -0.90773024109E+03  0.10420633376E+04  0.00000000000E+00 0. -1.
<mgrwt>
<rscale>  0 0.26652782E+04</rscale>
<asrwt>0</asrwt>
<pdfrwt beam="1">  1        2 0.15614316E+00 0.26652782E+04</pdfrwt>
<pdfrwt beam="2">  1       -2 0.26920022E+00 0.26652782E+04</pdfrwt>
<totfact> 0.10624839E+00</totfact>
</mgrwt>
</event>
<event>
 6    1  0.2236204E-005  0.6514514E+03  0.7818608E-02  0.9804060E-01
         -2   -1    0    0    0  501 -0.00000000000E+00  0.00000000000E+00  0.24134612045E+03  0.24134612045E+03  0.00000000000E+00 0.  1.
          2   -1    0    0  501    0  0.00000000000E+00 -0.00000000000E+00 -0.43960609803E+03  0.43960609803E+03  0.00000000000E+00 0. -1.
         23    2    1    2    0    0  0.27731189841E+03  0.15569029694E+03 -0.68304019184E+02  0.33739740671E+03  0.89611458277E+02 0.  0.
         11    1    3    3    0    0  0.85523249244E+02  0.92317149112E+02 -0.58702716342E+01  0.12598072182E+03  0.00000000000E+00 0. -1.
        -11    1    3    3    0    0  0.19178864917E+03  0.63373147824E+02 -0.62433747549E+02  0.21141668489E+03  0.00000000000E+00 0.  1.
         22    1    1    2    0    0 -0.27731189841E+03 -0.15569029694E+03 -0.12995595840E+03  0.34355481176E+03  0.00000000000E+00 0. -1.
<mgrwt>
<rscale>  0 0.65145138E+03</rscale>
<asrwt>0</asrwt>
<pdfrwt beam="1">  1        2 0.67631706E-01 0.65145138E+03</pdfrwt>
<pdfrwt beam="2">  1       -2 0.37130173E-01 0.65145138E+03</pdfrwt>
<totfact> 0.49210681E+02</totfact>
</mgrwt>
</event>
<event>
 6    1  0.3049033E-005  0.3143026E+04  0.7818608E-02  0.8204028E-01
          2   -1    0    0  501    0  0.00000000000E+00  0.00000000000E+00  0.21364617754E+04  0.21364617754E+04  0.00000000000E+00 0. -1.
         -2   -1    0    0    0  501 -0.00000000000E+00 -0.00000000000E+00 -0.11559547974E+04  0.11559547974E+04  0.00000000000E+00 0.  1.
         23    2    1    2    0    0 -0.13032908834E+03 -0.79866818270E+03  0.19002695114E+04  0.20673371243E+04  0.89454078931E+02 0.  0.
         11    1    3    3    0    0 -0.21275559656E+02 -0.40002621416E+03  0.96244083699E+03  0.10424806886E+04  0.00000000000E+00 0.  1.
        -11    1    3    3    0    0 -0.10905352869E+03 -0.39864196855E+03  0.93782867444E+03  0.10248564357E+04  0.00000000000E+00 0. -1.
         22    1    1    2    0    0  0.13032908834E+03  0.79866818270E+03 -0.91976253336E+03  0.12250794485E+04  0.00000000000E+00 0.  1.
<mgrwt>
<rscale>  0 0.31430261E+04</rscale>
<asrwt>0</asrwt>
<pdfrwt beam="1">  1        2 0.32868643E+00 0.31430261E+04</pdfrwt>
<pdfrwt beam="2">  1       -2 0.17783920E+00 0.31430261E+04</pdfrwt>
<totfact> 0.89024628E-01</totfact>
</mgrwt>
</event>
<event>
 6    1  0.2236204E-005  0.2624213E+04  0.7818608E-02  0.8360023E-01
          2   -1    0    0  501    0  0.00000000000E+00  0.00000000000E+00  0.15177383719E+04  0.15177383719E+04  0.00000000000E+00 0. -1.
         -2   -1    0    0    0  501 -0.00000000000E+00 -0.00000000000E+00 -0.11343346321E+04  0.11343346321E+04  0.00000000000E+00 0.  1.
         23    2    1    2    0    0  0.30157905397E+03  0.49440110440E+02 -0.10965937856E+04  0.11408526609E+04  0.75050735324E+02 0.  0.
         11    1    3    3    0    0  0.26734760771E+03  0.18318685987E+02 -0.91247768568E+03  0.95101306219E+03  0.00000000000E+00 0.  1.
        -11    1    3    3    0    0  0.34231446266E+02  0.31121424453E+02 -0.18411609993E+03  0.18983959868E+03  0.00000000000E+00 0. -1.
         22    1    1    2    0    0 -0.30157905397E+03 -0.49440110440E+02  0.14799975254E+04  0.15112203431E+04  0.00000000000E+00 0. -1.
<mgrwt>
<rscale>  0 0.26242128E+04</rscale>
<asrwt>0</asrwt>
<pdfrwt beam="1">  1        2 0.23349821E+00 0.26242128E+04</pdfrwt>
<pdfrwt beam="2">  1       -2 0.17451302E+00 0.26242128E+04</pdfrwt>
<totfact> 0.21689057E+00</totfact>
</mgrwt>
</event>
<event>
 6    1  0.2236204E-005  0.1453111E+04  0.7818608E-02  0.8916247E-01
          2   -1    0    0  501    0  0.00000000000E+00  0.00000000000E+00  0.13150629761E+04  0.13150629761E+04  0.00000000000E+00 0. -1.
         -2   -1    0    0    0  501 -0.00000000000E+00 -0.00000000000E+00 -0.40141265390E+03  0.40141265390E+03  0.00000000000E+00 0.  1.
         23    2    1    2    0    0  0.14170874904E+01 -0.72337482537E+03  0.44086384015E+03  0.85229960412E+03  0.93704554391E+02 0.  0.
         11    1    3    3    0    0  0.49422635163E+01 -0.57705066623E+03  0.30556914661E+03  0.65298116414E+03  0.00000000000E+00 0. -1.
        -11    1    3    3    0    0 -0.35251760259E+01 -0.14632415914E+03  0.13529469355E+03  0.19931843998E+03  0.00000000000E+00 0.  1.
         22    1    1    2    0    0 -0.14170874904E+01  0.72337482537E+03  0.47278648205E+03  0.86417602589E+03  0.00000000000E+00 0.  1.
<mgrwt>
<rscale>  0 0.14531110E+04</rscale>
<asrwt>0</asrwt>
<pdfrwt beam="1">  1        2 0.20231738E+00 0.14531110E+04</pdfrwt>
<pdfrwt beam="2">  1       -2 0.61755793E-01 0.14531110E+04</pdfrwt>
<totfact> 0.38262194E+01</totfact>
</mgrwt>
</event>
<event>
 6    1  0.2236204E-005  0.9681926E+03  0.7818608E-02  0.9344135E-01
         -2   -1    0    0    0  501 -0.00000000000E+00  0.00000000000E+00  0.10997634486E+03  0.10997634486E+03  0.00000000000E+00 0. -1.
          2   -1    0    0  501    0  0.00000000000E+00 -0.00000000000E+00 -0.21309056602E+04  0.21309056602E+04  0.00000000000E+00 0.  1.
         23    2    1    2    0    0  0.35431218645E+03 -0.32358081485E+03 -0.10216516111E+04  0.11323705710E+04  0.90826353197E+02 0.  0.
         11    1    3    3    0    0  0.24020675373E+03 -0.18373645484E+03 -0.55530292566E+03  0.63231298312E+03  0.00000000000E+00 0. -1.
        -11    1    3    3    0    0  0.11410543272E+03 -0.13984436001E+03 -0.46634868541E+03  0.50005758787E+03  0.00000000000E+00 0.  1.
         22    1    1    2    0    0 -0.35431218645E+03  0.32358081485E+03 -0.99927770430E+03  0.11085114341E+04  0.00000000000E+00 0. -1.
<mgrwt>
<rscale>  0 0.96819258E+03</rscale>
<asrwt>0</asrwt>
<pdfrwt beam="1">  1        2 0.32783166E+00 0.96819258E+03</pdfrwt>
<pdfrwt beam="2">  1       -2 0.16919437E-01 0.96819258E+03</pdfrwt>
<totfact> 0.16248594E+02</totfact>
</mgrwt>
</event>
<event>
 6    1  0.2317117E-005  0.2831660E+04  0.7818608E-02  0.8293506E-01
         -2   -1    0    0    0  501 -0.00000000000E+00  0.00000000000E+00  0.99949431371E+03  0.99949431371E+03  0.00000000000E+00 0.  1.
          2   -1    0    0  501    0  0.00000000000E+00 -0.00000000000E+00 -0.20055887152E+04  0.20055887152E+04  0.00000000000E+00 0. -1.
         23    2    1    2    0    0 -0.56542871191E+02  0.90293597640E+03  0.65005154634E+03  0.11179397184E+04  0.93443712339E+02 0.  0.
         13    1    3    3    0    0 -0.19032518694E+02  0.56087012017E+03  0.45439807767E+03  0.72209081247E+03  0.00000000000E+00 0. -1.
        -13    1    3    3    0    0 -0.37510352497E+02  0.34206585622E+03  0.19565346868E+03  0.39584890595E+03  0.00000000000E+00 0.  1.
         22    1    1    2    0    0  0.56542871191E+02 -0.90293597640E+03 -0.16561459478E+04  0.18871433104E+04  0.00000000000E+00 0. -1.
<mgrwt>
<rscale>  0 0.28316599E+04</rscale>
<asrwt>0</asrwt>
<pdfrwt beam="1">  1        2 0.30855211E+00 0.28316599E+04</pdfrwt>
<pdfrwt beam="2">  1       -2 0.15376836E+00 0.28316599E+04</pdfrwt>
<totfact> 0.16147635E+00</totfact>
</mgrwt>
</event>
<event>
 6    1  0.2236204E-005  0.2273978E+04  0.7818608E-02  0.8488253E-01
         -3   -1    0    0    0  501 -0.00000000000E+00  0.00000000000E+00  0.74608145887E+03  0.74608145887E+03  0.00000000000E+00 0.  1.
          3   -1    0    0  501    0  0.00000000000E+00 -0.00000000000E+00 -0.17327113183E+04  0.17327113183E+04  0.00000000000E+00 0. -1.
         23    2    1    2    0    0 -0.38453761992E+03  0.86339109069E+03  0.19124441307E+03  0.96859373119E+03  0.91027654808E+02 0.  0.
         13    1    3    3    0    0 -0.25954356121E+03  0.47667788594E+03  0.12249736245E+03  0.55640836704E+03  0.00000000000E+00 0. -1.
        -13    1    3    3    0    0 -0.12499405871E+03  0.38671320475E+03  0.68747050615E+02  0.41218536414E+03  0.00000000000E+00 0.  1.
         22    1    1    2    0    0  0.38453761992E+03 -0.86339109069E+03 -0.11778742725E+04  0.15101990459E+04  0.00000000000E+00 0. -1.
<mgrwt>
<rscale>  0 0.22739778E+04</rscale>
<asrwt>0</asrwt>
<pdfrwt beam="1">  1        3 0.26657097E+00 0.22739778E+04</pdfrwt>
<pdfrwt beam="2">  1       -3 0.11478177E+00 0.22739778E+04</pdfrwt>
<totfact> 0.88718111E-02</totfact>
</mgrwt>
</event>
<event>
 6    1  0.2236204E-005  0.1880662E+04  0.7818608E-02  0.8664542E-01
          2   -1    0    0  501    0  0.00000000000E+00  0.00000000000E+00  0.25737008937E+04  0.25737008937E+04  0.00000000000E+00 0. -1.
         -2   -1    0    0    0  501 -0.00000000000E+00 -0.00000000000E+00 -0.34356066429E+03  0.34356066429E+03  0.00000000000E+00 0.  1.
         23    2    1    2    0    0 -0.28975528715E+03  0.34844363208E+02  0.25006468241E+04  0.25193343362E+04  0.92944621755E+02 0.  0.
         11    1    3    3    0    0 -0.27237585002E+03  0.30221606080E+02  0.20385807855E+04  0.20569184641E+04  0.00000000000E+00 0. -1.
        -11    1    3    3    0    0 -0.17379437131E+02  0.46227571287E+01  0.46206603862E+03  0.46241587209E+03  0.00000000000E+00 0.  1.
         22    1    1    2    0    0  0.28975528715E+03 -0.34844363208E+02 -0.27050659466E+03  0.39792722178E+03  0.00000000000E+00 0.  1.
<mgrwt>
<rscale>  0 0.18806620E+04</rscale>
<asrwt>0</asrwt>
<pdfrwt beam="1">  1        2 0.39595397E+00 0.18806620E+04</pdfrwt>
<pdfrwt beam="2">  1       -2 0.52855488E-01 0.18806620E+04</pdfrwt>
<totfact> 0.99976745E+00</totfact>
</mgrwt>
</event>
<event>
 6    1  0.2236204E-005  0.1783993E+04  0.7818608E-02  0.8714859E-01
          2   -1    0    0  501    0  0.00000000000E+00  0.00000000000E+00  0.14420463467E+04  0.14420463467E+04  0.00000000000E+00 0. -1.
         -2   -1    0    0    0  501 -0.00000000000E+00 -0.00000000000E+00 -0.55175588398E+03  0.55175588398E+03  0.00000000000E+00 0.  1.
         23    2    1    2    0    0 -0.95698460262E+02 -0.48837682777E+03 -0.37785969939E+03  0.63149721532E+03  0.91327210235E+02 0.  0.
         11    1    3    3    0    0 -0.98099868099E+02 -0.26522646739E+03 -0.21427697081E+03  0.35480034293E+03  0.00000000000E+00 0. -1.
        -11    1    3    3    0    0  0.24014078364E+01 -0.22315036038E+03 -0.16358272858E+03  0.27669687239E+03  0.00000000000E+00 0.  1.
         22    1    1    2    0    0  0.95698460262E+02  0.48837682777E+03  0.12681501621E+04  0.13623050154E+04  0.00000000000E+00 0. -1.
<mgrwt>
<rscale>  0 0.17839928E+04</rscale>
<asrwt>0</asrwt>
<pdfrwt beam="1">  1        2 0.22185328E+00 0.17839928E+04</pdfrwt>
<pdfrwt beam="2">  1       -2 0.84885521E-01 0.17839928E+04</pdfrwt>
<totfact> 0.15643435E+01</totfact>
</mgrwt>
</event>
<event>
 6    1  0.2236204E-005  0.2356527E+04  0.7818608E-02  0.8455961E-01
          1   -1    0    0  501    0  0.00000000000E+00  0.00000000000E+00  0.10713588198E+04  0.10713588198E+04  0.00000000000E+00 0. -1.
         -1   -1    0    0    0  501 -0.00000000000E+00 -0.00000000000E+00 -0.12958353672E+04  0.12958353672E+04  0.00000000000E+00 0.  1.
         23    2    1    2    0    0  0.10946214274E+04 -0.39126603003E+03 -0.29477778284E+03  0.12026224033E+04  0.90119520671E+02 0.  0.
         11    1    3    3    0    0  0.28495013920E+03 -0.94064902007E+02 -0.11649970262E+03  0.32189589673E+03  0.00000000000E+00 0.  1.
        -11    1    3    3    0    0  0.80967128823E+03 -0.29720112803E+03 -0.17827808022E+03  0.88072650657E+03  0.00000000000E+00 0. -1.
         22    1    1    2    0    0 -0.10946214274E+04  0.39126603003E+03  0.70301235472E+02  0.11645717837E+04  0.00000000000E+00 0.  1.
<mgrwt>
<rscale>  0 0.23565268E+04</rscale>
<asrwt>0</asrwt>
<pdfrwt beam="1">  1        1 0.16482443E+00 0.23565268E+04</pdfrwt>
<pdfrwt beam="2">  1       -1 0.19935929E+00 0.23565268E+04</pdfrwt>
<totfact> 0.18228499E+00</totfact>
</mgrwt>
</event>
<event>
 6    1  0.2236204E-005  0.2179521E+04  0.7818608E-02  0.8527001E-01
         -2   -1    0    0    0  501 -0.00000000000E+00  0.00000000000E+00  0.16563745373E+04  0.16563745373E+04  0.00000000000E+00 0. -1.
          2   -1    0    0  501    0  0.00000000000E+00 -0.00000000000E+00 -0.71697417200E+03  0.71697417200E+03  0.00000000000E+00 0.  1.
         23    2    1    2    0    0 -0.79363430277E+03  0.73647093305E+03  0.58564835675E+03  0.12343204720E+04  0.91204101459E+02 0.  0.
         13    1    3    3    0    0 -0.32675103877E+03  0.34444667694E+03  0.21829268755E+03  0.52255282224E+03  0.00000000000E+00 0.  1.
        -13    1    3    3    0    0 -0.46688326400E+03  0.39202425611E+03  0.36735566920E+03  0.71176764978E+03  0.00000000000E+00 0. -1.
         22    1    1    2    0    0  0.79363430277E+03 -0.73647093305E+03  0.35375200854E+03  0.11390282373E+04  0.00000000000E+00 0.  1.
<mgrwt>
<rscale>  0 0.21795208E+04</rscale>
<asrwt>0</asrwt>
<pdfrwt beam="1">  1        2 0.11030372E+00 0.21795208E+04</pdfrwt>
<pdfrwt beam="2">  1       -2 0.25482685E+00 0.21795208E+04</pdfrwt>
<totfact> 0.21835301E+00</totfact>
</mgrwt>
</event>
<event>
 6    1  0.2236204E-005  0.1346034E+04  0.7818608E-02  0.8993835E-01
         -2   -1    0    0    0  501 -0.00000000000E+00  0.00000000000E+00  0.36612780908E+03  0.36612780908E+03  0.00000000000E+00 0.  1.
          2   -1    0    0  501    0  0.00000000000E+00 -0.00000000000E+00 -0.12371421892E+04  0.12371421892E+04  0.00000000000E+00 0. -1.
         23    2    1    2    0    0 -0.96444372868E+01 -0.56780576054E+03 -0.86083191896E+03  0.10352910555E+04  0.91102031111E+02 0.  0.
         11    1    3    3    0    0 -0.41267996359E+02 -0.28007987741E+03 -0.37664958972E+03  0.47118223511E+03  0.00000000000E+00 0. -1.
        -11    1    3    3    0    0  0.31623559072E+02 -0.28772588313E+03 -0.48418232925E+03  0.56410882041E+03  0.00000000000E+00 0.  1.
         22    1    1    2    0    0  0.96444372868E+01  0.56780576054E+03 -0.10182461133E+02  0.56797894273E+03  0.00000000000E+00 0.  1.
<mgrwt>
<rscale>  0 0.13460344E+04</rscale>
<asrwt>0</asrwt>
<pdfrwt beam="1">  1        2 0.19032957E+00 0.13460344E+04</pdfrwt>
<pdfrwt beam="2">  1       -2 0.56327356E-01 0.13460344E+04</pdfrwt>
<totfact> 0.52018735E+01</totfact>
</mgrwt>
</event>
<event>
 6    1  0.2236204E-005  0.3191827E+04  0.7818608E-02  0.8190979E-01
          1   -1    0    0  501    0  0.00000000000E+00  0.00000000000E+00  0.23900230046E+04  0.23900230046E+04  0.00000000000E+00 0. -1.
         -1   -1    0    0    0  501 -0.00000000000E+00 -0.00000000000E+00 -0.10656546861E+04  0.10656546861E+04  0.00000000000E+00 0.  1.
         23    2    1    2    0    0  0.25041558708E+03 -0.13810158875E+04  0.14824435641E+04  0.20432681782E+04  0.85983018909E+02 0.  0.
         13    1    3    3    0    0  0.33175268631E+02 -0.33980004961E+03  0.39571607487E+03  0.52264317088E+03  0.00000000000E+00 0. -1.
        -13    1    3    3    0    0  0.21724031845E+03 -0.10412158379E+04  0.10867274892E+04  0.15206250073E+04  0.00000000000E+00 0.  1.
         22    1    1    2    0    0 -0.25041558708E+03  0.13810158875E+04 -0.15807524553E+03  0.14124095125E+04  0.00000000000E+00 0.  1.
<mgrwt>
<rscale>  0 0.31918266E+04</rscale>
<asrwt>0</asrwt>
<pdfrwt beam="1">  1        1 0.36769585E+00 0.31918266E+04</pdfrwt>
<pdfrwt beam="2">  1       -1 0.16394687E+00 0.31918266E+04</pdfrwt>
<totfact> 0.36868664E-01</totfact>
</mgrwt>
</event>
<event>
 6    1  0.2236204E-005  0.3959871E+04  0.7818608E-02  0.8012691E-01
         -2   -1    0    0    0  501 -0.00000000000E+00  0.00000000000E+00  0.21804717750E+04  0.21804717750E+04  0.00000000000E+00 0.  1.
          2   -1    0    0  501    0  0.00000000000E+00 -0.00000000000E+00 -0.17978423489E+04  0.17978423489E+04  0.00000000000E+00 0. -1.
         23    2    1    2    0    0  0.94910929594E+03 -0.37175548031E+03 -0.15126993497E+04  0.18262728228E+04  0.89456738678E+02 0.  0.
         11    1    3    3    0    0  0.87782125215E+03 -0.35571505861E+03 -0.14369401738E+04  0.17210172622E+04  0.00000000000E+00 0. -1.
        -11    1    3    3    0    0  0.71288043794E+02 -0.16040421708E+02 -0.75759175840E+02  0.10525556062E+03  0.00000000000E+00 0.  1.
         22    1    1    2    0    0 -0.94910929594E+03  0.37175548031E+03  0.18953287758E+04  0.21520413010E+04  0.00000000000E+00 0.  1.
<mgrwt>
<rscale>  0 0.39598710E+04</rscale>
<asrwt>0</asrwt>
<pdfrwt beam="1">  1        2 0.27659113E+00 0.39598710E+04</pdfrwt>
<pdfrwt beam="2">  1       -2 0.33545720E+00 0.39598710E+04</pdfrwt>
<totfact> 0.13143024E-01</totfact>
</mgrwt>
</event>
<event>
 6    1  0.2236204E-005  0.1980870E+04  0.7818608E-02  0.8615617E-01
         -2   -1    0    0    0  501 -0.00000000000E+00  0.00000000000E+00  0.63952117635E+03  0.63952117635E+03  0.00000000000E+00 0.  1.
          2   -1    0    0  501    0  0.00000000000E+00 -0.00000000000E+00 -0.15338998181E+04  0.15338998181E+04  0.00000000000E+00 0. -1.
         23    2    1    2    0    0  0.80703832148E+03 -0.56588786273E+03 -0.52785975369E+03  0.11218145943E+04  0.91061182333E+02 0.  0.
         13    1    3    3    0    0  0.48122347860E+03 -0.28712461413E+03 -0.31987489129E+03  0.64524144820E+03  0.00000000000E+00 0.  1.
        -13    1    3    3    0    0  0.32581484287E+03 -0.27876324860E+03 -0.20798486240E+03  0.47657314611E+03  0.00000000000E+00 0. -1.
         22    1    1    2    0    0 -0.80703832148E+03  0.56588786273E+03 -0.36651888807E+03  0.10516064001E+04  0.00000000000E+00 0.  1.
<mgrwt>
<rscale>  0 0.19808699E+04</rscale>
<asrwt>0</asrwt>
<pdfrwt beam="1">  1        2 0.23598458E+00 0.19808699E+04</pdfrwt>
<pdfrwt beam="2">  1       -2 0.98387875E-01 0.19808699E+04</pdfrwt>
<totfact> 0.97026950E+00</totfact>
</mgrwt>
</event>
<event>
 6    1  0.2236204E-005  0.1883566E+04  0.7818608E-02  0.8663080E-01
          2   -1    0    0  501    0  0.00000000000E+00  0.00000000000E+00  0.87634431694E+03  0.87634431694E+03  0.00000000000E+00 0. -1.
         -2   -1    0    0    0  501 -0.00000000000E+00 -0.00000000000E+00 -0.10121080125E+04  0.10121080125E+04  0.00000000000E+00 0.  1.
         23    2    1    2    0    0  0.92228279564E+02 -0.59637501574E+03  0.65382859108E+03  0.89465899375E+03  0.93561068977E+02 0.  0.
         11    1    3    3    0    0  0.27902002782E+02 -0.44697067831E+03  0.47021574157E+03  0.64935672219E+03  0.00000000000E+00 0. -1.
        -11    1    3    3    0    0  0.64326276782E+02 -0.14940433743E+03  0.18361284951E+03  0.24530227156E+03  0.00000000000E+00 0.  1.
         22    1    1    2    0    0 -0.92228279564E+02  0.59637501574E+03 -0.78959228668E+03  0.99379333573E+03  0.00000000000E+00 0.  1.
<mgrwt>
<rscale>  0 0.18835659E+04</rscale>
<asrwt>0</asrwt>
<pdfrwt beam="1">  1        2 0.13482220E+00 0.18835659E+04</pdfrwt>
<pdfrwt beam="2">  1       -2 0.15570893E+00 0.18835659E+04</pdfrwt>
<totfact> 0.77365312E+00</totfact>
</mgrwt>
</event>
<event>
 6    1  0.2236204E-005  0.1671769E+04  0.7818608E-02  0.8777632E-01
          2   -1    0    0  501    0  0.00000000000E+00  0.00000000000E+00  0.18706363855E+04  0.18706363855E+04  0.00000000000E+00 0. -1.
         -2   -1    0    0    0  501 -0.00000000000E+00 -0.00000000000E+00 -0.37351061328E+03  0.37351061328E+03  0.00000000000E+00 0.  1.
         23    2    1    2    0    0 -0.19849171725E+02 -0.45584522182E+03 -0.18538639831E+03  0.50086387208E+03  0.91146287906E+02 0.  0.
         11    1    3    3    0    0  0.26676325814E+02 -0.11027214380E+03 -0.21055993537E+02  0.11539032421E+03  0.00000000000E+00 0. -1.
        -11    1    3    3    0    0 -0.46525497538E+02 -0.34557307802E+03 -0.16433040477E+03  0.38547354787E+03  0.00000000000E+00 0.  1.
         22    1    1    2    0    0  0.19849171725E+02  0.45584522182E+03  0.16825121705E+04  0.17432831267E+04  0.00000000000E+00 0. -1.
<mgrwt>
<rscale>  0 0.16717686E+04</rscale>
<asrwt>0</asrwt>
<pdfrwt beam="1">  1        2 0.28779021E+00 0.16717686E+04</pdfrwt>
<pdfrwt beam="2">  1       -2 0.57463172E-01 0.16717686E+04</pdfrwt>
<totfact> 0.21328200E+01</totfact>
</mgrwt>
</event>
<event>
 6    1  0.2236204E-005  0.1443061E+04  0.7818608E-02  0.8923225E-01
          2   -1    0    0  501    0  0.00000000000E+00  0.00000000000E+00  0.32861537598E+04  0.32861537598E+04  0.00000000000E+00 0. -1.
         -2   -1    0    0    0  501 -0.00000000000E+00 -0.00000000000E+00 -0.15842426530E+03  0.15842426530E+03  0.00000000000E+00 0.  1.
         23    2    1    2    0    0 -0.26136417686E+03 -0.65543447566E+03  0.12463555780E+04  0.14352315148E+04  0.92637408353E+02 0.  0.
         11    1    3    3    0    0 -0.93063527780E+02 -0.33434708428E+03  0.66474855011E+03  0.74989294425E+03  0.00000000000E+00 0. -1.
        -11    1    3    3    0    0 -0.16830064908E+03 -0.32108739138E+03  0.58160702794E+03  0.68533857058E+03  0.00000000000E+00 0.  1.
         22    1    1    2    0    0  0.26136417686E+03  0.65543447566E+03  0.18813739165E+04  0.20093465103E+04  0.00000000000E+00 0. -1.
<mgrwt>
<rscale>  0 0.14430613E+04</rscale>
<asrwt>0</asrwt>
<pdfrwt beam="1">  1        2 0.50556207E+00 0.14430613E+04</pdfrwt>
<pdfrwt beam="2">  1       -2 0.24372966E-01 0.14430613E+04</pdfrwt>
<totfact> 0.16789189E+01</totfact>
</mgrwt>
</event>
<event>
 6    1  0.2236204E-005  0.2709748E+04  0.7818608E-02  0.8331849E-01
         -2   -1    0    0    0  501 -0.00000000000E+00  0.00000000000E+00  0.87039922767E+03  0.87039922767E+03  0.00000000000E+00 0.  1.
          2   -1    0    0  501    0  0.00000000000E+00 -0.00000000000E+00 -0.21090128632E+04  0.21090128632E+04  0.00000000000E+00 0. -1.
         23    2    1    2    0    0  0.55068722394E+02  0.10057397842E+04  0.37367261041E+03  0.10783565902E+04  0.93148474331E+02 0.  0.
         13    1    3    3    0    0 -0.22113440920E+02  0.18505940785E+03  0.51793315288E+02  0.19343871436E+03  0.00000000000E+00 0. -1.
        -13    1    3    3    0    0  0.77182163314E+02  0.82068037631E+03  0.32187929513E+03  0.88491787586E+03  0.00000000000E+00 0.  1.
         22    1    1    2    0    0 -0.55068722394E+02 -0.10057397842E+04 -0.16122862459E+04  0.19010555006E+04  0.00000000000E+00 0. -1.
<mgrwt>
<rscale>  0 0.27097477E+04</rscale>
<asrwt>0</asrwt>
<pdfrwt beam="1">  1        2 0.32446352E+00 0.27097477E+04</pdfrwt>
<pdfrwt beam="2">  1       -2 0.13390757E+00 0.27097477E+04</pdfrwt>
<totfact> 0.20507149E+00</totfact>
</mgrwt>
</event>
<event>
 6    1  0.2236204E-005  0.1228412E+04  0.7818608E-02  0.9088345E-01
          2   -1    0    0  501    0  0.00000000000E+00  0.00000000000E+00  0.89302080873E+03  0.89302080873E+03  0.00000000000E+00 0. -1.
         -2   -1    0    0    0  501 -0.00000000000E+00 -0.00000000000E+00 -0.42244156678E+03  0.42244156678E+03  0.00000000000E+00 0.  1.
         23    2    1    2    0    0 -0.46085071596E+03  0.21840338279E+03 -0.12402702622E+03  0.53211058088E+03  0.87610199405E+02 0.  0.
         11    1    3    3    0    0 -0.36501431575E+03  0.15519907530E+03 -0.61477321090E+02  0.40137471854E+03  0.00000000000E+00 0. -1.
        -11    1    3    3    0    0 -0.95836400213E+02  0.63204307491E+02 -0.62549705126E+02  0.13073586234E+03  0.00000000000E+00 0.  1.
         22    1    1    2    0    0  0.46085071596E+03 -0.21840338279E+03  0.59460626816E+03  0.78335179463E+03  0.00000000000E+00 0. -1.
<mgrwt>
<rscale>  0 0.12284122E+04</rscale>
<asrwt>0</asrwt>
<pdfrwt beam="1">  1        2 0.13738782E+00 0.12284122E+04</pdfrwt>
<pdfrwt beam="2">  1       -2 0.64991010E-01 0.12284122E+04</pdfrwt>
<totfact> 0.63777644E+01</totfact>
</mgrwt>
</event>
<event>
 6    1  0.2236204E-005  0.1040969E+04  0.7818608E-02  0.9264718E-01
         -2   -1    0    0    0  501 -0.00000000000E+00  0.00000000000E+00  0.94841721597E+02  0.94841721597E+02  0.00000000000E+00 0.  1.
          2   -1    0    0  501    0  0.00000000000E+00 -0.00000000000E+00 -0.28563800533E+04  0.28563800533E+04  0.00000000000E+00 0. -1.
         23    2    1    2    0    0  0.43609126781E+03 -0.11853030015E+03 -0.68286794586E+03  0.82399456585E+03  0.91833475141E+02 0.  0.
         13    1    3    3    0    0  0.13110652501E+03 -0.51103273488E+02 -0.28787770728E+03  0.32042790112E+03  0.00000000000E+00 0. -1.
        -13    1    3    3    0    0  0.30498474280E+03 -0.67427026663E+02 -0.39499023858E+03  0.50356666474E+03  0.00000000000E+00 0.  1.
         22    1    1    2    0    0 -0.43609126781E+03  0.11853030015E+03 -0.20786703859E+04  0.21272272091E+04  0.00000000000E+00 0. -1.
<mgrwt>
<rscale>  0 0.10409688E+04</rscale>
<asrwt>0</asrwt>
<pdfrwt beam="1">  1        2 0.43944304E+00 0.10409688E+04</pdfrwt>
<pdfrwt beam="2">  1       -2 0.14591036E-01 0.10409688E+04</pdfrwt>
<totfact> 0.79776547E+01</totfact>
</mgrwt>
</event>
<event>
 6    1  0.2236204E-005  0.2645421E+04  0.7818608E-02  0.8352935E-01
         -2   -1    0    0    0  501 -0.00000000000E+00  0.00000000000E+00  0.22448747637E+04  0.22448747637E+04  0.00000000000E+00 0.  1.
          2   -1    0    0  501    0  0.00000000000E+00 -0.00000000000E+00 -0.77935865179E+03  0.77935865179E+03  0.00000000000E+00 0. -1.
         23    2    1    2    0    0 -0.14809579395E+03 -0.28164076937E+03  0.21999763743E+04  0.22238049277E+04  0.64485828118E+02 0.  0.
         11    1    3    3    0    0 -0.13400499535E+03 -0.24268799056E+03  0.17375379942E+04  0.17595150129E+04  0.00000000000E+00 0. -1.
        -11    1    3    3    0    0 -0.14090798598E+02 -0.38952778817E+02  0.46243838013E+03  0.46428991481E+03  0.00000000000E+00 0.  1.
         22    1    1    2    0    0  0.14809579395E+03  0.28164076937E+03 -0.73446026233E+03  0.80042848781E+03  0.00000000000E+00 0. -1.
<mgrwt>
<rscale>  0 0.26454206E+04</rscale>
<asrwt>0</asrwt>
<pdfrwt beam="1">  1        2 0.11990133E+00 0.26454206E+04</pdfrwt>
<pdfrwt beam="2">  1       -2 0.34536535E+00 0.26454206E+04</pdfrwt>
<totfact> 0.52302141E-01</totfact>
</mgrwt>
</event>
<event>
 6    1  0.2608508E-005  0.3653410E+04  0.7818608E-02  0.8078366E-01
          2   -1    0    0  501    0  0.00000000000E+00  0.00000000000E+00  0.23014197926E+04  0.23014197926E+04  0.00000000000E+00 0.  1.
         -2   -1    0    0    0  501 -0.00000000000E+00 -0.00000000000E+00 -0.14499098918E+04  0.14499098918E+04  0.00000000000E+00 0. -1.
         23    2    1    2    0    0 -0.36196605865E+03 -0.13026043946E+04  0.16854029148E+04  0.21628791201E+04  0.98313104092E+02 0.  0.
         13    1    3    3    0    0 -0.12315481227E+03 -0.38882469121E+03  0.57806667787E+03  0.70746931548E+03  0.00000000000E+00 0.  1.
        -13    1    3    3    0    0 -0.23881124639E+03 -0.91377970341E+03  0.11073362369E+04  0.14554098046E+04  0.00000000000E+00 0. -1.
         22    1    1    2    0    0  0.36196605865E+03  0.13026043946E+04 -0.83389301403E+03  0.15884505643E+04  0.00000000000E+00 0. -1.
<mgrwt>
<rscale>  0 0.36534101E+04</rscale>
<asrwt>0</asrwt>
<pdfrwt beam="1">  1        2 0.35406458E+00 0.36534101E+04</pdfrwt>
<pdfrwt beam="2">  1       -2 0.22306306E+00 0.36534101E+04</pdfrwt>
<totfact> 0.34710978E-01</totfact>
</mgrwt>
</event>
<event>
 6    1  0.2236204E-005  0.2930884E+04  0.7818608E-02  0.8263748E-01
          1   -1    0    0  501    0  0.00000000000E+00  0.00000000000E+00  0.12107074555E+04  0.12107074555E+04  0.00000000000E+00 0. -1.
         -1   -1    0    0    0  501 -0.00000000000E+00 -0.00000000000E+00 -0.17737725786E+04  0.17737725786E+04  0.00000000000E+00 0.  1.
         23    2    1    2    0    0  0.30654907120E+03 -0.12255108266E+04  0.47160080056E+03  0.13515738234E+04  0.92170308783E+02 0.  0.
         11    1    3    3    0    0  0.18563253710E+03 -0.81430827962E+03  0.35397866822E+03  0.90711537890E+03  0.00000000000E+00 0. -1.
        -11    1    3    3    0    0  0.12091653409E+03 -0.41120254699E+03  0.11762213235E+03  0.44445844450E+03  0.00000000000E+00 0.  1.
         22    1    1    2    0    0 -0.30654907120E+03  0.12255108266E+04 -0.10346659237E+04  0.16329062107E+04  0.00000000000E+00 0.  1.
<mgrwt>
<rscale>  0 0.29308836E+04</rscale>
<asrwt>0</asrwt>
<pdfrwt beam="1">  1        1 0.18626269E+00 0.29308836E+04</pdfrwt>
<pdfrwt beam="2">  1       -1 0.27288809E+00 0.29308836E+04</pdfrwt>
<totfact> 0.44459557E-01</totfact>
</mgrwt>
</event>
<event>
 6    1  0.2236204E-005  0.3516763E+04  0.7818608E-02  0.8109829E-01
         -2   -1    0    0    0  501 -0.00000000000E+00  0.00000000000E+00  0.17940679772E+04  0.17940679772E+04  0.00000000000E+00 0.  1.
          2   -1    0    0  501    0  0.00000000000E+00 -0.00000000000E+00 -0.17234046416E+04  0.17234046416E+04  0.00000000000E+00 0. -1.
         23    2    1    2    0    0  0.58234962110E+03 -0.14322521012E+04 -0.79986750325E+03  0.17431273581E+04  0.90707226909E+02 0.  0.
         13    1    3    3    0    0  0.15975457687E+03 -0.39524245056E+03 -0.17552976351E+03  0.46103016976E+03  0.00000000000E+00 0.  1.
        -13    1    3    3    0    0  0.42259504423E+03 -0.10370096507E+04 -0.62433773973E+03  0.12820971883E+04  0.00000000000E+00 0. -1.
         22    1    1    2    0    0 -0.58234962110E+03  0.14322521012E+04  0.87053083886E+03  0.17743452607E+04  0.00000000000E+00 0.  1.
<mgrwt>
<rscale>  0 0.35167628E+04</rscale>
<asrwt>0</asrwt>
<pdfrwt beam="1">  1        2 0.26513917E+00 0.35167628E+04</pdfrwt>
<pdfrwt beam="2">  1       -2 0.27601046E+00 0.35167628E+04</pdfrwt>
<totfact> 0.34784487E-01</totfact>
</mgrwt>
</event>
<event>
 6    1  0.2236204E-005  0.2846613E+04  0.7818608E-02  0.8288941E-01
         -2   -1    0    0    0  501 -0.00000000000E+00  0.00000000000E+00  0.87349487382E+03  0.87349487382E+03  0.00000000000E+00 0.  1.
          2   -1    0    0  501    0  0.00000000000E+00 -0.00000000000E+00 -0.23191912588E+04  0.23191912588E+04  0.00000000000E+00 0. -1.
         23    2    1    2    0    0  0.48783005251E+03 -0.10980829992E+04 -0.15761661299E+04  0.19840560040E+04  0.91728538453E+02 0.  0.
         13    1    3    3    0    0  0.25917331333E+03 -0.64716295304E+03 -0.97426591274E+03  0.11979919711E+04  0.00000000000E+00 0.  1.
        -13    1    3    3    0    0  0.22865673918E+03 -0.45092004619E+03 -0.60190021714E+03  0.78606403290E+03  0.00000000000E+00 0. -1.
         22    1    1    2    0    0 -0.48783005251E+03  0.10980829992E+04  0.13046974493E+03  0.12086301286E+04  0.00000000000E+00 0.  1.
<mgrwt>
<rscale>  0 0.28466132E+04</rscale>
<asrwt>0</asrwt>
<pdfrwt beam="1">  1        2 0.35679865E+00 0.28466132E+04</pdfrwt>
<pdfrwt beam="2">  1       -2 0.13438383E+00 0.28466132E+04</pdfrwt>
<totfact> 0.15295748E+00</totfact>
</mgrwt>
</event>
<event>
 6    1  0.2236204E-005  0.4411290E+04  0.7818608E-02  0.7926354E-01
          1   -1    0    0  501    0  0.00000000000E+00  0.00000000000E+00  0.37449016611E+04  0.37449016611E+04  0.00000000000E+00 0.  1.
         -1   -1    0    0    0  501 -0.00000000000E+00 -0.00000000000E+00 -0.12990650232E+04  0.12990650232E+04  0.00000000000E+00 0. -1.
         23    2    1    2    0    0  0.50608100005E+03  0.46602413856E+03 -0.11717118808E+04  0.13615824347E+04  0.87758296066E+02 0.  0.
         11    1    3    3    0    0  0.49774320647E+02  0.52261854850E+02 -0.18270493051E+03  0.19644306071E+03  0.00000000000E+00 0.  1.
        -11    1    3    3    0    0  0.45630667940E+03  0.41376228371E+03 -0.98900695027E+03  0.11651393740E+04  0.00000000000E+00 0. -1.
         22    1    1    2    0    0 -0.50608100005E+03 -0.46602413856E+03  0.36175485187E+04  0.36823842496E+04  0.00000000000E+00 0.  1.
<mgrwt>
<rscale>  0 0.44112904E+04</rscale>
<asrwt>0</asrwt>
<pdfrwt beam="1">  1        1 0.57613871E+00 0.44112904E+04</pdfrwt>
<pdfrwt beam="2">  1       -1 0.19985616E+00 0.44112904E+04</pdfrwt>
<totfact> 0.18047215E-02</totfact>
</mgrwt>
</event>
<event>
 6    1  0.2236204E-005  0.1163129E+04  0.7818608E-02  0.9145757E-01
         -2   -1    0    0    0  501 -0.00000000000E+00  0.00000000000E+00  0.18941278745E+03  0.18941278745E+03  0.00000000000E+00 0.  1.
          2   -1    0    0  501    0  0.00000000000E+00 -0.00000000000E+00 -0.17856084823E+04  0.17856084823E+04  0.00000000000E+00 0. -1.
         23    2    1    2    0    0  0.29009635481E+03 -0.32902367281E+00  0.45466601733E+02  0.30792466207E+03  0.92705891451E+02 0.  0.
         11    1    3    3    0    0  0.21794638365E+03 -0.10741702081E+02 -0.66518628652E+01  0.21831229372E+03  0.00000000000E+00 0.  1.
        -11    1    3    3    0    0  0.72149971161E+02  0.10412678408E+02  0.52118464598E+02  0.89612368355E+02  0.00000000000E+00 0. -1.
         22    1    1    2    0    0 -0.29009635481E+03  0.32902367281E+00 -0.16416622965E+04  0.16670966076E+04  0.00000000000E+00 0. -1.
<mgrwt>
<rscale>  0 0.11631287E+04</rscale>
<asrwt>0</asrwt>
<pdfrwt beam="1">  1        2 0.27470900E+00 0.11631287E+04</pdfrwt>
<pdfrwt beam="2">  1       -2 0.29140428E-01 0.11631287E+04</pdfrwt>
<totfact> 0.94128177E+01</totfact>
</mgrwt>
</event>
<event>
 6    1  0.2236204E-005  0.2814424E+04  0.7818608E-02  0.8298804E-01
         -2   -1    0    0    0  501 -0.00000000000E+00  0.00000000000E+00  0.15427218082E+04  0.15427218082E+04  0.00000000000E+00 0.  1.
          2   -1    0    0  501    0  0.00000000000E+00 -0.00000000000E+00 -0.12836052467E+04  0.12836052467E+04  0.00000000000E+00 0. -1.
         23    2    1    2    0    0 -0.60626475600E+03  0.44383380838E+03 -0.10634269044E+04  0.13052528873E+04  0.90900577152E+02 0.  0.
         13    1    3    3    0    0 -0.17673469930E+03  0.17429436228E+03 -0.38909048548E+03  0.46152473883E+03  0.00000000000E+00 0. -1.
        -13    1    3    3    0    0 -0.42953005670E+03  0.26953944610E+03 -0.67433641896E+03  0.84372814848E+03  0.00000000000E+00 0.  1.
         22    1    1    2    0    0  0.60626475600E+03 -0.44383380838E+03  0.13225434659E+04  0.15210741675E+04  0.00000000000E+00 0.  1.
<mgrwt>
<rscale>  0 0.28144241E+04</rscale>
<asrwt>0</asrwt>
<pdfrwt beam="1">  1        2 0.19747773E+00 0.28144241E+04</pdfrwt>
<pdfrwt beam="2">  1       -2 0.23734182E+00 0.28144241E+04</pdfrwt>
<totfact> 0.11301971E+00</totfact>
</mgrwt>
</event>
<event>
 6    1  0.2236204E-005  0.2959758E+04  0.7818608E-02  0.8255316E-01
         -2   -1    0    0    0  501 -0.00000000000E+00  0.00000000000E+00  0.13437444073E+04  0.13437444073E+04  0.00000000000E+00 0.  1.
          2   -1    0    0  501    0  0.00000000000E+00 -0.00000000000E+00 -0.16298057126E+04  0.16298057126E+04  0.00000000000E+00 0. -1.
         23    2    1    2    0    0  0.76683680363E+03  0.11174469714E+04 -0.73684380087E+03  0.15452884927E+04  0.90836784146E+02 0.  0.
         11    1    3    3    0    0  0.68185735473E+03  0.95844194862E+03 -0.66502665598E+03  0.13512219930E+04  0.00000000000E+00 0. -1.
        -11    1    3    3    0    0  0.84979448901E+02  0.15900502282E+03 -0.71817144889E+02  0.19406649973E+03  0.00000000000E+00 0.  1.
         22    1    1    2    0    0 -0.76683680363E+03 -0.11174469714E+04  0.45078249559E+03  0.14282616272E+04  0.00000000000E+00 0.  1.
<mgrwt>
<rscale>  0 0.29597583E+04</rscale>
<asrwt>0</asrwt>
<pdfrwt beam="1">  1        2 0.25073934E+00 0.29597583E+04</pdfrwt>
<pdfrwt beam="2">  1       -2 0.20672991E+00 0.29597583E+04</pdfrwt>
<totfact> 0.11081264E+00</totfact>
</mgrwt>
</event>
<event>
 6    1  0.2236204E-005  0.2375880E+04  0.7818608E-02  0.8448589E-01
         -2   -1    0    0    0  501 -0.00000000000E+00  0.00000000000E+00  0.84097076176E+03  0.84097076176E+03  0.00000000000E+00 0.  1.
          2   -1    0    0  501    0  0.00000000000E+00 -0.00000000000E+00 -0.16780630196E+04  0.16780630196E+04  0.00000000000E+00 0. -1.
         23    2    1    2    0    0 -0.87489664393E+02 -0.11232672781E+04 -0.81278961982E+03  0.13921023559E+04  0.89096486696E+02 0.  0.
         13    1    3    3    0    0 -0.47159062230E+02 -0.30736980290E+03 -0.26476345545E+03  0.40841138601E+03  0.00000000000E+00 0. -1.
        -13    1    3    3    0    0 -0.40330602163E+02 -0.81589747516E+03 -0.54802616437E+03  0.98369096991E+03  0.00000000000E+00 0.  1.
         22    1    1    2    0    0  0.87489664393E+02  0.11232672781E+04 -0.24302637993E+02  0.11269314254E+04  0.00000000000E+00 0.  1.
<mgrwt>
<rscale>  0 0.23758804E+04</rscale>
<asrwt>0</asrwt>
<pdfrwt beam="1">  1        2 0.25816354E+00 0.23758804E+04</pdfrwt>
<pdfrwt beam="2">  1       -2 0.12938012E+00 0.23758804E+04</pdfrwt>
<totfact> 0.39956784E+00</totfact>
</mgrwt>
</event>
<event>
 6    1  0.2236204E-005  0.2090586E+04  0.7818608E-02  0.8565402E-01
          2   -1    0    0  501    0  0.00000000000E+00  0.00000000000E+00  0.91455114993E+03  0.91455114993E+03  0.00000000000E+00 0. -1.
         -2   -1    0    0    0  501 -0.00000000000E+00 -0.00000000000E+00 -0.11947248841E+04  0.11947248841E+04  0.00000000000E+00 0.  1.
         23    2    1    2    0    0  0.49847590006E+03  0.37155813927E+03  0.70494315310E+03  0.94437734514E+03  0.91487961618E+02 0.  0.
         13    1    3    3    0    0  0.35392368270E+03  0.23990339430E+03  0.42452542925E+03  0.60252589309E+03  0.00000000000E+00 0. -1.
        -13    1    3    3    0    0  0.14455221736E+03  0.13165474497E+03  0.28041772385E+03  0.34185145205E+03  0.00000000000E+00 0.  1.
         22    1    1    2    0    0 -0.49847590006E+03 -0.37155813927E+03 -0.98511688724E+03  0.11648986889E+04  0.00000000000E+00 0.  1.
<mgrwt>
<rscale>  0 0.20905856E+04</rscale>
<asrwt>0</asrwt>
<pdfrwt beam="1">  1        2 0.14070018E+00 0.20905856E+04</pdfrwt>
<pdfrwt beam="2">  1       -2 0.18380383E+00 0.20905856E+04</pdfrwt>
<totfact> 0.45121527E+00</totfact>
</mgrwt>
</event>
<event>
 6    1  0.2236204E-005  0.5240952E+04  0.7818608E-02  0.7792376E-01
          2   -1    0    0  501    0  0.00000000000E+00  0.00000000000E+00  0.28598201522E+04  0.28598201522E+04  0.00000000000E+00 0.  1.
         -2   -1    0    0    0  501 -0.00000000000E+00 -0.00000000000E+00 -0.24011630073E+04  0.24011630073E+04  0.00000000000E+00 0. -1.
         23    2    1    2    0    0 -0.72870370252E+03  0.16875996920E+04 -0.16442449697E+04  0.24679204838E+04  0.89934349729E+02 0.  0.
         11    1    3    3    0    0 -0.45496151391E+03  0.10163326685E+04 -0.10510229318E+04  0.15311992931E+04  0.00000000000E+00 0. -1.
        -11    1    3    3    0    0 -0.27374218861E+03  0.67126702353E+03 -0.59322203791E+03  0.93672119063E+03  0.00000000000E+00 0.  1.
         22    1    1    2    0    0  0.72870370252E+03 -0.16875996920E+04  0.21029021146E+04  0.27930626757E+04  0.00000000000E+00 0.  1.
<mgrwt>
<rscale>  0 0.52409520E+04</rscale>
<asrwt>0</asrwt>
<pdfrwt beam="1">  1        2 0.43997233E+00 0.52409520E+04</pdfrwt>
<pdfrwt beam="2">  1       -2 0.36940970E+00 0.52409520E+04</pdfrwt>
<totfact> 0.17788834E-02</totfact>
</mgrwt>
</event>
<event>
 6    1  0.2236204E-005  0.1279998E+04  0.7818608E-02  0.9045579E-01
          2   -1    0    0  501    0  0.00000000000E+00  0.00000000000E+00  0.10728191205E+04  0.10728191205E+04  0.00000000000E+00 0. -1.
         -2   -1    0    0    0  501 -0.00000000000E+00 -0.00000000000E+00 -0.38179640817E+03  0.38179640817E+03  0.00000000000E+00 0.  1.
         23    2    1    2    0    0  0.39599302515E+03  0.24196006045E+03  0.84281450847E+03  0.96635750657E+03  0.90307186834E+02 0.  0.
         13    1    3    3    0    0  0.46459668957E+02  0.63476084155E+02  0.11258657691E+03  0.13734428055E+03  0.00000000000E+00 0. -1.
        -13    1    3    3    0    0  0.34953335619E+03  0.17848397630E+03  0.73022793156E+03  0.82901322602E+03  0.00000000000E+00 0.  1.
         22    1    1    2    0    0 -0.39599302515E+03 -0.24196006045E+03 -0.15179179611E+03  0.48825802214E+03  0.00000000000E+00 0.  1.
<mgrwt>
<rscale>  0 0.12799976E+04</rscale>
<asrwt>0</asrwt>
<pdfrwt beam="1">  1        2 0.16504909E+00 0.12799976E+04</pdfrwt>
<pdfrwt beam="2">  1       -2 0.58737909E-01 0.12799976E+04</pdfrwt>
<totfact> 0.60224233E+01</totfact>
</mgrwt>
</event>
<event>
 6    1  0.2236204E-005  0.1886950E+04  0.7818608E-02  0.8661379E-01
          1   -1    0    0  501    0  0.00000000000E+00  0.00000000000E+00  0.10692510933E+04  0.10692510933E+04  0.00000000000E+00 0. -1.
         -1   -1    0    0    0  501 -0.00000000000E+00 -0.00000000000E+00 -0.83249428871E+03  0.83249428871E+03  0.00000000000E+00 0.  1.
         23    2    1    2    0    0 -0.31256164631E+03 -0.28821065993E+03 -0.72777864781E+03  0.84766340883E+03  0.90062907033E+02 0.  0.
         13    1    3    3    0    0 -0.61962957200E+02 -0.10750268155E+03 -0.24205074283E+03  0.27200146454E+03  0.00000000000E+00 0. -1.
        -13    1    3    3    0    0 -0.25059868911E+03 -0.18070797838E+03 -0.48572790497E+03  0.57566194429E+03  0.00000000000E+00 0.  1.
         22    1    1    2    0    0  0.31256164631E+03  0.28821065993E+03  0.96453545239E+03  0.10540819732E+04  0.00000000000E+00 0. -1.
<mgrwt>
<rscale>  0 0.18869504E+04</rscale>
<asrwt>0</asrwt>
<pdfrwt beam="1">  1        1 0.16450017E+00 0.18869504E+04</pdfrwt>
<pdfrwt beam="2">  1       -1 0.12807604E+00 0.18869504E+04</pdfrwt>
<totfact> 0.65991699E+00</totfact>
</mgrwt>
</event>
<event>
 6    1  0.2236204E-005  0.5599013E+04  0.7818608E-02  0.7742210E-01
         -2   -1    0    0    0  501 -0.00000000000E+00  0.00000000000E+00  0.37080804426E+04  0.37080804426E+04  0.00000000000E+00 0.  1.
          2   -1    0    0  501    0  0.00000000000E+00 -0.00000000000E+00 -0.21135563647E+04  0.21135563647E+04  0.00000000000E+00 0. -1.
         23    2    1    2    0    0 -0.91367427969E+02  0.97984147500E+03  0.35216863730E+04  0.36577532996E+04  0.91907388543E+02 0.  0.
         11    1    3    3    0    0 -0.41113531728E+02  0.12221561088E+03  0.49242122668E+03  0.50902420622E+03  0.00000000000E+00 0.  1.
        -11    1    3    3    0    0 -0.50253896242E+02  0.85762586412E+03  0.30292651463E+04  0.31487290934E+04  0.00000000000E+00 0. -1.
         22    1    1    2    0    0  0.91367427969E+02 -0.97984147500E+03 -0.19271622951E+04  0.21638835076E+04  0.00000000000E+00 0. -1.
<mgrwt>
<rscale>  0 0.55990131E+04</rscale>
<asrwt>0</asrwt>
<pdfrwt beam="1">  1        2 0.32516252E+00 0.55990131E+04</pdfrwt>
<pdfrwt beam="2">  1       -2 0.57047391E+00 0.55990131E+04</pdfrwt>
<totfact> 0.27641902E-03</totfact>
</mgrwt>
</event>
<event>
 6    1  0.2236204E-005  0.4300218E+04  0.7818608E-02  0.7946578E-01
          2   -1    0    0  501    0  0.00000000000E+00  0.00000000000E+00  0.33258049692E+04  0.33258049692E+04  0.00000000000E+00 0.  1.
         -2   -1    0    0    0  501 -0.00000000000E+00 -0.00000000000E+00 -0.13900297848E+04  0.13900297848E+04  0.00000000000E+00 0. -1.
         23    2    1    2    0    0  0.48445939616E+03  0.89388561900E+03 -0.11081752179E+04  0.15065721507E+04  0.89302437039E+02 0.  0.
         13    1    3    3    0    0  0.16080122595E+03  0.21496030341E+03 -0.29901134446E+03  0.40183672110E+03  0.00000000000E+00 0. -1.
        -13    1    3    3    0    0  0.32365817021E+03  0.67892531559E+03 -0.80916387340E+03  0.11047354296E+04  0.00000000000E+00 0.  1.
         22    1    1    2    0    0 -0.48445939616E+03 -0.89388561900E+03  0.30439504022E+04  0.32092626034E+04  0.00000000000E+00 0.  1.
<mgrwt>
<rscale>  0 0.43002177E+04</rscale>
<asrwt>0</asrwt>
<pdfrwt beam="1">  1        2 0.51166230E+00 0.43002177E+04</pdfrwt>
<pdfrwt beam="2">  1       -2 0.21385074E+00 0.43002177E+04</pdfrwt>
<totfact> 0.89036487E-02</totfact>
</mgrwt>
</event>
<event>
 6    1  0.2236204E-005  0.4437786E+04  0.7818608E-02  0.7921620E-01
         -2   -1    0    0    0  501 -0.00000000000E+00  0.00000000000E+00  0.13216904661E+04  0.13216904661E+04  0.00000000000E+00 0.  1.
          2   -1    0    0  501    0  0.00000000000E+00 -0.00000000000E+00 -0.37251433067E+04  0.37251433067E+04  0.00000000000E+00 0. -1.
         23    2    1    2    0    0  0.47870112308E+03  0.43721310239E+03 -0.36143608096E+04  0.36732952143E+04  0.95831140254E+02 0.  0.
         13    1    3    3    0    0  0.35526290589E+03  0.28062381381E+03 -0.23341131322E+04  0.23776134192E+04  0.00000000000E+00 0.  1.
        -13    1    3    3    0    0  0.12343821720E+03  0.15658928858E+03 -0.12802476774E+04  0.12956817951E+04  0.00000000000E+00 0. -1.
         22    1    1    2    0    0 -0.47870112308E+03 -0.43721310239E+03  0.12109079690E+04  0.13735385585E+04  0.00000000000E+00 0.  1.
<mgrwt>
<rscale>  0 0.44377861E+04</rscale>
<asrwt>0</asrwt>
<pdfrwt beam="1">  1        2 0.57309897E+00 0.44377861E+04</pdfrwt>
<pdfrwt beam="2">  1       -2 0.20333700E+00 0.44377861E+04</pdfrwt>
<totfact> 0.53704631E-02</totfact>
</mgrwt>
</event>
<event>
 6    1  0.2236204E-005  0.5472554E+04  0.7818608E-02  0.7759477E-01
         -2   -1    0    0    0  501 -0.00000000000E+00  0.00000000000E+00  0.18507965646E+04  0.18507965646E+04  0.00000000000E+00 0.  1.
          2   -1    0    0  501    0  0.00000000000E+00 -0.00000000000E+00 -0.40453994698E+04  0.40453994698E+04  0.00000000000E+00 0. -1.
         23    2    1    2    0    0 -0.68862112947E+03  0.18452190176E+04 -0.31429738779E+04  0.37102317655E+04  0.92209946302E+02 0.  0.
         11    1    3    3    0    0 -0.45605868071E+03  0.12588343130E+04 -0.20580176868E+04  0.24552169246E+04  0.00000000000E+00 0. -1.
        -11    1    3    3    0    0 -0.23256244876E+03  0.58638470466E+03 -0.10849561910E+04  0.12550148409E+04  0.00000000000E+00 0.  1.
         22    1    1    2    0    0  0.68862112947E+03 -0.18452190176E+04  0.94837097267E+03  0.21859642689E+04  0.00000000000E+00 0.  1.
<mgrwt>
<rscale>  0 0.54725539E+04</rscale>
<asrwt>0</asrwt>
<pdfrwt beam="1">  1        2 0.62236915E+00 0.54725539E+04</pdfrwt>
<pdfrwt beam="2">  1       -2 0.28473793E+00 0.54725539E+04</pdfrwt>
<totfact> 0.86331494E-03</totfact>
</mgrwt>
</event>
<event>
 6    1  0.2236204E-005  0.1116377E+04  0.7818608E-02  0.9189375E-01
         -2   -1    0    0    0  501 -0.00000000000E+00  0.00000000000E+00  0.77608222741E+03  0.77608222741E+03  0.00000000000E+00 0.  1.
          2   -1    0    0  501    0  0.00000000000E+00 -0.00000000000E+00 -0.40147088194E+03  0.40147088194E+03  0.00000000000E+00 0. -1.
         23    2    1    2    0    0  0.89811115575E+02 -0.35672766762E+03 -0.24851989509E+03  0.45394188203E+03  0.94765123739E+02 0.  0.
         13    1    3    3    0    0  0.54344355993E+02 -0.26830818224E+03 -0.13344425685E+03  0.30454877996E+03  0.00000000000E+00 0.  1.
        -13    1    3    3    0    0  0.35466759582E+02 -0.88419485380E+02 -0.11507563825E+03  0.14939310208E+03  0.00000000000E+00 0. -1.
         22    1    1    2    0    0 -0.89811115575E+02  0.35672766762E+03  0.62313124057E+03  0.72361122732E+03  0.00000000000E+00 0.  1.
<mgrwt>
<rscale>  0 0.11163770E+04</rscale>
<asrwt>0</asrwt>
<pdfrwt beam="1">  1        2 0.61764751E-01 0.11163770E+04</pdfrwt>
<pdfrwt beam="2">  1       -2 0.11939727E+00 0.11163770E+04</pdfrwt>
<totfact> 0.42219064E+01</totfact>
</mgrwt>
</event>
<event>
 6    1  0.2236204E-005  0.1450905E+04  0.7818608E-02  0.8917774E-01
          2   -1    0    0  501    0  0.00000000000E+00  0.00000000000E+00  0.58792252485E+03  0.58792252485E+03  0.00000000000E+00 0. -1.
         -2   -1    0    0    0  501 -0.00000000000E+00 -0.00000000000E+00 -0.89515375540E+03  0.89515375540E+03  0.00000000000E+00 0.  1.
         23    2    1    2    0    0  0.37132163653E+03  0.25909598665E+03 -0.72966821351E+03  0.86383198870E+03  0.93699065247E+02 0.  0.
         13    1    3    3    0    0  0.27653880781E+03  0.22087163628E+03 -0.62016034124E+03  0.71404260432E+03  0.00000000000E+00 0. -1.
        -13    1    3    3    0    0  0.94782828721E+02  0.38224350368E+02 -0.10950787227E+03  0.14978938437E+03  0.00000000000E+00 0.  1.
         22    1    1    2    0    0 -0.37132163653E+03 -0.25909598665E+03  0.42243698296E+03  0.61924429156E+03  0.00000000000E+00 0.  1.
<mgrwt>
<rscale>  0 0.14509046E+04</rscale>
<asrwt>0</asrwt>
<pdfrwt beam="1">  1        2 0.90449619E-01 0.14509046E+04</pdfrwt>
<pdfrwt beam="2">  1       -2 0.13771596E+00 0.14509046E+04</pdfrwt>
<totfact> 0.18464910E+01</totfact>
</mgrwt>
</event>
<event>
 6    1  0.2236204E-005  0.1426032E+04  0.7818608E-02  0.8935188E-01
          2   -1    0    0  501    0  0.00000000000E+00  0.00000000000E+00  0.10778767483E+04  0.10778767483E+04  0.00000000000E+00 0. -1.
         -2   -1    0    0    0  501 -0.00000000000E+00 -0.00000000000E+00 -0.47166030387E+03  0.47166030387E+03  0.00000000000E+00 0.  1.
         23    2    1    2    0    0  0.32566154437E+03 -0.34295124990E+03  0.87986213909E+03  0.10031370453E+04  0.91954045756E+02 0.  0.
         11    1    3    3    0    0  0.10127856692E+03 -0.61458656028E+02  0.16986438346E+03  0.20709520343E+03  0.00000000000E+00 0.  1.
        -11    1    3    3    0    0  0.22438297745E+03 -0.28149259387E+03  0.70999775564E+03  0.79604184185E+03  0.00000000000E+00 0. -1.
         22    1    1    2    0    0 -0.32566154437E+03  0.34295124990E+03 -0.27364569467E+03  0.54640000687E+03  0.00000000000E+00 0.  1.
<mgrwt>
<rscale>  0 0.14260318E+04</rscale>
<asrwt>0</asrwt>
<pdfrwt beam="1">  1        2 0.16582719E+00 0.14260318E+04</pdfrwt>
<pdfrwt beam="2">  1       -2 0.72563124E-01 0.14260318E+04</pdfrwt>
<totfact> 0.37531829E+01</totfact>
</mgrwt>
</event>
<event>
 6    1  0.2236204E-005  0.3229975E+04  0.7818608E-02  0.8180945E-01
          2   -1    0    0  501    0  0.00000000000E+00  0.00000000000E+00  0.22740274938E+04  0.22740274938E+04  0.00000000000E+00 0.  1.
         -2   -1    0    0    0  501 -0.00000000000E+00 -0.00000000000E+00 -0.11469449749E+04  0.11469449749E+04  0.00000000000E+00 0. -1.
         23    2    1    2    0    0 -0.14898379307E+04  0.12672625920E+03 -0.78809381820E+02  0.15000737518E+04  0.91289307095E+02 0.  0.
         11    1    3    3    0    0 -0.35156985630E+03  0.45817977572E+02  0.16760675577E+02  0.35493882736E+03  0.00000000000E+00 0. -1.
        -11    1    3    3    0    0 -0.11382680744E+04  0.80908281624E+02 -0.95570057397E+02  0.11451349244E+04  0.00000000000E+00 0.  1.
         22    1    1    2    0    0  0.14898379307E+04 -0.12672625920E+03  0.12058919007E+04  0.19208987169E+04  0.00000000000E+00 0.  1.
<mgrwt>
<rscale>  0 0.32299749E+04</rscale>
<asrwt>0</asrwt>
<pdfrwt beam="1">  1        2 0.34985038E+00 0.32299749E+04</pdfrwt>
<pdfrwt beam="2">  1       -2 0.17645307E+00 0.32299749E+04</pdfrwt>
<totfact> 0.75606593E-01</totfact>
</mgrwt>
</event>
<event>
 6    1  0.2236204E-005  0.2529865E+04  0.7818608E-02  0.8392423E-01
         -2   -1    0    0    0  501 -0.00000000000E+00  0.00000000000E+00  0.75013546126E+03  0.75013546126E+03  0.00000000000E+00 0.  1.
          2   -1    0    0  501    0  0.00000000000E+00 -0.00000000000E+00 -0.21330204474E+04  0.21330204474E+04  0.00000000000E+00 0. -1.
         23    2    1    2    0    0  0.32968525455E+03  0.68192346585E+03 -0.18445939244E+04  0.19960893248E+04  0.90187949887E+02 0.  0.
         11    1    3    3    0    0  0.26405035027E+03  0.60807651345E+03 -0.15681133882E+04  0.17024861914E+04  0.00000000000E+00 0.  1.
        -11    1    3    3    0    0  0.65634904279E+02  0.73846952395E+02 -0.27648053628E+03  0.29360313346E+03  0.00000000000E+00 0. -1.
         22    1    1    2    0    0 -0.32968525455E+03 -0.68192346585E+03  0.46170893833E+03  0.88706658379E+03  0.00000000000E+00 0.  1.
<mgrwt>
<rscale>  0 0.25298650E+04</rscale>
<asrwt>0</asrwt>
<pdfrwt beam="1">  1        2 0.32815698E+00 0.25298650E+04</pdfrwt>
<pdfrwt beam="2">  1       -2 0.11540546E+00 0.25298650E+04</pdfrwt>
<totfact> 0.29285438E+00</totfact>
</mgrwt>
</event>
<event>
 6    1  0.2236204E-005  0.3667171E+04  0.7818608E-02  0.8075276E-01
         -2   -1    0    0    0  501 -0.00000000000E+00  0.00000000000E+00  0.11029430730E+04  0.11029430730E+04  0.00000000000E+00 0.  1.
          2   -1    0    0  501    0  0.00000000000E+00 -0.00000000000E+00 -0.30482400243E+04  0.30482400243E+04  0.00000000000E+00 0. -1.
         23    2    1    2    0    0  0.14401194313E+04  0.71899974661E+03 -0.19645797399E+04  0.25414388823E+04  0.91833686633E+02 0.  0.
         13    1    3    3    0    0  0.12008504268E+04  0.62396479975E+03 -0.16896771867E+04  0.21648054911E+04  0.00000000000E+00 0.  1.
        -13    1    3    3    0    0  0.23926900449E+03  0.95034946862E+02 -0.27490255317E+03  0.37663339121E+03  0.00000000000E+00 0. -1.
         22    1    1    2    0    0 -0.14401194313E+04 -0.71899974661E+03  0.19282788541E+02  0.16097442151E+04  0.00000000000E+00 0.  1.
<mgrwt>
<rscale>  0 0.36671707E+04</rscale>
<asrwt>0</asrwt>
<pdfrwt beam="1">  1        2 0.46896000E+00 0.36671707E+04</pdfrwt>
<pdfrwt beam="2">  1       -2 0.16968355E+00 0.36671707E+04</pdfrwt>
<totfact> 0.28170901E-01</totfact>
</mgrwt>
</event>
<event>
 6    1  0.2236204E-005  0.2867964E+04  0.7818608E-02  0.8282473E-01
         -2   -1    0    0    0  501 -0.00000000000E+00  0.00000000000E+00  0.10612041697E+04  0.10612041697E+04  0.00000000000E+00 0.  1.
          2   -1    0    0  501    0  0.00000000000E+00 -0.00000000000E+00 -0.19377091158E+04  0.19377091158E+04  0.00000000000E+00 0. -1.
         23    2    1    2    0    0  0.26680611907E+03  0.14066438762E+04 -0.38688023820E+03  0.14857824734E+04  0.89670172675E+02 0.  0.
         11    1    3    3    0    0  0.86443647000E+02  0.65966073456E+03 -0.20395469299E+03  0.69586083783E+03  0.00000000000E+00 0.  1.
        -11    1    3    3    0    0  0.18036247207E+03  0.74698314167E+03 -0.18292554521E+03  0.78992163559E+03  0.00000000000E+00 0. -1.
         22    1    1    2    0    0 -0.26680611907E+03 -0.14066438762E+04 -0.48962470790E+03  0.15131308120E+04  0.00000000000E+00 0. -1.
<mgrwt>
<rscale>  0 0.28679644E+04</rscale>
<asrwt>0</asrwt>
<pdfrwt beam="1">  1        2 0.29810909E+00 0.28679644E+04</pdfrwt>
<pdfrwt beam="2">  1       -2 0.16326218E+00 0.28679644E+04</pdfrwt>
<totfact> 0.14926427E+00</totfact>
</mgrwt>
</event>
<event>
 6    1  0.2236204E-005  0.1032145E+04  0.7818608E-02  0.9273974E-01
          2   -1    0    0  501    0  0.00000000000E+00  0.00000000000E+00  0.10534866848E+04  0.10534866848E+04  0.00000000000E+00 0. -1.
         -2   -1    0    0    0  501 -0.00000000000E+00 -0.00000000000E+00 -0.25280911594E+03  0.25280911594E+03  0.00000000000E+00 0.  1.
         23    2    1    2    0    0  0.10126293225E+03 -0.30772524017E+03  0.90551386886E+03  0.96579667494E+03  0.88650131177E+02 0.  0.
         13    1    3    3    0    0  0.93151798887E+02 -0.14941502663E+03  0.43432472429E+03  0.46865773647E+03  0.00000000000E+00 0.  1.
        -13    1    3    3    0    0  0.81111333587E+01 -0.15831021354E+03  0.47118914456E+03  0.49713893848E+03  0.00000000000E+00 0. -1.
         22    1    1    2    0    0 -0.10126293225E+03  0.30772524017E+03 -0.10483629998E+03  0.34049912581E+03  0.00000000000E+00 0.  1.
<mgrwt>
<rscale>  0 0.10321454E+04</rscale>
<asrwt>0</asrwt>
<pdfrwt beam="1">  1        2 0.16207487E+00 0.10321454E+04</pdfrwt>
<pdfrwt beam="2">  1       -2 0.38893711E-01 0.10321454E+04</pdfrwt>
<totfact> 0.14489344E+02</totfact>
</mgrwt>
</event>
<event>
 6    1  0.2236204E-005  0.5823791E+04  0.7818608E-02  0.7712642E-01
         -2   -1    0    0    0  501 -0.00000000000E+00  0.00000000000E+00  0.32673889730E+04  0.32673889730E+04  0.00000000000E+00 0.  1.
          2   -1    0    0  501    0  0.00000000000E+00 -0.00000000000E+00 -0.25950794617E+04  0.25950794617E+04  0.00000000000E+00 0. -1.
         23    2    1    2    0    0  0.10632074007E+04  0.54367247220E+03 -0.23363974984E+04  0.26254470254E+04  0.90714268452E+02 0.  0.
         13    1    3    3    0    0  0.44347768437E+03  0.18348861384E+03 -0.98590845447E+03  0.10965199536E+04  0.00000000000E+00 0. -1.
        -13    1    3    3    0    0  0.61972971634E+03  0.36018385836E+03 -0.13504890439E+04  0.15289270718E+04  0.00000000000E+00 0.  1.
         22    1    1    2    0    0 -0.10632074007E+04 -0.54367247220E+03  0.30087070098E+04  0.32370214094E+04  0.00000000000E+00 0.  1.
<mgrwt>
<rscale>  0 0.58237905E+04</rscale>
<asrwt>0</asrwt>
<pdfrwt beam="1">  1        2 0.39924300E+00 0.58237905E+04</pdfrwt>
<pdfrwt beam="2">  1       -2 0.50267522E+00 0.58237905E+04</pdfrwt>
<totfact> 0.33564756E-03</totfact>
</mgrwt>
</event>
<event>
 6    1  0.2236204E-005  0.1840557E+04  0.7818608E-02  0.8685024E-01
         -2   -1    0    0    0  501 -0.00000000000E+00  0.00000000000E+00  0.40229239349E+03  0.40229239349E+03  0.00000000000E+00 0.  1.
          2   -1    0    0  501    0  0.00000000000E+00 -0.00000000000E+00 -0.21052155527E+04  0.21052155527E+04  0.00000000000E+00 0. -1.
         23    2    1    2    0    0  0.19846543502E+03  0.87009195130E+02 -0.20688662540E+04  0.20822157200E+04  0.91954329729E+02 0.  0.
         13    1    3    3    0    0  0.12857270555E+02  0.34378545175E+02 -0.53620936819E+03  0.53746412002E+03  0.00000000000E+00 0.  1.
        -13    1    3    3    0    0  0.18560816447E+03  0.52630649954E+02 -0.15326568858E+04  0.15447516000E+04  0.00000000000E+00 0. -1.
         22    1    1    2    0    0 -0.19846543502E+03 -0.87009195130E+02  0.36594309485E+03  0.42529222613E+03  0.00000000000E+00 0.  1.
<mgrwt>
<rscale>  0 0.18405567E+04</rscale>
<asrwt>0</asrwt>
<pdfrwt beam="1">  1        2 0.32387932E+00 0.18405567E+04</pdfrwt>
<pdfrwt beam="2">  1       -2 0.61891137E-01 0.18405567E+04</pdfrwt>
<totfact> 0.13318199E+01</totfact>
</mgrwt>
</event>
<event>
 6    1  0.2236204E-005  0.2166705E+04  0.7818608E-02  0.8532415E-01
         -1   -1    0    0    0  501 -0.00000000000E+00  0.00000000000E+00  0.30337712455E+03  0.30337712455E+03  0.00000000000E+00 0.  1.
          1   -1    0    0  501    0  0.00000000000E+00 -0.00000000000E+00 -0.38686269001E+04  0.38686269001E+04  0.00000000000E+00 0. -1.
         23    2    1    2    0    0  0.67999420476E+03 -0.79609883673E+03 -0.23096727255E+04  0.25371831767E+04  0.80900535960E+02 0.  0.
         13    1    3    3    0    0  0.29732791584E+03 -0.29156260334E+03 -0.95217531887E+03  0.10392547710E+04  0.00000000000E+00 0. -1.
        -13    1    3    3    0    0  0.38266628892E+03 -0.50453623339E+03 -0.13574974067E+04  0.14979284057E+04  0.00000000000E+00 0.  1.
         22    1    1    2    0    0 -0.67999420476E+03  0.79609883673E+03 -0.12555770500E+04  0.16348208479E+04  0.00000000000E+00 0.  1.
<mgrwt>
<rscale>  0 0.21667052E+04</rscale>
<asrwt>0</asrwt>
<pdfrwt beam="1">  1        1 0.59517332E+00 0.21667052E+04</pdfrwt>
<pdfrwt beam="2">  1       -1 0.46673407E-01 0.21667052E+04</pdfrwt>
<totfact> 0.52408610E-01</totfact>
</mgrwt>
</event>
<event>
 6    1  0.2236204E-005  0.3068640E+04  0.7818608E-02  0.8224397E-01
         -2   -1    0    0    0  501 -0.00000000000E+00  0.00000000000E+00  0.13563122637E+04  0.13563122637E+04  0.00000000000E+00 0.  1.
          2   -1    0    0  501    0  0.00000000000E+00 -0.00000000000E+00 -0.17356905938E+04  0.17356905938E+04  0.00000000000E+00 0. -1.
         23    2    1    2    0    0 -0.54480221640E+03  0.42561892209E+03 -0.15684756942E+04  0.17165344053E+04  0.91724802226E+02 0.  0.
         13    1    3    3    0    0 -0.27227161546E+03  0.16311126747E+03 -0.65757756229E+03  0.73016804133E+03  0.00000000000E+00 0. -1.
        -13    1    3    3    0    0 -0.27253060094E+03  0.26250765461E+03 -0.91089813194E+03  0.98636636396E+03  0.00000000000E+00 0.  1.
         22    1    1    2    0    0  0.54480221640E+03 -0.42561892209E+03  0.11890973641E+04  0.13754684522E+04  0.00000000000E+00 0.  1.
<mgrwt>
<rscale>  0 0.30686404E+04</rscale>
<asrwt>0</asrwt>
<pdfrwt beam="1">  1        2 0.26702932E+00 0.30686404E+04</pdfrwt>
<pdfrwt beam="2">  1       -2 0.20866342E+00 0.30686404E+04</pdfrwt>
<totfact> 0.93155568E-01</totfact>
</mgrwt>
</event>
<event>
 6    1  0.2236204E-005  0.1537820E+04  0.7818608E-02  0.8859686E-01
          1   -1    0    0  501    0  0.00000000000E+00  0.00000000000E+00  0.94209041399E+03  0.94209041399E+03  0.00000000000E+00 0. -1.
         -1   -1    0    0    0  501 -0.00000000000E+00 -0.00000000000E+00 -0.62756442988E+03  0.62756442988E+03  0.00000000000E+00 0.  1.
         23    2    1    2    0    0  0.34948420699E+03  0.42738998649E+03  0.69988219136E+03  0.89637866134E+03  0.94118070684E+02 0.  0.
         13    1    3    3    0    0  0.14463161666E+03  0.19734787088E+03  0.23896926994E+03  0.34200993941E+03  0.00000000000E+00 0.  1.
        -13    1    3    3    0    0  0.20485259034E+03  0.23004211561E+03  0.46091292143E+03  0.55436872193E+03  0.00000000000E+00 0. -1.
         22    1    1    2    0    0 -0.34948420699E+03 -0.42738998649E+03 -0.38535620726E+03  0.67327618253E+03  0.00000000000E+00 0.  1.
<mgrwt>
<rscale>  0 0.15378198E+04</rscale>
<asrwt>0</asrwt>
<pdfrwt beam="1">  1        1 0.14493699E+00 0.15378198E+04</pdfrwt>
<pdfrwt beam="2">  1       -1 0.96548374E-01 0.15378198E+04</pdfrwt>
<totfact> 0.16750516E+01</totfact>
</mgrwt>
</event>
<event>
 6    1  0.2236204E-005  0.2193096E+04  0.7818608E-02  0.8521307E-01
         -2   -1    0    0    0  501 -0.00000000000E+00  0.00000000000E+00  0.10115758543E+04  0.10115758543E+04  0.00000000000E+00 0.  1.
          2   -1    0    0  501    0  0.00000000000E+00 -0.00000000000E+00 -0.11886574661E+04  0.11886574661E+04  0.00000000000E+00 0. -1.
         23    2    1    2    0    0  0.73207125694E+03 -0.74072810095E+02  0.72432729932E+03  0.10366384031E+04  0.92488030391E+02 0.  0.
         11    1    3    3    0    0  0.16856274828E+03 -0.13713447233E+02  0.22385837273E+03  0.28056020706E+03  0.00000000000E+00 0.  1.
        -11    1    3    3    0    0  0.56350850866E+03 -0.60359362862E+02  0.50046892659E+03  0.75607819602E+03  0.00000000000E+00 0. -1.
         22    1    1    2    0    0 -0.73207125694E+03  0.74072810095E+02 -0.90140891118E+03  0.11635949173E+04  0.00000000000E+00 0. -1.
<mgrwt>
<rscale>  0 0.21930957E+04</rscale>
<asrwt>0</asrwt>
<pdfrwt beam="1">  1        2 0.18287038E+00 0.21930957E+04</pdfrwt>
<pdfrwt beam="2">  1       -2 0.15562705E+00 0.21930957E+04</pdfrwt>
<totfact> 0.47785101E+00</totfact>
</mgrwt>
</event>
<event>
 6    1  0.2236204E-005  0.2378506E+04  0.7818608E-02  0.8447595E-01
          2   -1    0    0  501    0  0.00000000000E+00  0.00000000000E+00  0.21648562816E+04  0.21648562816E+04  0.00000000000E+00 0. -1.
         -2   -1    0    0    0  501 -0.00000000000E+00 -0.00000000000E+00 -0.65330997996E+03  0.65330997996E+03  0.00000000000E+00 0.  1.
         23    2    1    2    0    0 -0.10710030997E+04 -0.45474217528E+03  0.10381064647E+04  0.15619881831E+04  0.91126101896E+02 0.  0.
         11    1    3    3    0    0 -0.88060425252E+03 -0.40941694513E+03  0.85143960295E+03  0.12915244798E+04  0.00000000000E+00 0. -1.
        -11    1    3    3    0    0 -0.19039884719E+03 -0.45325230150E+02  0.18666686179E+03  0.27046370328E+03  0.00000000000E+00 0.  1.
         22    1    1    2    0    0  0.10710030997E+04  0.45474217528E+03  0.47343983685E+03  0.12561780784E+04  0.00000000000E+00 0.  1.
<mgrwt>
<rscale>  0 0.23785056E+04</rscale>
<asrwt>0</asrwt>
<pdfrwt beam="1">  1        2 0.33305481E+00 0.23785056E+04</pdfrwt>
<pdfrwt beam="2">  1       -2 0.10050923E+00 0.23785056E+04</pdfrwt>
<totfact> 0.39724414E+00</totfact>
</mgrwt>
</event>
<event>
 6    1  0.2236204E-005  0.2896184E+04  0.7818608E-02  0.8274014E-01
         -2   -1    0    0    0  501 -0.00000000000E+00  0.00000000000E+00  0.10392383665E+04  0.10392383665E+04  0.00000000000E+00 0.  1.
          2   -1    0    0  501    0  0.00000000000E+00 -0.00000000000E+00 -0.20177950709E+04  0.20177950709E+04  0.00000000000E+00 0. -1.
         23    2    1    2    0    0 -0.13267750488E+04 -0.57103571336E+03 -0.57820195317E+03  0.15581345940E+04  0.83976773819E+02 0.  0.
         13    1    3    3    0    0 -0.56968518474E+02 -0.32011146621E+02 -0.44281050843E+02  0.78936284869E+02  0.00000000000E+00 0. -1.
        -13    1    3    3    0    0 -0.12698065303E+04 -0.53902456674E+03 -0.53392090233E+03  0.14791983092E+04  0.00000000000E+00 0.  1.
         22    1    1    2    0    0  0.13267750488E+04  0.57103571336E+03 -0.40035475122E+03  0.14988988434E+04  0.00000000000E+00 0. -1.
<mgrwt>
<rscale>  0 0.28961837E+04</rscale>
<asrwt>0</asrwt>
<pdfrwt beam="1">  1        2 0.31043001E+00 0.28961837E+04</pdfrwt>
<pdfrwt beam="2">  1       -2 0.15988283E+00 0.28961837E+04</pdfrwt>
<totfact> 0.14231086E+00</totfact>
</mgrwt>
</event>
<event>
 6    1  0.2236204E-005  0.2036692E+04  0.7818608E-02  0.8589656E-01
         -2   -1    0    0    0  501 -0.00000000000E+00  0.00000000000E+00  0.61379526985E+03  0.61379526985E+03  0.00000000000E+00 0.  1.
          2   -1    0    0  501    0  0.00000000000E+00 -0.00000000000E+00 -0.16895344210E+04  0.16895344210E+04  0.00000000000E+00 0. -1.
         23    2    1    2    0    0 -0.21685671297E+03  0.68901699242E+03  0.26968882161E+03  0.77625808818E+03  0.89851595246E+02 0.  0.
         13    1    3    3    0    0 -0.16652942694E+03  0.39407583178E+03  0.13983454411E+03  0.45009055862E+03  0.00000000000E+00 0. -1.
        -13    1    3    3    0    0 -0.50327286023E+02  0.29494116064E+03  0.12985427750E+03  0.32616752957E+03  0.00000000000E+00 0.  1.
         22    1    1    2    0    0  0.21685671297E+03 -0.68901699242E+03 -0.13454279728E+04  0.15270716027E+04  0.00000000000E+00 0. -1.
<mgrwt>
<rscale>  0 0.20366917E+04</rscale>
<asrwt>0</asrwt>
<pdfrwt beam="1">  1        2 0.25992837E+00 0.20366917E+04</pdfrwt>
<pdfrwt beam="2">  1       -2 0.94430043E-01 0.20366917E+04</pdfrwt>
<totfact> 0.87026373E+00</totfact>
</mgrwt>
</event>
<event>
 6    1  0.2236204E-005  0.3428397E+04  0.7818608E-02  0.8130972E-01
         -2   -1    0    0    0  501 -0.00000000000E+00  0.00000000000E+00  0.15893402489E+04  0.15893402489E+04  0.00000000000E+00 0.  1.
          2   -1    0    0  501    0  0.00000000000E+00 -0.00000000000E+00 -0.18488653180E+04  0.18488653180E+04  0.00000000000E+00 0. -1.
         23    2    1    2    0    0  0.15975437659E+04  0.39516364961E+03 -0.60657235954E+03  0.17563190618E+04  0.91794476052E+02 0.  0.
         11    1    3    3    0    0  0.98279541295E+03  0.24882711979E+03 -0.42065229361E+03  0.10976110930E+04  0.00000000000E+00 0.  1.
        -11    1    3    3    0    0  0.61474835290E+03  0.14633652982E+03 -0.18592006593E+03  0.65870796888E+03  0.00000000000E+00 0. -1.
         22    1    1    2    0    0 -0.15975437659E+04 -0.39516364961E+03  0.34704729044E+03  0.16818865050E+04  0.00000000000E+00 0.  1.
<mgrwt>
<rscale>  0 0.34283967E+04</rscale>
<asrwt>0</asrwt>
<pdfrwt beam="1">  1        2 0.28444082E+00 0.34283967E+04</pdfrwt>
<pdfrwt beam="2">  1       -2 0.24451389E+00 0.34283967E+04</pdfrwt>
<totfact> 0.46544675E-01</totfact>
</mgrwt>
</event>
<event>
 6    1  0.2236204E-005  0.2913174E+04  0.7818608E-02  0.8268968E-01
         -2   -1    0    0    0  501 -0.00000000000E+00  0.00000000000E+00  0.20949888769E+04  0.20949888769E+04  0.00000000000E+00 0.  1.
          2   -1    0    0  501    0  0.00000000000E+00 -0.00000000000E+00 -0.10127243954E+04  0.10127243954E+04  0.00000000000E+00 0. -1.
         23    2    1    2    0    0 -0.60983682244E+01 -0.14061344636E+04  0.93834685381E+03  0.16942198683E+04  0.11240473359E+03 0.  0.
         11    1    3    3    0    0  0.48320801405E+02 -0.45963036062E+03  0.32660931731E+03  0.56592279898E+03  0.00000000000E+00 0.  1.
        -11    1    3    3    0    0 -0.54419169629E+02 -0.94650410300E+03  0.61173753650E+03  0.11282970693E+04  0.00000000000E+00 0. -1.
         22    1    1    2    0    0  0.60983682244E+01  0.14061344636E+04  0.14391762767E+03  0.14134934041E+04  0.00000000000E+00 0.  1.
<mgrwt>
<rscale>  0 0.29131744E+04</rscale>
<asrwt>0</asrwt>
<pdfrwt beam="1">  1        2 0.15580375E+00 0.29131744E+04</pdfrwt>
<pdfrwt beam="2">  1       -2 0.32230598E+00 0.29131744E+04</pdfrwt>
<totfact> 0.49375146E-01</totfact>
</mgrwt>
</event>
<event>
 6    1  0.2236204E-005  0.8405380E+03  0.7818608E-02  0.9503125E-01
         -1   -1    0    0    0  501 -0.00000000000E+00  0.00000000000E+00  0.10034632437E+04  0.10034632437E+04  0.00000000000E+00 0.  1.
          1   -1    0    0  501    0  0.00000000000E+00 -0.00000000000E+00 -0.17601643381E+03  0.17601643381E+03  0.00000000000E+00 0. -1.
         23    2    1    2    0    0 -0.12339645904E+03  0.39247451412E+03  0.50341233969E+03  0.65578008019E+03  0.85793936180E+02 0.  0.
         13    1    3    3    0    0 -0.80216987521E+02  0.30011990801E+03  0.32033388678E+03  0.44622922729E+03  0.00000000000E+00 0. -1.
        -13    1    3    3    0    0 -0.43179471520E+02  0.92354606113E+02  0.18307845291E+03  0.20955085290E+03  0.00000000000E+00 0.  1.
         22    1    1    2    0    0  0.12339645904E+03 -0.39247451412E+03  0.32403447016E+03  0.52369959728E+03  0.00000000000E+00 0.  1.
<mgrwt>
<rscale>  0 0.84053797E+03</rscale>
<asrwt>0</asrwt>
<pdfrwt beam="1">  1        1 0.27079452E-01 0.84053797E+03</pdfrwt>
<pdfrwt beam="2">  1       -1 0.15437896E+00 0.84053797E+03</pdfrwt>
<totfact> 0.57443818E+01</totfact>
</mgrwt>
</event>
<event>
 6    1  0.2236204E-005  0.1496504E+04  0.7818608E-02  0.8886781E-01
         -2   -1    0    0    0  501 -0.00000000000E+00  0.00000000000E+00  0.75912763849E+03  0.75912763849E+03  0.00000000000E+00 0.  1.
          2   -1    0    0  501    0  0.00000000000E+00 -0.00000000000E+00 -0.73753200192E+03  0.73753200192E+03  0.00000000000E+00 0. -1.
         23    2    1    2    0    0  0.22899844150E+03  0.66496116615E+03  0.25818279888E+03  0.75464405831E+03  0.90640269221E+02 0.  0.
         13    1    3    3    0    0  0.18645946166E+03  0.49295885755E+03  0.15392325414E+03  0.54906095676E+03  0.00000000000E+00 0.  1.
        -13    1    3    3    0    0  0.42538979839E+02  0.17200230861E+03  0.10425954475E+03  0.20558310155E+03  0.00000000000E+00 0. -1.
         22    1    1    2    0    0 -0.22899844150E+03 -0.66496116615E+03 -0.23658716232E+03  0.74201558210E+03  0.00000000000E+00 0.  1.
<mgrwt>
<rscale>  0 0.14965038E+04</rscale>
<asrwt>0</asrwt>
<pdfrwt beam="1">  1        2 0.11346646E+00 0.14965038E+04</pdfrwt>
<pdfrwt beam="2">  1       -2 0.11678887E+00 0.14965038E+04</pdfrwt>
<totfact> 0.21028405E+01</totfact>
</mgrwt>
</event>
<event>
 6    1  0.2236204E-005  0.1825580E+04  0.7818608E-02  0.8692813E-01
          2   -1    0    0  501    0  0.00000000000E+00  0.00000000000E+00  0.14043433753E+04  0.14043433753E+04  0.00000000000E+00 0. -1.
         -2   -1    0    0    0  501 -0.00000000000E+00 -0.00000000000E+00 -0.59329194422E+03  0.59329194422E+03  0.00000000000E+00 0.  1.
         23    2    1    2    0    0  0.22300833245E+03 -0.10253802700E+03  0.13658681678E+04  0.13909489304E+04  0.94320263269E+02 0.  0.
         11    1    3    3    0    0  0.24095092956E+02 -0.46849254178E+02  0.38327160849E+03  0.38687537011E+03  0.00000000000E+00 0.  1.
        -11    1    3    3    0    0  0.19891323949E+03 -0.55688772821E+02  0.98259655927E+03  0.10040735603E+04  0.00000000000E+00 0. -1.
         22    1    1    2    0    0 -0.22300833245E+03  0.10253802700E+03 -0.55481673671E+03  0.60668638905E+03  0.00000000000E+00 0.  1.
<mgrwt>
<rscale>  0 0.18255800E+04</rscale>
<asrwt>0</asrwt>
<pdfrwt beam="1">  1        2 0.21605283E+00 0.18255800E+04</pdfrwt>
<pdfrwt beam="2">  1       -2 0.91275684E-01 0.18255800E+04</pdfrwt>
<totfact> 0.13867930E+01</totfact>
</mgrwt>
</event>
<event>
 6    1  0.2236204E-005  0.2704391E+04  0.7818608E-02  0.8333582E-01
          2   -1    0    0  501    0  0.00000000000E+00  0.00000000000E+00  0.12086236648E+04  0.12086236648E+04  0.00000000000E+00 0. -1.
         -2   -1    0    0    0  501 -0.00000000000E+00 -0.00000000000E+00 -0.15128226916E+04  0.15128226916E+04  0.00000000000E+00 0.  1.
         23    2    1    2    0    0  0.13789311873E+03 -0.13421982920E+04 -0.93099211445E+02  0.13557692720E+04  0.94509726589E+02 0.  0.
         11    1    3    3    0    0  0.13779290761E+03 -0.10849422114E+04 -0.48949880838E+02  0.10947522909E+04  0.00000000000E+00 0. -1.
        -11    1    3    3    0    0  0.10021112093E+00 -0.25725608054E+03 -0.44149330607E+02  0.26101698107E+03  0.00000000000E+00 0.  1.
         22    1    1    2    0    0 -0.13789311873E+03  0.13421982920E+04 -0.21109981536E+03  0.13656770845E+04  0.00000000000E+00 0. -1.
<mgrwt>
<rscale>  0 0.27043915E+04</rscale>
<asrwt>0</asrwt>
<pdfrwt beam="1">  1        2 0.18594210E+00 0.27043915E+04</pdfrwt>
<pdfrwt beam="2">  1       -2 0.23274195E+00 0.27043915E+04</pdfrwt>
<totfact> 0.13490825E+00</totfact>
</mgrwt>
</event>
<event>
 6    1  0.2236204E-005  0.3343022E+04  0.7818608E-02  0.8152034E-01
         -2   -1    0    0    0  501 -0.00000000000E+00  0.00000000000E+00  0.99534181234E+03  0.99534181234E+03  0.00000000000E+00 0.  1.
          2   -1    0    0  501    0  0.00000000000E+00 -0.00000000000E+00 -0.28070243104E+04  0.28070243104E+04  0.00000000000E+00 0. -1.
         23    2    1    2    0    0 -0.10238810199E+04 -0.35543346977E+03 -0.23520435240E+04  0.25913106604E+04  0.90093871104E+02 0.  0.
         11    1    3    3    0    0 -0.30158597679E+03 -0.14608307658E+03 -0.75909371512E+03  0.82976962767E+03  0.00000000000E+00 0. -1.
        -11    1    3    3    0    0 -0.72229504311E+03 -0.20935039319E+03 -0.15929498089E+04  0.17615410328E+04  0.00000000000E+00 0.  1.
         22    1    1    2    0    0  0.10238810199E+04  0.35543346977E+03  0.54036102598E+03  0.12110554623E+04  0.00000000000E+00 0.  1.
<mgrwt>
<rscale>  0 0.33430218E+04</rscale>
<asrwt>0</asrwt>
<pdfrwt beam="1">  1        2 0.43184989E+00 0.33430218E+04</pdfrwt>
<pdfrwt beam="2">  1       -2 0.15312951E+00 0.33430218E+04</pdfrwt>
<totfact> 0.54021954E-01</totfact>
</mgrwt>
</event>
<event>
 6    1  0.2236204E-005  0.2249014E+04  0.7818608E-02  0.8498300E-01
         -2   -1    0    0    0  501 -0.00000000000E+00  0.00000000000E+00  0.73442095148E+03  0.73442095148E+03  0.00000000000E+00 0.  1.
          2   -1    0    0  501    0  0.00000000000E+00 -0.00000000000E+00 -0.17217869441E+04  0.17217869441E+04  0.00000000000E+00 0. -1.
         23    2    1    2    0    0 -0.17676187830E+03 -0.95977416883E+03 -0.11007225109E+04  0.14737309661E+04  0.88778926234E+02 0.  0.
         13    1    3    3    0    0 -0.11518315063E+03 -0.43760796433E+03 -0.55187467315E+03  0.71367607743E+03  0.00000000000E+00 0. -1.
        -13    1    3    3    0    0 -0.61578727666E+02 -0.52216620451E+03 -0.54884783772E+03  0.76005488868E+03  0.00000000000E+00 0.  1.
         22    1    1    2    0    0  0.17676187830E+03  0.95977416883E+03  0.11335651822E+03  0.98247692950E+03  0.00000000000E+00 0.  1.
<mgrwt>
<rscale>  0 0.22490144E+04</rscale>
<asrwt>0</asrwt>
<pdfrwt beam="1">  1        2 0.26489030E+00 0.22490144E+04</pdfrwt>
<pdfrwt beam="2">  1       -2 0.11298784E+00 0.22490144E+04</pdfrwt>
<totfact> 0.53452433E+00</totfact>
</mgrwt>
</event>
<event>
 6    1  0.2236204E-005  0.3071813E+04  0.7818608E-02  0.8223516E-01
         -2   -1    0    0    0  501 -0.00000000000E+00  0.00000000000E+00  0.70851087575E+03  0.70851087575E+03  0.00000000000E+00 0.  1.
          2   -1    0    0  501    0  0.00000000000E+00 -0.00000000000E+00 -0.33295314010E+04  0.33295314010E+04  0.00000000000E+00 0. -1.
         23    2    1    2    0    0 -0.21123875424E+03 -0.14299892863E+04 -0.19887049098E+04  0.24602862095E+04  0.92573452473E+02 0.  0.
         11    1    3    3    0    0 -0.14139876097E+02 -0.30697623930E+03 -0.38580705452E+03  0.49323567482E+03  0.00000000000E+00 0.  1.
        -11    1    3    3    0    0 -0.19709887815E+03 -0.11230130470E+04 -0.16028978553E+04  0.19670505347E+04  0.00000000000E+00 0. -1.
         22    1    1    2    0    0  0.21123875424E+03  0.14299892863E+04 -0.63231561541E+03  0.15777560672E+04  0.00000000000E+00 0.  1.
<mgrwt>
<rscale>  0 0.30718133E+04</rscale>
<asrwt>0</asrwt>
<pdfrwt beam="1">  1        2 0.51223560E+00 0.30718133E+04</pdfrwt>
<pdfrwt beam="2">  1       -2 0.10900167E+00 0.30718133E+04</pdfrwt>
<totfact> 0.60776899E-01</totfact>
</mgrwt>
</event>
<event>
 6    1  0.2236204E-005  0.1756315E+04  0.7818608E-02  0.8729882E-01
         -2   -1    0    0    0  501 -0.00000000000E+00  0.00000000000E+00  0.22013660519E+03  0.22013660519E+03  0.00000000000E+00 0.  1.
          2   -1    0    0  501    0  0.00000000000E+00 -0.00000000000E+00 -0.35031012227E+04  0.35031012227E+04  0.00000000000E+00 0. -1.
         23    2    1    2    0    0  0.36198356490E+03 -0.20398593357E+03 -0.32803214344E+04  0.33077268789E+04  0.88915859940E+02 0.  0.
         13    1    3    3    0    0  0.48626422128E+02 -0.42364697177E+02 -0.78101690630E+03  0.78367512684E+03  0.00000000000E+00 0.  1.
        -13    1    3    3    0    0  0.31335714278E+03 -0.16162123639E+03 -0.24993045281E+04  0.25240517520E+04  0.00000000000E+00 0. -1.
         22    1    1    2    0    0 -0.36198356490E+03  0.20398593357E+03 -0.26431831668E+01  0.41551094904E+03  0.00000000000E+00 0.  1.
<mgrwt>
<rscale>  0 0.17563152E+04</rscale>
<asrwt>0</asrwt>
<pdfrwt beam="1">  1        2 0.53893867E+00 0.17563152E+04</pdfrwt>
<pdfrwt beam="2">  1       -2 0.33867169E-01 0.17563152E+04</pdfrwt>
<totfact> 0.63081027E+00</totfact>
</mgrwt>
</event>
<event>
 6    1  0.2236204E-005  0.8256072E+03  0.7818608E-02  0.9523674E-01
          2   -1    0    0  501    0  0.00000000000E+00  0.00000000000E+00  0.91945322689E+03  0.91945322689E+03  0.00000000000E+00 0. -1.
         -2   -1    0    0    0  501 -0.00000000000E+00 -0.00000000000E+00 -0.18533495282E+03  0.18533495282E+03  0.00000000000E+00 0.  1.
         23    2    1    2    0    0 -0.26829563082E+03 -0.80052754793E+02  0.76758629419E+03  0.82281105752E+03  0.97151059077E+02 0.  0.
         11    1    3    3    0    0 -0.21049612194E+03 -0.59932232001E+02  0.69066695717E+03  0.72451455163E+03  0.00000000000E+00 0. -1.
        -11    1    3    3    0    0 -0.57799508878E+02 -0.20120522792E+02  0.76919337019E+02  0.98296505896E+02  0.00000000000E+00 0.  1.
         22    1    1    2    0    0  0.26829563082E+03  0.80052754793E+02 -0.33468020120E+02  0.28197712219E+03  0.00000000000E+00 0. -1.
<mgrwt>
<rscale>  0 0.82560722E+03</rscale>
<asrwt>0</asrwt>
<pdfrwt beam="1">  1        2 0.14145434E+00 0.82560722E+03</pdfrwt>
<pdfrwt beam="2">  1       -2 0.28513070E-01 0.82560722E+03</pdfrwt>
<totfact> 0.32177228E+02</totfact>
</mgrwt>
</event>
<event>
 6    1  0.2236204E-005  0.1863111E+04  0.7818608E-02  0.8673439E-01
          2   -1    0    0  501    0  0.00000000000E+00  0.00000000000E+00  0.19289000263E+04  0.19289000263E+04  0.00000000000E+00 0. -1.
         -2   -1    0    0    0  501 -0.00000000000E+00 -0.00000000000E+00 -0.44989155612E+03  0.44989155612E+03  0.00000000000E+00 0.  1.
         23    2    1    2    0    0  0.73511706278E+03  0.21389997383E+03  0.14140171471E+04  0.16104334843E+04  0.88888808790E+02 0.  0.
         13    1    3    3    0    0  0.52062587586E+03  0.11237986986E+03  0.10120654866E+04  0.11436595153E+04  0.00000000000E+00 0. -1.
        -13    1    3    3    0    0  0.21449118692E+03  0.10152010397E+03  0.40195166049E+03  0.46677396902E+03  0.00000000000E+00 0.  1.
         22    1    1    2    0    0 -0.73511706278E+03 -0.21389997383E+03  0.64991323037E+02  0.76835809806E+03  0.00000000000E+00 0.  1.
<mgrwt>
<rscale>  0 0.18631112E+04</rscale>
<asrwt>0</asrwt>
<pdfrwt beam="1">  1        2 0.29675385E+00 0.18631112E+04</pdfrwt>
<pdfrwt beam="2">  1       -2 0.69214086E-01 0.18631112E+04</pdfrwt>
<totfact> 0.13095964E+01</totfact>
</mgrwt>
</event>
<event>
 6    1  0.2236204E-005  0.3535084E+04  0.7818608E-02  0.8105525E-01
          1   -1    0    0  501    0  0.00000000000E+00  0.00000000000E+00  0.11189044605E+04  0.11189044605E+04  0.00000000000E+00 0. -1.
         -1   -1    0    0    0  501 -0.00000000000E+00 -0.00000000000E+00 -0.27921997889E+04  0.27921997889E+04  0.00000000000E+00 0.  1.
         23    2    1    2    0    0  0.10129939349E+04 -0.12885508606E+04 -0.10867420329E+03  0.16451476529E+04  0.90447137470E+02 0.  0.
         11    1    3    3    0    0  0.13126104471E+03 -0.20730817041E+03 -0.36798084022E+02  0.24811335789E+03  0.00000000000E+00 0.  1.
        -11    1    3    3    0    0  0.88173289018E+03 -0.10812426902E+04 -0.71876119272E+02  0.13970342950E+04  0.00000000000E+00 0. -1.
         22    1    1    2    0    0 -0.10129939349E+04  0.12885508606E+04 -0.15646211251E+04  0.22659565966E+04  0.00000000000E+00 0. -1.
<mgrwt>
<rscale>  0 0.35350840E+04</rscale>
<asrwt>0</asrwt>
<pdfrwt beam="1">  1        1 0.17213915E+00 0.35350840E+04</pdfrwt>
<pdfrwt beam="2">  1       -1 0.42956919E+00 0.35350840E+04</pdfrwt>
<totfact> 0.44660326E-02</totfact>
</mgrwt>
</event>
<event>
 6    1  0.2236204E-005  0.3323207E+04  0.7818608E-02  0.8157015E-01
          2   -1    0    0  501    0  0.00000000000E+00  0.00000000000E+00  0.18854113329E+04  0.18854113329E+04  0.00000000000E+00 0. -1.
         -2   -1    0    0    0  501 -0.00000000000E+00 -0.00000000000E+00 -0.14643624842E+04  0.14643624842E+04  0.00000000000E+00 0.  1.
         23    2    1    2    0    0 -0.12894855581E+04  0.92136516139E+03 -0.29024600426E+03  0.16126419474E+04  0.68443715737E+02 0.  0.
         11    1    3    3    0    0 -0.11750548683E+03  0.73328353544E+02 -0.43137023187E+02  0.14507029206E+03  0.00000000000E+00 0.  1.
        -11    1    3    3    0    0 -0.11719800713E+04  0.84803680784E+03 -0.24710898107E+03  0.14675716553E+04  0.00000000000E+00 0. -1.
         22    1    1    2    0    0  0.12894855581E+04 -0.92136516139E+03  0.71129485297E+03  0.17371318698E+04  0.00000000000E+00 0.  1.
<mgrwt>
<rscale>  0 0.33232067E+04</rscale>
<asrwt>0</asrwt>
<pdfrwt beam="1">  1        2 0.29006328E+00 0.33232067E+04</pdfrwt>
<pdfrwt beam="2">  1       -2 0.22528653E+00 0.33232067E+04</pdfrwt>
<totfact> 0.59030677E-01</totfact>
</mgrwt>
</event>
<event>
 6    1  0.2236204E-005  0.5284256E+04  0.7818608E-02  0.7786094E-01
         -2   -1    0    0    0  501 -0.00000000000E+00  0.00000000000E+00  0.28879349188E+04  0.28879349188E+04  0.00000000000E+00 0. -1.
          2   -1    0    0  501    0  0.00000000000E+00 -0.00000000000E+00 -0.24172425723E+04  0.24172425723E+04  0.00000000000E+00 0.  1.
         23    2    1    2    0    0  0.13336514779E+03  0.58334699868E+03 -0.23473833062E+04  0.24242695843E+04  0.93779782663E+02 0.  0.
         13    1    3    3    0    0  0.86211183952E+02  0.29614638924E+03 -0.13801927732E+04  0.14142373009E+04  0.00000000000E+00 0.  1.
        -13    1    3    3    0    0  0.47153963842E+02  0.28720060943E+03 -0.96719053300E+03  0.10100322834E+04  0.00000000000E+00 0. -1.
         22    1    1    2    0    0 -0.13336514779E+03 -0.58334699868E+03  0.28180756527E+04  0.28809079069E+04  0.00000000000E+00 0. -1.
<mgrwt>
<rscale>  0 0.52842556E+04</rscale>
<asrwt>0</asrwt>
<pdfrwt beam="1">  1        2 0.37188347E+00 0.52842556E+04</pdfrwt>
<pdfrwt beam="2">  1       -2 0.44429768E+00 0.52842556E+04</pdfrwt>
<totfact> 0.10504213E-02</totfact>
</mgrwt>
</event>
<event>
 6    1  0.2236204E-005  0.2337231E+04  0.7818608E-02  0.8463384E-01
         -2   -1    0    0    0  501 -0.00000000000E+00  0.00000000000E+00  0.21307751474E+04  0.21307751474E+04  0.00000000000E+00 0.  1.
          2   -1    0    0  501    0  0.00000000000E+00 -0.00000000000E+00 -0.64092274725E+03  0.64092274725E+03  0.00000000000E+00 0. -1.
         23    2    1    2    0    0  0.50509265201E+03  0.19443858122E+03  0.19719408153E+04  0.20468984817E+04  0.91202339297E+02 0.  0.
         11    1    3    3    0    0  0.21035288170E+03  0.33437052142E+02  0.77274441392E+03  0.80156116456E+03  0.00000000000E+00 0. -1.
        -11    1    3    3    0    0  0.29473977031E+03  0.16100152908E+03  0.11991964013E+04  0.12453373172E+04  0.00000000000E+00 0.  1.
         22    1    1    2    0    0 -0.50509265201E+03 -0.19443858122E+03 -0.48208841511E+03  0.72479941291E+03  0.00000000000E+00 0. -1.
<mgrwt>
<rscale>  0 0.23372311E+04</rscale>
<asrwt>0</asrwt>
<pdfrwt beam="1">  1        2 0.98603501E-01 0.23372311E+04</pdfrwt>
<pdfrwt beam="2">  1       -2 0.32781156E+00 0.23372311E+04</pdfrwt>
<totfact> 0.88636614E-01</totfact>
</mgrwt>
</event>
<event>
 6    1  0.2236204E-005  0.4133106E+04  0.7818608E-02  0.7978220E-01
          2   -1    0    0  501    0  0.00000000000E+00  0.00000000000E+00  0.12437896924E+04  0.12437896924E+04  0.00000000000E+00 0. -1.
         -2   -1    0    0    0  501 -0.00000000000E+00 -0.00000000000E+00 -0.34335718679E+04  0.34335718679E+04  0.00000000000E+00 0.  1.
         23    2    1    2    0    0  0.19313941988E+04  0.31501247774E+03 -0.18450982664E+04  0.26903227058E+04  0.62707549029E+02 0.  0.
         11    1    3    3    0    0  0.13178521752E+04  0.21438311123E+03 -0.12986528780E+04  0.18625771854E+04  0.00000000000E+00 0. -1.
        -11    1    3    3    0    0  0.61354202356E+03  0.10062936651E+03 -0.54644538837E+03  0.82774552040E+03  0.00000000000E+00 0.  1.
         22    1    1    2    0    0 -0.19313941988E+04 -0.31501247774E+03 -0.34468390911E+03  0.19870388545E+04  0.00000000000E+00 0.  1.
<mgrwt>
<rscale>  0 0.41331060E+04</rscale>
<asrwt>0</asrwt>
<pdfrwt beam="1">  1        2 0.19135226E+00 0.41331060E+04</pdfrwt>
<pdfrwt beam="2">  1       -2 0.52824182E+00 0.41331060E+04</pdfrwt>
<totfact> 0.15627026E-02</totfact>
</mgrwt>
</event>
<event>
 6    1  0.2236204E-005  0.1429034E+04  0.7818608E-02  0.8933066E-01
          1   -1    0    0  501    0  0.00000000000E+00  0.00000000000E+00  0.72144859612E+03  0.72144859612E+03  0.00000000000E+00 0. -1.
         -1   -1    0    0    0  501 -0.00000000000E+00 -0.00000000000E+00 -0.70765244657E+03  0.70765244657E+03  0.00000000000E+00 0.  1.
         23    2    1    2    0    0 -0.49912593225E+03 -0.31267703051E+03  0.40603638734E+03  0.72146693823E+03  0.93570152619E+02 0.  0.
         13    1    3    3    0    0 -0.13409684000E+03 -0.12581271825E+03  0.15628417816E+03  0.24132042374E+03  0.00000000000E+00 0. -1.
        -13    1    3    3    0    0 -0.36502909225E+03 -0.18686431226E+03  0.24975220919E+03  0.48014651449E+03  0.00000000000E+00 0.  1.
         22    1    1    2    0    0  0.49912593225E+03  0.31267703051E+03 -0.39224023779E+03  0.70763410446E+03  0.00000000000E+00 0.  1.
<mgrwt>
<rscale>  0 0.14290344E+04</rscale>
<asrwt>0</asrwt>
<pdfrwt beam="1">  1        1 0.11099209E+00 0.14290344E+04</pdfrwt>
<pdfrwt beam="2">  1       -1 0.10886961E+00 0.14290344E+04</pdfrwt>
<totfact> 0.19799128E+01</totfact>
</mgrwt>
</event>
<event>
 6    1  0.2236204E-005  0.4317126E+04  0.7818608E-02  0.7943459E-01
          2   -1    0    0  501    0  0.00000000000E+00  0.00000000000E+00  0.17894956087E+04  0.17894956087E+04  0.00000000000E+00 0. -1.
         -2   -1    0    0    0  501 -0.00000000000E+00 -0.00000000000E+00 -0.26037469893E+04  0.26037469893E+04  0.00000000000E+00 0.  1.
         23    2    1    2    0    0 -0.14446123738E+04 -0.10896802768E+04 -0.16031402753E+04  0.24192482453E+04  0.91625945403E+02 0.  0.
         11    1    3    3    0    0 -0.10533163532E+04 -0.84437137065E+03 -0.11986041113E+04  0.18052950360E+04  0.00000000000E+00 0. -1.
        -11    1    3    3    0    0 -0.39129602069E+03 -0.24530890618E+03 -0.40453616403E+03  0.61395320934E+03  0.00000000000E+00 0.  1.
         22    1    1    2    0    0  0.14446123738E+04  0.10896802768E+04  0.78888889473E+03  0.19739943527E+04  0.00000000000E+00 0. -1.
<mgrwt>
<rscale>  0 0.43171258E+04</rscale>
<asrwt>0</asrwt>
<pdfrwt beam="1">  1        2 0.27530702E+00 0.43171258E+04</pdfrwt>
<pdfrwt beam="2">  1       -2 0.40057646E+00 0.43171258E+04</pdfrwt>
<totfact> 0.49478618E-02</totfact>
</mgrwt>
</event>
<event>
 6    1  0.2236204E-005  0.1448814E+04  0.7818608E-02  0.8919223E-01
         -2   -1    0    0    0  501 -0.00000000000E+00  0.00000000000E+00  0.74584445538E+03  0.74584445538E+03  0.00000000000E+00 0. -1.
          2   -1    0    0  501    0  0.00000000000E+00 -0.00000000000E+00 -0.70358554539E+03  0.70358554539E+03  0.00000000000E+00 0.  1.
         23    2    1    2    0    0 -0.68316396354E+03 -0.14863110303E+03 -0.15707522221E+03  0.72242360319E+03  0.91755278603E+02 0.  0.
         13    1    3    3    0    0 -0.58590022411E+03 -0.15646918526E+03 -0.12098443772E+03  0.61838411422E+03  0.00000000000E+00 0.  1.
        -13    1    3    3    0    0 -0.97263739436E+02  0.78380822322E+01 -0.36090784489E+02  0.10403948898E+03  0.00000000000E+00 0. -1.
         22    1    1    2    0    0  0.68316396354E+03  0.14863110303E+03  0.19933413220E+03  0.72700639758E+03  0.00000000000E+00 0. -1.
<mgrwt>
<rscale>  0 0.14488138E+04</rscale>
<asrwt>0</asrwt>
<pdfrwt beam="1">  1        2 0.10824393E+00 0.14488138E+04</pdfrwt>
<pdfrwt beam="2">  1       -2 0.11474530E+00 0.14488138E+04</pdfrwt>
<totfact> 0.23405853E+01</totfact>
</mgrwt>
</event>
<event>
 6    1  0.2236204E-005  0.2263243E+04  0.7818608E-02  0.8492556E-01
         -2   -1    0    0    0  501 -0.00000000000E+00  0.00000000000E+00  0.69512155006E+03  0.69512155006E+03  0.00000000000E+00 0.  1.
          2   -1    0    0  501    0  0.00000000000E+00 -0.00000000000E+00 -0.18422213699E+04  0.18422213699E+04  0.00000000000E+00 0. -1.
         23    2    1    2    0    0  0.48953750687E+03 -0.87095239387E+03  0.16608590768E+02  0.10035820820E+04  0.93252919927E+02 0.  0.
         13    1    3    3    0    0  0.10767795263E+03 -0.22592286081E+03  0.40956587308E+02  0.25360032051E+03  0.00000000000E+00 0. -1.
        -13    1    3    3    0    0  0.38185955424E+03 -0.64502953306E+03 -0.24347996540E+02  0.74998176153E+03  0.00000000000E+00 0.  1.
         22    1    1    2    0    0 -0.48953750687E+03  0.87095239387E+03 -0.11637084106E+04  0.15337608379E+04  0.00000000000E+00 0.  1.
<mgrwt>
<rscale>  0 0.22632435E+04</rscale>
<asrwt>0</asrwt>
<pdfrwt beam="1">  1        2 0.28341867E+00 0.22632435E+04</pdfrwt>
<pdfrwt beam="2">  1       -2 0.10694178E+00 0.22632435E+04</pdfrwt>
<totfact> 0.52290521E+00</totfact>
</mgrwt>
</event>
<event>
 6    1  0.2236204E-005  0.1499764E+04  0.7818608E-02  0.8884610E-01
          2   -1    0    0  501    0  0.00000000000E+00  0.00000000000E+00  0.86585182711E+03  0.86585182711E+03  0.00000000000E+00 0. -1.
         -2   -1    0    0    0  501 -0.00000000000E+00 -0.00000000000E+00 -0.64944490956E+03  0.64944490956E+03  0.00000000000E+00 0.  1.
         23    2    1    2    0    0  0.11676830497E+03  0.61654540559E+03 -0.30131374484E+03  0.70178720478E+03  0.89175297981E+02 0.  0.
         13    1    3    3    0    0  0.48984296613E+02  0.46646730672E+03 -0.22851741573E+03  0.52173884161E+03  0.00000000000E+00 0. -1.
        -13    1    3    3    0    0  0.67784008361E+02  0.15007809887E+03 -0.72796329111E+02  0.18004836317E+03  0.00000000000E+00 0.  1.
         22    1    1    2    0    0 -0.11676830497E+03 -0.61654540559E+03  0.51772066239E+03  0.81350953188E+03  0.00000000000E+00 0. -1.
<mgrwt>
<rscale>  0 0.14997641E+04</rscale>
<asrwt>0</asrwt>
<pdfrwt beam="1">  1        2 0.13320797E+00 0.14997641E+04</pdfrwt>
<pdfrwt beam="2">  1       -2 0.99914601E-01 0.14997641E+04</pdfrwt>
<totfact> 0.24751366E+01</totfact>
</mgrwt>
</event>
<event>
 6    1  0.2236204E-005  0.5119151E+04  0.7818608E-02  0.7810385E-01
          2   -1    0    0  501    0  0.00000000000E+00  0.00000000000E+00  0.40799828439E+04  0.40799828439E+04  0.00000000000E+00 0. -1.
         -2   -1    0    0    0  501 -0.00000000000E+00 -0.00000000000E+00 -0.16057488663E+04  0.16057488663E+04  0.00000000000E+00 0.  1.
         23    2    1    2    0    0  0.24201296927E+04 -0.69906996432E+02  0.21570315977E+04  0.32439020545E+04  0.90556657316E+02 0.  0.
         13    1    3    3    0    0  0.82376317053E+03  0.84599611252E+01  0.69597003584E+03  0.10784394387E+04  0.00000000000E+00 0.  1.
        -13    1    3    3    0    0  0.15963665222E+04 -0.78366957557E+02  0.14610615618E+04  0.21654626158E+04  0.00000000000E+00 0. -1.
         22    1    1    2    0    0 -0.24201296927E+04  0.69906996432E+02  0.31720237992E+03  0.24418296557E+04  0.00000000000E+00 0.  1.
<mgrwt>
<rscale>  0 0.51191514E+04</rscale>
<asrwt>0</asrwt>
<pdfrwt beam="1">  1        2 0.62768966E+00 0.51191514E+04</pdfrwt>
<pdfrwt beam="2">  1       -2 0.24703829E+00 0.51191514E+04</pdfrwt>
<totfact> 0.14138734E-02</totfact>
</mgrwt>
</event>
<event>
 6    1  0.2236204E-005  0.2890825E+04  0.7818608E-02  0.8275613E-01
          2   -1    0    0  501    0  0.00000000000E+00  0.00000000000E+00  0.32761732256E+04  0.32761732256E+04  0.00000000000E+00 0. -1.
         -2   -1    0    0    0  501 -0.00000000000E+00 -0.00000000000E+00 -0.63770040645E+03  0.63770040645E+03  0.00000000000E+00 0.  1.
         23    2    1    2    0    0  0.24133069696E+03 -0.53053696258E+03  0.31090541047E+04  0.31647696872E+04  0.99195633001E+02 0.  0.
         11    1    3    3    0    0  0.59895472887E+02 -0.15480846077E+03  0.11375967739E+04  0.11496432261E+04  0.00000000000E+00 0.  1.
        -11    1    3    3    0    0  0.18143522407E+03 -0.37572850180E+03  0.19714573307E+04  0.20151264612E+04  0.00000000000E+00 0. -1.
         22    1    1    2    0    0 -0.24133069696E+03  0.53053696258E+03 -0.47058128547E+03  0.74910394485E+03  0.00000000000E+00 0.  1.
<mgrwt>
<rscale>  0 0.28908248E+04</rscale>
<asrwt>0</asrwt>
<pdfrwt beam="1">  1        2 0.50402664E+00 0.28908248E+04</pdfrwt>
<pdfrwt beam="2">  1       -2 0.98107757E-01 0.28908248E+04</pdfrwt>
<totfact> 0.86182962E-01</totfact>
</mgrwt>
</event>
<event>
 6    1  0.2236204E-005  0.1170541E+04  0.7818608E-02  0.9139040E-01
          2   -1    0    0  501    0  0.00000000000E+00  0.00000000000E+00  0.17481158832E+04  0.17481158832E+04  0.00000000000E+00 0. -1.
         -2   -1    0    0    0  501 -0.00000000000E+00 -0.00000000000E+00 -0.19594892338E+03  0.19594892338E+03  0.00000000000E+00 0.  1.
         23    2    1    2    0    0  0.35847902035E+03  0.84957615056E+02  0.33146358492E+02  0.38100735669E+03  0.91339588274E+02 0.  0.
         11    1    3    3    0    0  0.51085268201E+02  0.29475027045E+02  0.35114440789E+02  0.68640409370E+02  0.00000000000E+00 0.  1.
        -11    1    3    3    0    0  0.30739375214E+03  0.55482588011E+02 -0.19680822975E+01  0.31236694732E+03  0.00000000000E+00 0. -1.
         22    1    1    2    0    0 -0.35847902035E+03 -0.84957615056E+02  0.15190206013E+04  0.15630574499E+04  0.00000000000E+00 0. -1.
<mgrwt>
<rscale>  0 0.11705408E+04</rscale>
<asrwt>0</asrwt>
<pdfrwt beam="1">  1        2 0.26894090E+00 0.11705408E+04</pdfrwt>
<pdfrwt beam="2">  1       -2 0.30145989E-01 0.11705408E+04</pdfrwt>
<totfact> 0.92638237E+01</totfact>
</mgrwt>
</event>
<event>
 6    1  0.2236204E-005  0.2140402E+04  0.7818608E-02  0.8543652E-01
          2   -1    0    0  501    0  0.00000000000E+00  0.00000000000E+00  0.20298545775E+04  0.20298545775E+04  0.00000000000E+00 0. -1.
         -2   -1    0    0    0  501 -0.00000000000E+00 -0.00000000000E+00 -0.56424231529E+03  0.56424231529E+03  0.00000000000E+00 0.  1.
         23    2    1    2    0    0  0.26292634938E+03  0.96758950139E+03  0.28414140190E+03  0.10445056234E+04  0.69971084187E+02 0.  0.
         13    1    3    3    0    0  0.26531629608E+02  0.14769001174E+03  0.20755921997E+02  0.15148292061E+03  0.00000000000E+00 0. -1.
        -13    1    3    3    0    0  0.23639471977E+03  0.81989948965E+03  0.26338547990E+03  0.89302270278E+03  0.00000000000E+00 0.  1.
         22    1    1    2    0    0 -0.26292634938E+03 -0.96758950139E+03  0.11814708603E+04  0.15495912694E+04  0.00000000000E+00 0.  1.
<mgrwt>
<rscale>  0 0.21404017E+04</rscale>
<asrwt>0</asrwt>
<pdfrwt beam="1">  1        2 0.31228532E+00 0.21404017E+04</pdfrwt>
<pdfrwt beam="2">  1       -2 0.86806511E-01 0.21404017E+04</pdfrwt>
<totfact> 0.67819873E+00</totfact>
</mgrwt>
</event>
<event>
 6    1  0.2236204E-005  0.4390929E+03  0.7818608E-02  0.1031025E+00
          2   -1    0    0  501    0  0.00000000000E+00  0.00000000000E+00  0.81879685123E+02  0.81879685123E+02  0.00000000000E+00 0. -1.
         -2   -1    0    0    0  501 -0.00000000000E+00 -0.00000000000E+00 -0.58867658919E+03  0.58867658919E+03  0.00000000000E+00 0.  1.
         23    2    1    2    0    0 -0.63394132581E+02  0.16441346088E+03 -0.93227508624E+02  0.22101178596E+03  0.95416135978E+02 0.  0.
         13    1    3    3    0    0  0.23962803874E+02  0.56823601571E+02 -0.32386123836E+02  0.69656289609E+02  0.00000000000E+00 0. -1.
        -13    1    3    3    0    0 -0.87356936454E+02  0.10758985931E+03 -0.60841384787E+02  0.15135549635E+03  0.00000000000E+00 0.  1.
         22    1    1    2    0    0  0.63394132581E+02 -0.16441346088E+03 -0.41356939544E+03  0.44954448835E+03  0.00000000000E+00 0.  1.
<mgrwt>
<rscale>  0 0.43909295E+03</rscale>
<asrwt>0</asrwt>
<pdfrwt beam="1">  1        2 0.12596874E-01 0.43909295E+03</pdfrwt>
<pdfrwt beam="2">  1       -2 0.90565632E-01 0.43909295E+03</pdfrwt>
<totfact> 0.52180859E+02</totfact>
</mgrwt>
</event>
<event>
 6    1  0.2236204E-005  0.1596882E+04  0.7818608E-02  0.8822466E-01
         -2   -1    0    0    0  501 -0.00000000000E+00  0.00000000000E+00  0.52621131790E+03  0.52621131790E+03  0.00000000000E+00 0.  1.
          2   -1    0    0  501    0  0.00000000000E+00 -0.00000000000E+00 -0.12115057277E+04  0.12115057277E+04  0.00000000000E+00 0. -1.
         23    2    1    2    0    0 -0.94825093878E+02  0.72027184306E+03  0.97132353789E+01  0.73232212160E+03  0.91749749375E+02 0.  0.
         13    1    3    3    0    0 -0.10680460338E+03  0.48351199655E+03  0.36117927802E+01  0.49518089539E+03  0.00000000000E+00 0.  1.
        -13    1    3    3    0    0  0.11979509504E+02  0.23675984651E+03  0.61014425987E+01  0.23714122621E+03  0.00000000000E+00 0. -1.
         22    1    1    2    0    0  0.94825093878E+02 -0.72027184306E+03 -0.69500764513E+03  0.10053949240E+04  0.00000000000E+00 0. -1.
<mgrwt>
<rscale>  0 0.15968820E+04</rscale>
<asrwt>0</asrwt>
<pdfrwt beam="1">  1        2 0.18638549E+00 0.15968820E+04</pdfrwt>
<pdfrwt beam="2">  1       -2 0.80955588E-01 0.15968820E+04</pdfrwt>
<totfact> 0.24068438E+01</totfact>
</mgrwt>
</event>
<event>
 6    1  0.2236204E-005  0.2402075E+04  0.7818608E-02  0.8438727E-01
         -2   -1    0    0    0  501 -0.00000000000E+00  0.00000000000E+00  0.12384978495E+04  0.12384978495E+04  0.00000000000E+00 0.  1.
          2   -1    0    0  501    0  0.00000000000E+00 -0.00000000000E+00 -0.11647101581E+04  0.11647101581E+04  0.00000000000E+00 0. -1.
         23    2    1    2    0    0 -0.50556543794E+03 -0.35159357273E+03  0.10665638453E+04  0.12349533504E+04  0.91306566066E+02 0.  0.
         11    1    3    3    0    0 -0.18332270470E+03 -0.17954317223E+03  0.41268884235E+03  0.48595786377E+03  0.00000000000E+00 0. -1.
        -11    1    3    3    0    0 -0.32224273324E+03 -0.17205040049E+03  0.65387500296E+03  0.74899548659E+03  0.00000000000E+00 0.  1.
         22    1    1    2    0    0  0.50556543794E+03  0.35159357273E+03 -0.99277615391E+03  0.11682546573E+04  0.00000000000E+00 0. -1.
<mgrwt>
<rscale>  0 0.24020750E+04</rscale>
<asrwt>0</asrwt>
<pdfrwt beam="1">  1        2 0.17918618E+00 0.24020750E+04</pdfrwt>
<pdfrwt beam="2">  1       -2 0.19053813E+00 0.24020750E+04</pdfrwt>
<totfact> 0.27487111E+00</totfact>
</mgrwt>
</event>
<event>
 6    1  0.2236204E-005  0.7238425E+03  0.7818608E-02  0.9677305E-01
          2   -1    0    0  501    0  0.00000000000E+00  0.00000000000E+00  0.13954146370E+04  0.13954146370E+04  0.00000000000E+00 0. -1.
         -2   -1    0    0    0  501 -0.00000000000E+00 -0.00000000000E+00 -0.93869583411E+02  0.93869583411E+02  0.00000000000E+00 0.  1.
         23    2    1    2    0    0  0.12671908081E+03  0.25425588293E+03  0.22137147262E+03  0.37237834055E+03  0.94638893586E+02 0.  0.
         11    1    3    3    0    0  0.51166670734E+02  0.78356600626E+02  0.22320452056E+02  0.96208043508E+02  0.00000000000E+00 0.  1.
        -11    1    3    3    0    0  0.75552410072E+02  0.17589928230E+03  0.19905102057E+03  0.27617029705E+03  0.00000000000E+00 0. -1.
         22    1    1    2    0    0 -0.12671908081E+03 -0.25425588293E+03  0.10801735809E+04  0.11169058798E+04  0.00000000000E+00 0. -1.
<mgrwt>
<rscale>  0 0.72384250E+03</rscale>
<asrwt>0</asrwt>
<pdfrwt beam="1">  1        2 0.21467916E+00 0.72384250E+03</pdfrwt>
<pdfrwt beam="2">  1       -2 0.14441475E-01 0.72384250E+03</pdfrwt>
<totfact> 0.55025107E+02</totfact>
</mgrwt>
</event>
<event>
 6    1  0.2236204E-005  0.3540996E+04  0.7818608E-02  0.8104143E-01
         -2   -1    0    0    0  501 -0.00000000000E+00  0.00000000000E+00  0.13099016016E+04  0.13099016016E+04  0.00000000000E+00 0. -1.
          2   -1    0    0  501    0  0.00000000000E+00 -0.00000000000E+00 -0.23930524679E+04  0.23930524679E+04  0.00000000000E+00 0.  1.
         23    2    1    2    0    0 -0.23171525549E+03 -0.15813754408E+04  0.25185691960E+03  0.16204829333E+04  0.89959907673E+02 0.  0.
         13    1    3    3    0    0 -0.10753253124E+03 -0.88212189969E+03  0.17962488226E+03  0.90662417214E+03  0.00000000000E+00 0.  1.
        -13    1    3    3    0    0 -0.12418272425E+03 -0.69925354107E+03  0.72232037341E+02  0.71385876119E+03  0.00000000000E+00 0. -1.
         22    1    1    2    0    0  0.23171525549E+03  0.15813754408E+04 -0.13350077859E+04  0.20824711361E+04  0.00000000000E+00 0.  1.
<mgrwt>
<rscale>  0 0.35409961E+04</rscale>
<asrwt>0</asrwt>
<pdfrwt beam="1">  1        2 0.36816192E+00 0.35409961E+04</pdfrwt>
<pdfrwt beam="2">  1       -2 0.20152332E+00 0.35409961E+04</pdfrwt>
<totfact> 0.42705244E-01</totfact>
</mgrwt>
</event>
<event>
 6    1  0.2236204E-005  0.1458581E+04  0.7818608E-02  0.8912473E-01
          2   -1    0    0  501    0  0.00000000000E+00  0.00000000000E+00  0.75511964105E+03  0.75511964105E+03  0.00000000000E+00 0. -1.
         -2   -1    0    0    0  501 -0.00000000000E+00 -0.00000000000E+00 -0.70434474809E+03  0.70434474809E+03  0.00000000000E+00 0.  1.
         23    2    1    2    0    0 -0.16791609529E+02  0.71777824412E+03 -0.83225582308E+02  0.72909209144E+03  0.95714232773E+02 0.  0.
         11    1    3    3    0    0 -0.20468197921E+02  0.53075739492E+03 -0.19610651509E+02  0.53151381642E+03  0.00000000000E+00 0. -1.
        -11    1    3    3    0    0  0.36765883924E+01  0.18702084920E+03 -0.63614930800E+02  0.19757827502E+03  0.00000000000E+00 0.  1.
         22    1    1    2    0    0  0.16791609529E+02 -0.71777824412E+03  0.13400047526E+03  0.73037229771E+03  0.00000000000E+00 0.  1.
<mgrwt>
<rscale>  0 0.14585809E+04</rscale>
<asrwt>0</asrwt>
<pdfrwt beam="1">  1        2 0.11617225E+00 0.14585809E+04</pdfrwt>
<pdfrwt beam="2">  1       -2 0.10836073E+00 0.14585809E+04</pdfrwt>
<totfact> 0.24546610E+01</totfact>
</mgrwt>
</event>
<event>
 6    1  0.2236204E-005  0.2215132E+04  0.7818608E-02  0.8512156E-01
          2   -1    0    0  501    0  0.00000000000E+00  0.00000000000E+00  0.93430472972E+03  0.93430472972E+03  0.00000000000E+00 0. -1.
         -2   -1    0    0    0  501 -0.00000000000E+00 -0.00000000000E+00 -0.13129569902E+04  0.13129569902E+04  0.00000000000E+00 0.  1.
         23    2    1    2    0    0  0.86293011773E+03  0.53479722945E+02 -0.88853834994E+03  0.12435225640E+04  0.96641082834E+02 0.  0.
         13    1    3    3    0    0  0.50742956960E+03  0.21439406436E+02 -0.58739950128E+03  0.77651953637E+03  0.00000000000E+00 0. -1.
        -13    1    3    3    0    0  0.35550054813E+03  0.32040316509E+02 -0.30113884866E+03  0.46700302759E+03  0.00000000000E+00 0.  1.
         22    1    1    2    0    0 -0.86293011773E+03 -0.53479722945E+02  0.50988608951E+03  0.10037391559E+04  0.00000000000E+00 0. -1.
<mgrwt>
<rscale>  0 0.22151315E+04</rscale>
<asrwt>0</asrwt>
<pdfrwt beam="1">  1        2 0.14373919E+00 0.22151315E+04</pdfrwt>
<pdfrwt beam="2">  1       -2 0.20199338E+00 0.22151315E+04</pdfrwt>
<totfact> 0.32751744E+00</totfact>
</mgrwt>
</event>
<event>
 6    1  0.2236204E-005  0.2501425E+04  0.7818608E-02  0.8402478E-01
         -2   -1    0    0    0  501 -0.00000000000E+00  0.00000000000E+00  0.90099724003E+03  0.90099724003E+03  0.00000000000E+00 0.  1.
          2   -1    0    0  501    0  0.00000000000E+00 -0.00000000000E+00 -0.17361667810E+04  0.17361667810E+04  0.00000000000E+00 0. -1.
         23    2    1    2    0    0 -0.72330816482E+03 -0.60545439233E+03  0.44512793070E+03  0.10469089036E+04  0.90164601208E+02 0.  0.
         13    1    3    3    0    0 -0.55818592696E+03 -0.41727612315E+03  0.31585892128E+03  0.76515210916E+03  0.00000000000E+00 0. -1.
        -13    1    3    3    0    0 -0.16512223786E+03 -0.18817826919E+03  0.12926900942E+03  0.28175679446E+03  0.00000000000E+00 0.  1.
         22    1    1    2    0    0  0.72330816482E+03  0.60545439233E+03 -0.12802974717E+04  0.15902551174E+04  0.00000000000E+00 0. -1.
<mgrwt>
<rscale>  0 0.25014248E+04</rscale>
<asrwt>0</asrwt>
<pdfrwt beam="1">  1        2 0.26710258E+00 0.25014248E+04</pdfrwt>
<pdfrwt beam="2">  1       -2 0.13861496E+00 0.25014248E+04</pdfrwt>
<totfact> 0.30777402E+00</totfact>
</mgrwt>
</event>
<event>
 6    1  0.2236204E-005  0.1678217E+04  0.7818608E-02  0.8773886E-01
          1   -1    0    0  501    0  0.00000000000E+00  0.00000000000E+00  0.42403936420E+04  0.42403936420E+04  0.00000000000E+00 0. -1.
         -1   -1    0    0    0  501 -0.00000000000E+00 -0.00000000000E+00 -0.16604670203E+03  0.16604670203E+03  0.00000000000E+00 0.  1.
         23    2    1    2    0    0  0.56525972040E+03 -0.61526074402E+03  0.19498619909E+04  0.21235692059E+04  0.97570763662E+02 0.  0.
         11    1    3    3    0    0  0.38713269835E+03 -0.35353550532E+03  0.12439253577E+04  0.13498923569E+04  0.00000000000E+00 0. -1.
        -11    1    3    3    0    0  0.17812702204E+03 -0.26172523870E+03  0.70593663321E+03  0.77367684899E+03  0.00000000000E+00 0.  1.
         22    1    1    2    0    0 -0.56525972040E+03  0.61526074402E+03  0.21244849491E+04  0.22828711382E+04  0.00000000000E+00 0.  1.
<mgrwt>
<rscale>  0 0.16782174E+04</rscale>
<asrwt>0</asrwt>
<pdfrwt beam="1">  1        1 0.65236817E+00 0.16782174E+04</pdfrwt>
<pdfrwt beam="2">  1       -1 0.25545650E-01 0.16782174E+04</pdfrwt>
<totfact> 0.75949645E-01</totfact>
</mgrwt>
</event>
<event>
 6    1  0.2236204E-005  0.2183746E+04  0.7818608E-02  0.8525224E-01
          2   -1    0    0  501    0  0.00000000000E+00  0.00000000000E+00  0.20255209003E+04  0.20255209003E+04  0.00000000000E+00 0. -1.
         -2   -1    0    0    0  501 -0.00000000000E+00 -0.00000000000E+00 -0.58858253175E+03  0.58858253175E+03  0.00000000000E+00 0.  1.
         23    2    1    2    0    0 -0.16280305118E+03 -0.10148036183E+04  0.11542993727E+04  0.15481690911E+04  0.89940400152E+02 0.  0.
         13    1    3    3    0    0 -0.12493795925E+03 -0.49490100676E+03  0.57068560282E+03  0.76564910855E+03  0.00000000000E+00 0. -1.
        -13    1    3    3    0    0 -0.37865091933E+02 -0.51990261156E+03  0.58361376991E+03  0.78251998257E+03  0.00000000000E+00 0.  1.
         22    1    1    2    0    0  0.16280305118E+03  0.10148036183E+04  0.28263899583E+03  0.10659343409E+04  0.00000000000E+00 0.  1.
<mgrwt>
<rscale>  0 0.21837456E+04</rscale>
<asrwt>0</asrwt>
<pdfrwt beam="1">  1        2 0.31161860E+00 0.21837456E+04</pdfrwt>
<pdfrwt beam="2">  1       -2 0.90551160E-01 0.21837456E+04</pdfrwt>
<totfact> 0.61661603E+00</totfact>
</mgrwt>
</event>
<event>
 6    1  0.2236204E-005  0.1446551E+04  0.7818608E-02  0.8920795E-01
          2   -1    0    0  501    0  0.00000000000E+00  0.00000000000E+00  0.17882847403E+04  0.17882847403E+04  0.00000000000E+00 0.  1.
         -2   -1    0    0    0  501 -0.00000000000E+00 -0.00000000000E+00 -0.29253041307E+03  0.29253041307E+03  0.00000000000E+00 0. -1.
         23    2    1    2    0    0  0.12547249376E+03  0.31280541618E+03  0.16667419309E+04  0.17028901137E+04  0.90639394365E+02 0.  0.
         13    1    3    3    0    0  0.89436678338E+02  0.27083566000E+03  0.12287542672E+04  0.12614229755E+04  0.00000000000E+00 0.  1.
        -13    1    3    3    0    0  0.36035815420E+02  0.41969756177E+02  0.43798766376E+03  0.44146713811E+03  0.00000000000E+00 0. -1.
         22    1    1    2    0    0 -0.12547249376E+03 -0.31280541618E+03 -0.17098760364E+03  0.37792503976E+03  0.00000000000E+00 0. -1.
<mgrwt>
<rscale>  0 0.14465513E+04</rscale>
<asrwt>0</asrwt>
<pdfrwt beam="1">  1        2 0.27512072E+00 0.14465513E+04</pdfrwt>
<pdfrwt beam="2">  1       -2 0.45004680E-01 0.14465513E+04</pdfrwt>
<totfact> 0.39781655E+01</totfact>
</mgrwt>
</event>
<event>
 6    1  0.2236204E-005  0.1910379E+04  0.7818608E-02  0.8649707E-01
         -2   -1    0    0    0  501 -0.00000000000E+00  0.00000000000E+00  0.31482278521E+03  0.31482278521E+03  0.00000000000E+00 0.  1.
          2   -1    0    0  501    0  0.00000000000E+00 -0.00000000000E+00 -0.28980977593E+04  0.28980977593E+04  0.00000000000E+00 0. -1.
         23    2    1    2    0    0  0.12782818321E+03 -0.55326836022E+03 -0.25817362973E+04  0.26450752395E+04  0.92815898126E+02 0.  0.
         13    1    3    3    0    0  0.89097887671E+01 -0.23872307391E+03 -0.10368116053E+04  0.10639766892E+04  0.00000000000E+00 0. -1.
        -13    1    3    3    0    0  0.11891839444E+03 -0.31454528631E+03 -0.15449246921E+04  0.15810985503E+04  0.00000000000E+00 0.  1.
         22    1    1    2    0    0 -0.12782818321E+03  0.55326836022E+03 -0.15386767342E+01  0.56784530496E+03  0.00000000000E+00 0.  1.
<mgrwt>
<rscale>  0 0.19103792E+04</rscale>
<asrwt>0</asrwt>
<pdfrwt beam="1">  1        2 0.44586118E+00 0.19103792E+04</pdfrwt>
<pdfrwt beam="2">  1       -2 0.48434276E-01 0.19103792E+04</pdfrwt>
<totfact> 0.76299661E+00</totfact>
</mgrwt>
</event>
<event>
 6    1  0.2236204E-005  0.3402405E+04  0.7818608E-02  0.8137316E-01
         -2   -1    0    0    0  501 -0.00000000000E+00  0.00000000000E+00  0.86973566030E+03  0.86973566030E+03  0.00000000000E+00 0.  1.
          2   -1    0    0  501    0  0.00000000000E+00 -0.00000000000E+00 -0.33275503770E+04  0.33275503770E+04  0.00000000000E+00 0. -1.
         23    2    1    2    0    0 -0.24524225689E+03  0.16347144816E+04 -0.74025297670E+03  0.18134962958E+04  0.91428357920E+02 0.  0.
         13    1    3    3    0    0 -0.88943509951E+02  0.89635831826E+03 -0.39533283356E+03  0.98369570090E+03  0.00000000000E+00 0.  1.
        -13    1    3    3    0    0 -0.15629874694E+03  0.73835616331E+03 -0.34492014315E+03  0.82980059493E+03  0.00000000000E+00 0. -1.
         22    1    1    2    0    0  0.24524225689E+03 -0.16347144816E+04 -0.17175617400E+04  0.23837897415E+04  0.00000000000E+00 0. -1.
<mgrwt>
<rscale>  0 0.34024046E+04</rscale>
<asrwt>0</asrwt>
<pdfrwt beam="1">  1        2 0.51193083E+00 0.34024046E+04</pdfrwt>
<pdfrwt beam="2">  1       -2 0.13380549E+00 0.34024046E+04</pdfrwt>
<totfact> 0.35639895E-01</totfact>
</mgrwt>
</event>
<event>
 6    1  0.2236204E-005  0.3140925E+04  0.7818608E-02  0.8204595E-01
          2   -1    0    0  501    0  0.00000000000E+00  0.00000000000E+00  0.25897559081E+04  0.25897559081E+04  0.00000000000E+00 0. -1.
         -2   -1    0    0    0  501 -0.00000000000E+00 -0.00000000000E+00 -0.95234944289E+03  0.95234944289E+03  0.00000000000E+00 0.  1.
         23    2    1    2    0    0  0.71817187692E+01  0.15628523494E+04  0.97700392969E+03  0.18454349198E+04  0.92381390466E+02 0.  0.
         13    1    3    3    0    0 -0.91636357752E+01  0.70681919443E+03  0.38980211980E+03  0.80723171297E+03  0.00000000000E+00 0. -1.
        -13    1    3    3    0    0  0.16345354544E+02  0.85603315500E+03  0.58720180989E+03  0.10382032068E+04  0.00000000000E+00 0.  1.
         22    1    1    2    0    0 -0.71817187692E+01 -0.15628523494E+04  0.66040253548E+03  0.16966704312E+04  0.00000000000E+00 0.  1.
<mgrwt>
<rscale>  0 0.31409251E+04</rscale>
<asrwt>0</asrwt>
<pdfrwt beam="1">  1        2 0.39842398E+00 0.31409251E+04</pdfrwt>
<pdfrwt beam="2">  1       -2 0.14651530E+00 0.31409251E+04</pdfrwt>
<totfact> 0.83224453E-01</totfact>
</mgrwt>
</event>
<event>
 6    1  0.2236204E-005  0.2107619E+04  0.7818608E-02  0.8557895E-01
          2   -1    0    0  501    0  0.00000000000E+00  0.00000000000E+00  0.33813326100E+04  0.33813326100E+04  0.00000000000E+00 0. -1.
         -2   -1    0    0    0  501 -0.00000000000E+00 -0.00000000000E+00 -0.32842506881E+03  0.32842506881E+03  0.00000000000E+00 0.  1.
         23    2    1    2    0    0 -0.73859319263E+03  0.22697014971E+03  0.27855325393E+04  0.28921240538E+04  0.90303167918E+02 0.  0.
         13    1    3    3    0    0 -0.41184018762E+03  0.14400069168E+03  0.14147561348E+04  0.14805010842E+04  0.00000000000E+00 0.  1.
        -13    1    3    3    0    0 -0.32675300501E+03  0.82969458029E+02  0.13707764045E+04  0.14116229696E+04  0.00000000000E+00 0. -1.
         22    1    1    2    0    0  0.73859319263E+03 -0.22697014971E+03  0.26737500188E+03  0.81763362498E+03  0.00000000000E+00 0.  1.
<mgrwt>
<rscale>  0 0.21076189E+04</rscale>
<asrwt>0</asrwt>
<pdfrwt beam="1">  1        2 0.52020499E+00 0.21076189E+04</pdfrwt>
<pdfrwt beam="2">  1       -2 0.50526936E-01 0.21076189E+04</pdfrwt>
<totfact> 0.33614425E+00</totfact>
</mgrwt>
</event>
<event>
 6    1  0.2236204E-005  0.4135893E+04  0.7818608E-02  0.7977680E-01
          2   -1    0    0  501    0  0.00000000000E+00  0.00000000000E+00  0.15363624210E+04  0.15363624210E+04  0.00000000000E+00 0. -1.
         -2   -1    0    0    0  501 -0.00000000000E+00 -0.00000000000E+00 -0.27834589287E+04  0.27834589287E+04  0.00000000000E+00 0.  1.
         23    2    1    2    0    0 -0.77392648959E+03 -0.13746820686E+04 -0.20187324375E+04  0.25636507973E+04  0.91168830119E+02 0.  0.
         11    1    3    3    0    0 -0.38358606398E+03 -0.76337815861E+03 -0.10575594062E+04  0.13595279987E+04  0.00000000000E+00 0.  1.
        -11    1    3    3    0    0 -0.39034042561E+03 -0.61130390995E+03 -0.96117303127E+03  0.12041227987E+04  0.00000000000E+00 0. -1.
         22    1    1    2    0    0  0.77392648959E+03  0.13746820686E+04  0.77163592977E+03  0.17561705524E+04  0.00000000000E+00 0. -1.
<mgrwt>
<rscale>  0 0.41358925E+04</rscale>
<asrwt>0</asrwt>
<pdfrwt beam="1">  1        2 0.23636345E+00 0.41358925E+04</pdfrwt>
<pdfrwt beam="2">  1       -2 0.42822445E+00 0.41358925E+04</pdfrwt>
<totfact> 0.45701107E-02</totfact>
</mgrwt>
</event>
<event>
 6    1  0.2236204E-005  0.5222581E+04  0.7818608E-02  0.7795060E-01
         -2   -1    0    0    0  501 -0.00000000000E+00  0.00000000000E+00  0.17600767586E+04  0.17600767586E+04  0.00000000000E+00 0. -1.
          2   -1    0    0  501    0  0.00000000000E+00 -0.00000000000E+00 -0.38741702795E+04  0.38741702795E+04  0.00000000000E+00 0.  1.
         23    2    1    2    0    0 -0.16612492767E+04  0.19505110431E+04 -0.15973360482E+04  0.30205751432E+04  0.90273229623E+02 0.  0.
         13    1    3    3    0    0 -0.79559073972E+03  0.99255927533E+03 -0.82162180794E+03  0.15143318446E+04  0.00000000000E+00 0.  1.
        -13    1    3    3    0    0 -0.86565853700E+03  0.95795176778E+03 -0.77571424029E+03  0.15062432986E+04  0.00000000000E+00 0. -1.
         22    1    1    2    0    0  0.16612492767E+04 -0.19505110431E+04 -0.51675747259E+03  0.26136718949E+04  0.00000000000E+00 0.  1.
<mgrwt>
<rscale>  0 0.52225806E+04</rscale>
<asrwt>0</asrwt>
<pdfrwt beam="1">  1        2 0.59602619E+00 0.52225806E+04</pdfrwt>
<pdfrwt beam="2">  1       -2 0.27078104E+00 0.52225806E+04</pdfrwt>
<totfact> 0.14707646E-02</totfact>
</mgrwt>
</event>
<event>
 6    1  0.2236204E-005  0.3154745E+04  0.7818608E-02  0.8200872E-01
         -2   -1    0    0    0  501 -0.00000000000E+00  0.00000000000E+00  0.21972479320E+04  0.21972479320E+04  0.00000000000E+00 0.  1.
          2   -1    0    0  501    0  0.00000000000E+00 -0.00000000000E+00 -0.11323726926E+04  0.11323726926E+04  0.00000000000E+00 0. -1.
         23    2    1    2    0    0  0.47160591835E+03  0.12979134443E+03  0.21142282544E+04  0.21718643094E+04  0.88178973100E+02 0.  0.
         13    1    3    3    0    0  0.26298820562E+03  0.11402898267E+03  0.12948877463E+04  0.13262351528E+04  0.00000000000E+00 0.  1.
        -13    1    3    3    0    0  0.20861771274E+03  0.15762361768E+02  0.81934050816E+03  0.84562915656E+03  0.00000000000E+00 0. -1.
         22    1    1    2    0    0 -0.47160591835E+03 -0.12979134443E+03 -0.10493530150E+04  0.11577563152E+04  0.00000000000E+00 0. -1.
<mgrwt>
<rscale>  0 0.31547447E+04</rscale>
<asrwt>0</asrwt>
<pdfrwt beam="1">  1        2 0.17421118E+00 0.31547447E+04</pdfrwt>
<pdfrwt beam="2">  1       -2 0.33803814E+00 0.31547447E+04</pdfrwt>
<totfact> 0.32524473E-01</totfact>
</mgrwt>
</event>
<event>
 6    1  0.2236204E-005  0.1223696E+04  0.7818608E-02  0.9092365E-01
          2   -1    0    0  501    0  0.00000000000E+00  0.00000000000E+00  0.12637636989E+04  0.12637636989E+04  0.00000000000E+00 0. -1.
         -2   -1    0    0    0  501 -0.00000000000E+00 -0.00000000000E+00 -0.29622453463E+03  0.29622453463E+03  0.00000000000E+00 0.  1.
         23    2    1    2    0    0  0.33011574438E+03 -0.41183570907E+03  0.87363696401E+03  0.10238887286E+04  0.80755976973E+02 0.  0.
         11    1    3    3    0    0  0.23810573736E+03 -0.28651035144E+03  0.68201286203E+03  0.77712551600E+03  0.00000000000E+00 0. -1.
        -11    1    3    3    0    0  0.92010007015E+02 -0.12532535763E+03  0.19162410198E+03  0.24676321265E+03  0.00000000000E+00 0.  1.
         22    1    1    2    0    0 -0.33011574438E+03  0.41183570907E+03  0.93902200284E+02  0.53609950491E+03  0.00000000000E+00 0.  1.
<mgrwt>
<rscale>  0 0.12236957E+04</rscale>
<asrwt>0</asrwt>
<pdfrwt beam="1">  1        2 0.19442518E+00 0.12236957E+04</pdfrwt>
<pdfrwt beam="2">  1       -2 0.45573006E-01 0.12236957E+04</pdfrwt>
<totfact> 0.78058530E+01</totfact>
</mgrwt>
</event>
<event>
 6    1  0.2236204E-005  0.1422131E+04  0.7818608E-02  0.8937953E-01
          2   -1    0    0  501    0  0.00000000000E+00  0.00000000000E+00  0.19373690934E+04  0.19373690934E+04  0.00000000000E+00 0. -1.
         -2   -1    0    0    0  501 -0.00000000000E+00 -0.00000000000E+00 -0.26097972046E+03  0.26097972046E+03  0.00000000000E+00 0.  1.
         23    2    1    2    0    0 -0.19094571543E+03  0.65517213025E+03  0.11339382532E+04  0.13265896707E+04  0.91177879191E+02 0.  0.
         11    1    3    3    0    0 -0.95571073756E+02  0.19106414146E+03  0.31907840411E+03  0.38399266173E+03  0.00000000000E+00 0.  1.
        -11    1    3    3    0    0 -0.95374641677E+02  0.46410798880E+03  0.81485984913E+03  0.94259700894E+03  0.00000000000E+00 0. -1.
         22    1    1    2    0    0  0.19094571543E+03 -0.65517213025E+03  0.54245111975E+03  0.87175914324E+03  0.00000000000E+00 0.  1.
<mgrwt>
<rscale>  0 0.14221309E+04</rscale>
<asrwt>0</asrwt>
<pdfrwt beam="1">  1        2 0.29805677E+00 0.14221309E+04</pdfrwt>
<pdfrwt beam="2">  1       -2 0.40150727E-01 0.14221309E+04</pdfrwt>
<totfact> 0.41313256E+01</totfact>
</mgrwt>
</event>
<event>
 6    1  0.2236204E-005  0.3067004E+04  0.7818608E-02  0.8224852E-01
          2   -1    0    0  501    0  0.00000000000E+00  0.00000000000E+00  0.16157289436E+04  0.16157289436E+04  0.00000000000E+00 0. -1.
         -2   -1    0    0    0  501 -0.00000000000E+00 -0.00000000000E+00 -0.14554593354E+04  0.14554593354E+04  0.00000000000E+00 0.  1.
         23    2    1    2    0    0  0.21072305485E+03  0.11280693865E+04 -0.93634358793E+03  0.14838933320E+04  0.90859009603E+02 0.  0.
         11    1    3    3    0    0  0.83982077140E+02  0.26284255464E+03 -0.24824472499E+03  0.37116659508E+03  0.00000000000E+00 0.  1.
        -11    1    3    3    0    0  0.12674097771E+03  0.86522683183E+03 -0.68809886294E+03  0.11127267369E+04  0.00000000000E+00 0. -1.
         22    1    1    2    0    0 -0.21072305485E+03 -0.11280693865E+04  0.10966131962E+04  0.15872949469E+04  0.00000000000E+00 0. -1.
<mgrwt>
<rscale>  0 0.30670036E+04</rscale>
<asrwt>0</asrwt>
<pdfrwt beam="1">  1        2 0.24857368E+00 0.30670036E+04</pdfrwt>
<pdfrwt beam="2">  1       -2 0.22391682E+00 0.30670036E+04</pdfrwt>
<totfact> 0.86861693E-01</totfact>
</mgrwt>
</event>
<event>
 6    1  0.2236204E-005  0.1994586E+04  0.7818608E-02  0.8609156E-01
          1   -1    0    0  501    0  0.00000000000E+00  0.00000000000E+00  0.20867256096E+04  0.20867256096E+04  0.00000000000E+00 0. -1.
         -1   -1    0    0    0  501 -0.00000000000E+00 -0.00000000000E+00 -0.47662862083E+03  0.47662862083E+03  0.00000000000E+00 0.  1.
         23    2    1    2    0    0 -0.47680267850E+03 -0.86710302061E+03  0.94297999186E+03  0.13699332946E+04  0.91090745584E+02 0.  0.
         11    1    3    3    0    0 -0.45235113518E+02 -0.12654634119E+03  0.97979269228E+02  0.16631334631E+03  0.00000000000E+00 0.  1.
        -11    1    3    3    0    0 -0.43156756498E+03 -0.74055667942E+03  0.84500072263E+03  0.12036199483E+04  0.00000000000E+00 0. -1.
         22    1    1    2    0    0  0.47680267850E+03  0.86710302061E+03  0.66711699688E+03  0.11934209358E+04  0.00000000000E+00 0. -1.
<mgrwt>
<rscale>  0 0.19945858E+04</rscale>
<asrwt>0</asrwt>
<pdfrwt beam="1">  1        1 0.32103470E+00 0.19945858E+04</pdfrwt>
<pdfrwt beam="2">  1       -1 0.73327481E-01 0.19945858E+04</pdfrwt>
<totfact> 0.45256684E+00</totfact>
</mgrwt>
</event>
<event>
 6    1  0.2236204E-005  0.3901348E+04  0.7818608E-02  0.8024749E-01
          2   -1    0    0  501    0  0.00000000000E+00  0.00000000000E+00  0.35993230828E+04  0.35993230828E+04  0.00000000000E+00 0. -1.
         -2   -1    0    0    0  501 -0.00000000000E+00 -0.00000000000E+00 -0.10571791946E+04  0.10571791946E+04  0.00000000000E+00 0.  1.
         23    2    1    2    0    0  0.95237504679E+03 -0.29414925500E+03  0.32716376287E+04  0.34213087171E+04  0.90545844025E+02 0.  0.
         11    1    3    3    0    0  0.13657452975E+03 -0.63000803076E+02  0.58622688069E+03  0.60521373003E+03  0.00000000000E+00 0.  1.
        -11    1    3    3    0    0  0.81580051705E+03 -0.23114845193E+03  0.26854107481E+04  0.28160949871E+04  0.00000000000E+00 0. -1.
         22    1    1    2    0    0 -0.95237504679E+03  0.29414925500E+03 -0.72949374057E+03  0.12351935603E+04  0.00000000000E+00 0.  1.
<mgrwt>
<rscale>  0 0.39013482E+04</rscale>
<asrwt>0</asrwt>
<pdfrwt beam="1">  1        2 0.55374201E+00 0.39013482E+04</pdfrwt>
<pdfrwt beam="2">  1       -2 0.16264295E+00 0.39013482E+04</pdfrwt>
<totfact> 0.13209888E-01</totfact>
</mgrwt>
</event>
<event>
 6    1  0.2236204E-005  0.3329611E+04  0.7818608E-02  0.8155402E-01
         -2   -1    0    0    0  501 -0.00000000000E+00  0.00000000000E+00  0.13346763766E+04  0.13346763766E+04  0.00000000000E+00 0.  1.
          2   -1    0    0  501    0  0.00000000000E+00 -0.00000000000E+00 -0.20765912066E+04  0.20765912066E+04  0.00000000000E+00 0. -1.
         23    2    1    2    0    0  0.22565441454E+03 -0.11373807937E+04  0.85082582895E+03  0.14411463200E+04  0.91886559897E+02 0.  0.
         13    1    3    3    0    0  0.18301735911E+03 -0.70093063847E+03  0.54373759858E+03  0.90578677943E+03  0.00000000000E+00 0.  1.
        -13    1    3    3    0    0  0.42637055440E+02 -0.43645015521E+03  0.30708823036E+03  0.53535954059E+03  0.00000000000E+00 0. -1.
         22    1    1    2    0    0 -0.22565441454E+03  0.11373807937E+04 -0.15927406590E+04  0.19701212631E+04  0.00000000000E+00 0. -1.
<mgrwt>
<rscale>  0 0.33296109E+04</rscale>
<asrwt>0</asrwt>
<pdfrwt beam="1">  1        2 0.31947557E+00 0.33296109E+04</pdfrwt>
<pdfrwt beam="2">  1       -2 0.20533483E+00 0.33296109E+04</pdfrwt>
<totfact> 0.61933502E-01</totfact>
</mgrwt>
</event>
<event>
 6    1  0.2236204E-005  0.8678672E+03  0.7818608E-02  0.9466665E-01
         -2   -1    0    0    0  501 -0.00000000000E+00  0.00000000000E+00  0.26754055060E+03  0.26754055060E+03  0.00000000000E+00 0.  1.
          2   -1    0    0  501    0  0.00000000000E+00 -0.00000000000E+00 -0.70381247109E+03  0.70381247109E+03  0.00000000000E+00 0. -1.
         23    2    1    2    0    0  0.19269855220E+03  0.64748163641E+02  0.20225788655E+03  0.30124454451E+03  0.92276574559E+02 0.  0.
         11    1    3    3    0    0  0.18516122834E+03  0.32408306910E+02  0.18532320961E+03  0.26396907178E+03  0.00000000000E+00 0. -1.
        -11    1    3    3    0    0  0.75373238609E+01  0.32339856731E+02  0.16934676940E+02  0.37275472732E+02  0.00000000000E+00 0.  1.
         22    1    1    2    0    0 -0.19269855220E+03 -0.64748163641E+02 -0.63852980703E+03  0.67010847718E+03  0.00000000000E+00 0. -1.
<mgrwt>
<rscale>  0 0.86786722E+03</rscale>
<asrwt>0</asrwt>
<pdfrwt beam="1">  1        2 0.10827884E+00 0.86786722E+03</pdfrwt>
<pdfrwt beam="2">  1       -2 0.41160084E-01 0.86786722E+03</pdfrwt>
<totfact> 0.22836114E+02</totfact>
</mgrwt>
</event>
<event>
 6    1  0.2236204E-005  0.1674588E+04  0.7818608E-02  0.8775992E-01
         -2   -1    0    0    0  501 -0.00000000000E+00  0.00000000000E+00  0.47416071512E+03  0.47416071512E+03  0.00000000000E+00 0.  1.
          2   -1    0    0  501    0  0.00000000000E+00 -0.00000000000E+00 -0.14785304793E+04  0.14785304793E+04  0.00000000000E+00 0. -1.
         23    2    1    2    0    0  0.60413642803E+03 -0.29361971322E+03  0.74752178933E+02  0.68159028271E+03  0.88227351608E+02 0.  0.
         13    1    3    3    0    0  0.42811611078E+03 -0.25100715880E+03  0.49585450307E+02  0.49874514029E+03  0.00000000000E+00 0. -1.
        -13    1    3    3    0    0  0.17602031725E+03 -0.42612554415E+02  0.25166728626E+02  0.18284514242E+03  0.00000000000E+00 0.  1.
         22    1    1    2    0    0 -0.60413642803E+03  0.29361971322E+03 -0.10791219431E+04  0.12711009117E+04  0.00000000000E+00 0. -1.
<mgrwt>
<rscale>  0 0.16745878E+04</rscale>
<asrwt>0</asrwt>
<pdfrwt beam="1">  1        2 0.22746622E+00 0.16745878E+04</pdfrwt>
<pdfrwt beam="2">  1       -2 0.72947804E-01 0.16745878E+04</pdfrwt>
<totfact> 0.21131591E+01</totfact>
</mgrwt>
</event>
<event>
 6    1  0.2236204E-005  0.2286694E+04  0.7818608E-02  0.8483186E-01
          2   -1    0    0  501    0  0.00000000000E+00  0.00000000000E+00  0.96557987773E+03  0.96557987773E+03  0.00000000000E+00 0. -1.
         -2   -1    0    0    0  501 -0.00000000000E+00 -0.00000000000E+00 -0.13538419464E+04  0.13538419464E+04  0.00000000000E+00 0.  1.
         23    2    1    2    0    0  0.94772873832E+03  0.35641799853E+03  0.34032232851E+03  0.10720009750E+04  0.90239968769E+02 0.  0.
         11    1    3    3    0    0  0.42312667589E+03  0.12863476711E+03  0.11215877386E+03  0.45624848242E+03  0.00000000000E+00 0. -1.
        -11    1    3    3    0    0  0.52460206243E+03  0.22778323142E+03  0.22816355464E+03  0.61575249256E+03  0.00000000000E+00 0.  1.
         22    1    1    2    0    0 -0.94772873832E+03 -0.35641799853E+03 -0.72858439718E+03  0.12474208492E+04  0.00000000000E+00 0.  1.
<mgrwt>
<rscale>  0 0.22866942E+04</rscale>
<asrwt>0</asrwt>
<pdfrwt beam="1">  1        2 0.14855075E+00 0.22866942E+04</pdfrwt>
<pdfrwt beam="2">  1       -2 0.20828338E+00 0.22866942E+04</pdfrwt>
<totfact> 0.28263185E+00</totfact>
</mgrwt>
</event>
<event>
 6    1  0.2236204E-005  0.2940148E+04  0.7818608E-02  0.8261031E-01
          2   -1    0    0  501    0  0.00000000000E+00  0.00000000000E+00  0.91243879479E+03  0.91243879479E+03  0.00000000000E+00 0. -1.
         -2   -1    0    0    0  501 -0.00000000000E+00 -0.00000000000E+00 -0.23685073369E+04  0.23685073369E+04  0.00000000000E+00 0.  1.
         23    2    1    2    0    0  0.68260185421E+03  0.47468080776E+02 -0.21788330396E+04  0.22856637452E+04  0.93524497327E+02 0.  0.
         11    1    3    3    0    0  0.37754692988E+03  0.18050660643E+02 -0.13527423205E+04  0.14045566191E+04  0.00000000000E+00 0.  1.
        -11    1    3    3    0    0  0.30505492433E+03  0.29417420133E+02 -0.82609071915E+03  0.88110712613E+03  0.00000000000E+00 0. -1.
         22    1    1    2    0    0 -0.68260185421E+03 -0.47468080776E+02  0.72276449748E+03  0.99528238650E+03  0.00000000000E+00 0. -1.
<mgrwt>
<rscale>  0 0.29401483E+04</rscale>
<asrwt>0</asrwt>
<pdfrwt beam="1">  1        2 0.14037520E+00 0.29401483E+04</pdfrwt>
<pdfrwt beam="2">  1       -2 0.36438574E+00 0.29401483E+04</pdfrwt>
<totfact> 0.31188025E-01</totfact>
</mgrwt>
</event>
<event>
 6    1  0.2236204E-005  0.6435690E+04  0.7818608E-02  0.7638610E-01
          2   -1    0    0  501    0  0.00000000000E+00  0.00000000000E+00  0.24976401513E+04  0.24976401513E+04  0.00000000000E+00 0.  1.
         -2   -1    0    0    0  501 -0.00000000000E+00 -0.00000000000E+00 -0.41457238726E+04  0.41457238726E+04  0.00000000000E+00 0. -1.
         23    2    1    2    0    0  0.91899408333E+03  0.50776343340E+03  0.23149760469E+04  0.25435815229E+04  0.91208751862E+02 0.  0.
         11    1    3    3    0    0  0.23763979075E+03  0.17804093272E+03  0.64594819062E+03  0.71092918694E+03  0.00000000000E+00 0. -1.
        -11    1    3    3    0    0  0.68135429258E+03  0.32972250068E+03  0.16690278562E+04  0.18326523359E+04  0.00000000000E+00 0.  1.
         22    1    1    2    0    0 -0.91899408333E+03 -0.50776343340E+03 -0.39630597681E+04  0.40997825010E+04  0.00000000000E+00 0. -1.
<mgrwt>
<rscale>  0 0.64356900E+04</rscale>
<asrwt>0</asrwt>
<pdfrwt beam="1">  1        2 0.38425233E+00 0.64356900E+04</pdfrwt>
<pdfrwt beam="2">  1       -2 0.63780367E+00 0.64356900E+04</pdfrwt>
<totfact> 0.86143331E-04</totfact>
</mgrwt>
</event>
<event>
 6    1  0.2236204E-005  0.4723507E+04  0.7818608E-02  0.7872634E-01
         -1   -1    0    0    0  501 -0.00000000000E+00  0.00000000000E+00  0.12930865496E+04  0.12930865496E+04  0.00000000000E+00 0.  1.
          1   -1    0    0  501    0  0.00000000000E+00 -0.00000000000E+00 -0.43136165744E+04  0.43136165744E+04  0.00000000000E+00 0. -1.
         23    2    1    2    0    0 -0.18176040528E+04 -0.38992940475E+02  0.27695880139E+03  0.18412499639E+04  0.91051136850E+02 0.  0.
         11    1    3    3    0    0 -0.83682105407E+03  0.26686544010E+02  0.13570691024E+03  0.84817333939E+03  0.00000000000E+00 0. -1.
        -11    1    3    3    0    0 -0.98078299875E+03 -0.65679484485E+02  0.14125189115E+03  0.99307662448E+03  0.00000000000E+00 0.  1.
         22    1    1    2    0    0  0.18176040528E+04  0.38992940475E+02 -0.32974888262E+04  0.37654531601E+04  0.00000000000E+00 0. -1.
<mgrwt>
<rscale>  0 0.47235070E+04</rscale>
<asrwt>0</asrwt>
<pdfrwt beam="1">  1        1 0.66363332E+00 0.47235070E+04</pdfrwt>
<pdfrwt beam="2">  1       -1 0.19893639E+00 0.47235070E+04</pdfrwt>
<totfact> 0.55450277E-03</totfact>
</mgrwt>
</event>
<event>
 6    1  0.2236204E-005  0.1214750E+04  0.7818608E-02  0.9100043E-01
          1   -1    0    0  501    0  0.00000000000E+00  0.00000000000E+00  0.22199858701E+04  0.22199858701E+04  0.00000000000E+00 0. -1.
         -1   -1    0    0    0  501 -0.00000000000E+00 -0.00000000000E+00 -0.16617416880E+03  0.16617416880E+03  0.00000000000E+00 0.  1.
         23    2    1    2    0    0  0.39894156265E+03 -0.20499944723E+03  0.18271023831E+04  0.18835903833E+04  0.91817591095E+02 0.  0.
         13    1    3    3    0    0  0.71573400989E+02 -0.15116250132E+00  0.27305261902E+03  0.28227735888E+03  0.00000000000E+00 0. -1.
        -13    1    3    3    0    0  0.32736816166E+03 -0.20484828473E+03  0.15540497641E+04  0.16013130244E+04  0.00000000000E+00 0.  1.
         22    1    1    2    0    0 -0.39894156265E+03  0.20499944723E+03  0.22670931825E+03  0.50256965562E+03  0.00000000000E+00 0. -1.
<mgrwt>
<rscale>  0 0.12147499E+04</rscale>
<asrwt>0</asrwt>
<pdfrwt beam="1">  1        1 0.34153627E+00 0.12147499E+04</pdfrwt>
<pdfrwt beam="2">  1       -1 0.25565258E-01 0.12147499E+04</pdfrwt>
<totfact> 0.28229062E+01</totfact>
</mgrwt>
</event>
<event>
 6    1  0.2236204E-005  0.4301871E+04  0.7818608E-02  0.7946272E-01
          2   -1    0    0  501    0  0.00000000000E+00  0.00000000000E+00  0.17805998029E+04  0.17805998029E+04  0.00000000000E+00 0.  1.
         -2   -1    0    0    0  501 -0.00000000000E+00 -0.00000000000E+00 -0.25982955573E+04  0.25982955573E+04  0.00000000000E+00 0. -1.
         23    2    1    2    0    0  0.17819520058E+04  0.89513095712E+03 -0.12266117537E+04  0.23432567195E+04  0.98301973059E+02 0.  0.
         13    1    3    3    0    0  0.35156052412E+03  0.22048105925E+03 -0.24655144723E+03  0.48269484743E+03  0.00000000000E+00 0.  1.
        -13    1    3    3    0    0  0.14303914816E+04  0.67464989787E+03 -0.98006030645E+03  0.18605618720E+04  0.00000000000E+00 0. -1.
         22    1    1    2    0    0 -0.17819520058E+04 -0.89513095712E+03  0.40891599929E+03  0.20356386407E+04  0.00000000000E+00 0.  1.
<mgrwt>
<rscale>  0 0.43018715E+04</rscale>
<asrwt>0</asrwt>
<pdfrwt beam="1">  1        2 0.27393843E+00 0.43018715E+04</pdfrwt>
<pdfrwt beam="2">  1       -2 0.39973778E+00 0.43018715E+04</pdfrwt>
<totfact> 0.50742194E-02</totfact>
</mgrwt>
</event>
<event>
 6    1  0.2236204E-005  0.4030089E+04  0.7818608E-02  0.7998504E-01
          2   -1    0    0  501    0  0.00000000000E+00  0.00000000000E+00  0.20068632240E+04  0.20068632240E+04  0.00000000000E+00 0. -1.
         -2   -1    0    0    0  501 -0.00000000000E+00 -0.00000000000E+00 -0.20232591682E+04  0.20232591682E+04  0.00000000000E+00 0.  1.
         23    2    1    2    0    0 -0.51843285853E+03 -0.70808853262E+03  0.18045754225E+04  0.20087123108E+04  0.90943352674E+02 0.  0.
         11    1    3    3    0    0 -0.19393060748E+03 -0.33355127960E+03  0.74525414071E+03  0.83920752551E+03  0.00000000000E+00 0.  1.
        -11    1    3    3    0    0 -0.32450225106E+03 -0.37453725302E+03  0.10593212818E+04  0.11695047853E+04  0.00000000000E+00 0. -1.
         22    1    1    2    0    0  0.51843285853E+03  0.70808853262E+03 -0.18209713667E+04  0.20214100814E+04  0.00000000000E+00 0.  1.
<mgrwt>
<rscale>  0 0.40300890E+04</rscale>
<asrwt>0</asrwt>
<pdfrwt beam="1">  1        2 0.30874819E+00 0.40300890E+04</pdfrwt>
<pdfrwt beam="2">  1       -2 0.31127064E+00 0.40300890E+04</pdfrwt>
<totfact> 0.14125543E-01</totfact>
</mgrwt>
</event>
<event>
 6    1  0.2236204E-005  0.1505030E+04  0.7818608E-02  0.8881115E-01
         -2   -1    0    0    0  501 -0.00000000000E+00  0.00000000000E+00  0.32882169099E+03  0.32882169099E+03  0.00000000000E+00 0.  1.
          2   -1    0    0  501    0  0.00000000000E+00 -0.00000000000E+00 -0.17221458605E+04  0.17221458605E+04  0.00000000000E+00 0. -1.
         23    2    1    2    0    0 -0.29269693959E+03  0.74837906178E+02  0.23589817404E+03  0.39397097474E+03  0.91065744288E+02 0.  0.
         13    1    3    3    0    0 -0.20395266739E+03  0.93033390454E+02  0.15521922225E+03  0.27266262896E+03  0.00000000000E+00 0. -1.
        -13    1    3    3    0    0 -0.88744272197E+02 -0.18195484276E+02  0.80678951792E+02  0.12130834579E+03  0.00000000000E+00 0.  1.
         22    1    1    2    0    0  0.29269693959E+03 -0.74837906178E+02 -0.16292223435E+04  0.16569965767E+04  0.00000000000E+00 0. -1.
<mgrwt>
<rscale>  0 0.15050301E+04</rscale>
<asrwt>0</asrwt>
<pdfrwt beam="1">  1        2 0.26494552E+00 0.15050301E+04</pdfrwt>
<pdfrwt beam="2">  1       -2 0.50587953E-01 0.15050301E+04</pdfrwt>
<totfact> 0.34013858E+01</totfact>
</mgrwt>
</event>
<event>
 6    1  0.2236204E-005  0.1652804E+04  0.7818608E-02  0.8788750E-01
          2   -1    0    0  501    0  0.00000000000E+00  0.00000000000E+00  0.20926384784E+04  0.20926384784E+04  0.00000000000E+00 0.  1.
         -2   -1    0    0    0  501 -0.00000000000E+00 -0.00000000000E+00 -0.32635355763E+03  0.32635355763E+03  0.00000000000E+00 0. -1.
         23    2    1    2    0    0  0.22703832203E+03 -0.74845545603E+03  0.12650718681E+04  0.14900429020E+04  0.89939141886E+02 0.  0.
         13    1    3    3    0    0  0.18029904112E+03 -0.50125741270E+03  0.79672265275E+03  0.95840165036E+03  0.00000000000E+00 0. -1.
        -13    1    3    3    0    0  0.46739280911E+02 -0.24719804333E+03  0.46834921532E+03  0.53164125169E+03  0.00000000000E+00 0.  1.
         22    1    1    2    0    0 -0.22703832203E+03  0.74845545603E+03  0.50121305271E+03  0.92894913399E+03  0.00000000000E+00 0. -1.
<mgrwt>
<rscale>  0 0.16528037E+04</rscale>
<asrwt>0</asrwt>
<pdfrwt beam="1">  1        2 0.32194437E+00 0.16528037E+04</pdfrwt>
<pdfrwt beam="2">  1       -2 0.50208241E-01 0.16528037E+04</pdfrwt>
<totfact> 0.21264450E+01</totfact>
</mgrwt>
</event>
<event>
 6    1  0.2236204E-005  0.2255238E+04  0.7818608E-02  0.8495782E-01
         -2   -1    0    0    0  501 -0.00000000000E+00  0.00000000000E+00  0.44474662207E+03  0.44474662207E+03  0.00000000000E+00 0.  1.
          2   -1    0    0  501    0  0.00000000000E+00 -0.00000000000E+00 -0.28589857058E+04  0.28589857058E+04  0.00000000000E+00 0. -1.
         23    2    1    2    0    0  0.38221262493E+03 -0.79580878406E+03 -0.18595081514E+03  0.90692889008E+03  0.92434812577E+02 0.  0.
         11    1    3    3    0    0  0.14208410512E+03 -0.20575178493E+03 -0.37834410577E+02  0.25288956592E+03  0.00000000000E+00 0.  1.
        -11    1    3    3    0    0  0.24012851981E+03 -0.59005699913E+03 -0.14811640456E+03  0.65403932416E+03  0.00000000000E+00 0. -1.
         22    1    1    2    0    0 -0.38221262493E+03  0.79580878406E+03 -0.22282882686E+04  0.23968034378E+04  0.00000000000E+00 0. -1.
<mgrwt>
<rscale>  0 0.22552377E+04</rscale>
<asrwt>0</asrwt>
<pdfrwt beam="1">  1        2 0.43984396E+00 0.22552377E+04</pdfrwt>
<pdfrwt beam="2">  1       -2 0.68422557E-01 0.22552377E+04</pdfrwt>
<totfact> 0.37869759E+00</totfact>
</mgrwt>
</event>
<event>
 6    1  0.2236204E-005  0.2177499E+04  0.7818608E-02  0.8527852E-01
         -2   -1    0    0    0  501 -0.00000000000E+00  0.00000000000E+00  0.10220659485E+04  0.10220659485E+04  0.00000000000E+00 0.  1.
          2   -1    0    0  501    0  0.00000000000E+00 -0.00000000000E+00 -0.11597841861E+04  0.11597841861E+04  0.00000000000E+00 0. -1.
         23    2    1    2    0    0 -0.51729315776E+03 -0.99000873133E+02  0.88372691211E+03  0.10326140501E+04  0.89023240008E+02 0.  0.
         13    1    3    3    0    0 -0.30948956117E+03 -0.99569624603E+02  0.57292018892E+03  0.65873776383E+03  0.00000000000E+00 0. -1.
        -13    1    3    3    0    0 -0.20780359659E+03  0.56875147021E+00  0.31080672319E+03  0.37387628624E+03  0.00000000000E+00 0.  1.
         22    1    1    2    0    0  0.51729315776E+03  0.99000873133E+02 -0.10214451497E+04  0.11492360845E+04  0.00000000000E+00 0. -1.
<mgrwt>
<rscale>  0 0.21774994E+04</rscale>
<asrwt>0</asrwt>
<pdfrwt beam="1">  1        2 0.17842834E+00 0.21774994E+04</pdfrwt>
<pdfrwt beam="2">  1       -2 0.15724092E+00 0.21774994E+04</pdfrwt>
<totfact> 0.48432212E+00</totfact>
</mgrwt>
</event>
<event>
 6    1  0.2236204E-005  0.1501165E+04  0.7818608E-02  0.8883679E-01
         -2   -1    0    0    0  501 -0.00000000000E+00  0.00000000000E+00  0.16078104717E+03  0.16078104717E+03  0.00000000000E+00 0.  1.
          2   -1    0    0  501    0  0.00000000000E+00 -0.00000000000E+00 -0.35039814875E+04  0.35039814875E+04  0.00000000000E+00 0. -1.
         23    2    1    2    0    0  0.49090618753E+03  0.94341286775E+02 -0.30355857189E+04  0.30778076981E+04  0.90721586573E+02 0.  0.
         13    1    3    3    0    0  0.35842692786E+03  0.84779087243E+02 -0.19875500787E+04  0.20213887978E+04  0.00000000000E+00 0.  1.
        -13    1    3    3    0    0  0.13247925967E+03  0.95621995314E+01 -0.10480356402E+04  0.10564189003E+04  0.00000000000E+00 0. -1.
         22    1    1    2    0    0 -0.49090618753E+03 -0.94341286775E+02 -0.30761472144E+03  0.58695483659E+03  0.00000000000E+00 0.  1.
<mgrwt>
<rscale>  0 0.15011646E+04</rscale>
<asrwt>0</asrwt>
<pdfrwt beam="1">  1        2 0.53907404E+00 0.15011646E+04</pdfrwt>
<pdfrwt beam="2">  1       -2 0.24735547E-01 0.15011646E+04</pdfrwt>
<totfact> 0.11577515E+01</totfact>
</mgrwt>
</event>
<event>
 6    1  0.2236204E-005  0.1342381E+04  0.7818608E-02  0.8996615E-01
          2   -1    0    0  501    0  0.00000000000E+00  0.00000000000E+00  0.26066474638E+04  0.26066474638E+04  0.00000000000E+00 0. -1.
         -2   -1    0    0    0  501 -0.00000000000E+00 -0.00000000000E+00 -0.17282618769E+03  0.17282618769E+03  0.00000000000E+00 0.  1.
         23    2    1    2    0    0  0.34005354835E+03  0.45747954372E+03  0.50090604847E+03  0.76426020724E+03  0.90900199719E+02 0.  0.
         13    1    3    3    0    0  0.25061790317E+03  0.32313955595E+03  0.30336273699E+03  0.50917330665E+03  0.00000000000E+00 0. -1.
        -13    1    3    3    0    0  0.89435645176E+02  0.13433998776E+03  0.19754331148E+03  0.25508690058E+03  0.00000000000E+00 0.  1.
         22    1    1    2    0    0 -0.34005354835E+03 -0.45747954372E+03  0.19329152276E+04  0.20152134442E+04  0.00000000000E+00 0. -1.
<mgrwt>
<rscale>  0 0.13423814E+04</rscale>
<asrwt>0</asrwt>
<pdfrwt beam="1">  1        2 0.40102266E+00 0.13423814E+04</pdfrwt>
<pdfrwt beam="2">  1       -2 0.26588646E-01 0.13423814E+04</pdfrwt>
<totfact> 0.37993580E+01</totfact>
</mgrwt>
</event>
<event>
 6    1  0.2236204E-005  0.2097862E+04  0.7818608E-02  0.8562186E-01
          2   -1    0    0  501    0  0.00000000000E+00  0.00000000000E+00  0.19401277034E+04  0.19401277034E+04  0.00000000000E+00 0. -1.
         -2   -1    0    0    0  501 -0.00000000000E+00 -0.00000000000E+00 -0.56710487137E+03  0.56710487137E+03  0.00000000000E+00 0.  1.
         23    2    1    2    0    0 -0.32092779261E+03 -0.98830054656E+03  0.84107100374E+03  0.13398828559E+04  0.90294052319E+02 0.  0.
         11    1    3    3    0    0 -0.20026200998E+03 -0.71376281458E+03  0.56249174768E+03  0.93056928508E+03  0.00000000000E+00 0.  1.
        -11    1    3    3    0    0 -0.12066578263E+03 -0.27453773197E+03  0.27857925606E+03  0.40931357085E+03  0.00000000000E+00 0. -1.
         22    1    1    2    0    0  0.32092779261E+03  0.98830054656E+03  0.53195182825E+03  0.11673497188E+04  0.00000000000E+00 0.  1.
<mgrwt>
<rscale>  0 0.20978616E+04</rscale>
<asrwt>0</asrwt>
<pdfrwt beam="1">  1        2 0.29848118E+00 0.20978616E+04</pdfrwt>
<pdfrwt beam="2">  1       -2 0.87246904E-01 0.20978616E+04</pdfrwt>
<totfact> 0.75467304E+00</totfact>
</mgrwt>
</event>
<event>
 6    1  0.2236204E-005  0.5167920E+03  0.7818608E-02  0.1009487E+00
          2   -1    0    0  501    0  0.00000000000E+00  0.00000000000E+00  0.68683895879E+03  0.68683895879E+03  0.00000000000E+00 0. -1.
         -2   -1    0    0    0  501 -0.00000000000E+00 -0.00000000000E+00 -0.97211287857E+02  0.97211287857E+02  0.00000000000E+00 0.  1.
         23    2    1    2    0    0 -0.44265395816E+02  0.12273482514E+03 -0.20623174546E+02  0.16000749412E+03  0.90298506513E+02 0.  0.
         13    1    3    3    0    0 -0.17145549255E+02  0.84269331769E+02 -0.54684835875E+02  0.10191035968E+03  0.00000000000E+00 0.  1.
        -13    1    3    3    0    0 -0.27119846561E+02  0.38465493371E+02  0.34061661328E+02  0.58097134441E+02  0.00000000000E+00 0. -1.
         22    1    1    2    0    0  0.44265395816E+02 -0.12273482514E+03  0.61025084547E+03  0.62404275252E+03  0.00000000000E+00 0. -1.
<mgrwt>
<rscale>  0 0.51679203E+03</rscale>
<asrwt>0</asrwt>
<pdfrwt beam="1">  1        2 0.10566753E+00 0.51679203E+03</pdfrwt>
<pdfrwt beam="2">  1       -2 0.14955583E-01 0.51679203E+03</pdfrwt>
<totfact> 0.14802072E+03</totfact>
</mgrwt>
</event>
<event>
 6    1  0.2236204E-005  0.3626926E+04  0.7818608E-02  0.8084352E-01
          2   -1    0    0  501    0  0.00000000000E+00  0.00000000000E+00  0.12500872584E+04  0.12500872584E+04  0.00000000000E+00 0. -1.
         -2   -1    0    0    0  501 -0.00000000000E+00 -0.00000000000E+00 -0.26307354589E+04  0.26307354589E+04  0.00000000000E+00 0.  1.
         23    2    1    2    0    0 -0.10853167593E+04 -0.85760721541E+03 -0.19437068058E+04  0.23873577538E+04  0.89879330069E+02 0.  0.
         13    1    3    3    0    0 -0.66963069923E+03 -0.55862747698E+03 -0.12871057460E+04  0.15547061243E+04  0.00000000000E+00 0. -1.
        -13    1    3    3    0    0 -0.41568606012E+03 -0.29897973843E+03 -0.65660105976E+03  0.83265162958E+03  0.00000000000E+00 0.  1.
         22    1    1    2    0    0  0.10853167593E+04  0.85760721541E+03  0.56305860534E+03  0.14934649635E+04  0.00000000000E+00 0. -1.
<mgrwt>
<rscale>  0 0.36269265E+04</rscale>
<asrwt>0</asrwt>
<pdfrwt beam="1">  1        2 0.19232112E+00 0.36269265E+04</pdfrwt>
<pdfrwt beam="2">  1       -2 0.40472852E+00 0.36269265E+04</pdfrwt>
<totfact> 0.99322631E-02</totfact>
</mgrwt>
</event>
<event>
 6    1  0.2236204E-005  0.1246037E+04  0.7818608E-02  0.9073488E-01
          2   -1    0    0  501    0  0.00000000000E+00  0.00000000000E+00  0.11268606973E+04  0.11268606973E+04  0.00000000000E+00 0. -1.
         -2   -1    0    0    0  501 -0.00000000000E+00 -0.00000000000E+00 -0.34445430521E+03  0.34445430521E+03  0.00000000000E+00 0.  1.
         23    2    1    2    0    0 -0.42512503423E+03 -0.21538186025E+03 -0.74669877021E+02  0.49065177208E+03  0.89682386567E+02 0.  0.
         13    1    3    3    0    0 -0.80083083483E+02 -0.60073669111E+02 -0.48834824404E+02  0.11138665115E+03  0.00000000000E+00 0.  1.
        -13    1    3    3    0    0 -0.34504195075E+03 -0.15530819114E+03 -0.25835052616E+02  0.37926512093E+03  0.00000000000E+00 0. -1.
         22    1    1    2    0    0  0.42512503423E+03  0.21538186025E+03  0.85707626910E+03  0.98066323043E+03  0.00000000000E+00 0. -1.
<mgrwt>
<rscale>  0 0.12460369E+04</rscale>
<asrwt>0</asrwt>
<pdfrwt beam="1">  1        2 0.17336318E+00 0.12460369E+04</pdfrwt>
<pdfrwt beam="2">  1       -2 0.52992971E-01 0.12460369E+04</pdfrwt>
<totfact> 0.69277032E+01</totfact>
</mgrwt>
</event>
<event>
 6    1  0.2236204E-005  0.1361858E+04  0.7818608E-02  0.8981900E-01
          1   -1    0    0  501    0  0.00000000000E+00  0.00000000000E+00  0.21242672328E+04  0.21242672328E+04  0.00000000000E+00 0. -1.
         -1   -1    0    0    0  501 -0.00000000000E+00 -0.00000000000E+00 -0.21827014943E+03  0.21827014943E+03  0.00000000000E+00 0.  1.
         23    2    1    2    0    0 -0.66088844739E+03 -0.59027967559E+02  0.71901912504E+03  0.98269381975E+03  0.91873828479E+02 0.  0.
         11    1    3    3    0    0 -0.50321508099E+02 -0.15459833819E+02  0.94755650956E+02  0.10839692813E+03  0.00000000000E+00 0. -1.
        -11    1    3    3    0    0 -0.61056693929E+03 -0.43568133740E+02  0.62426347409E+03  0.87429689163E+03  0.00000000000E+00 0.  1.
         22    1    1    2    0    0  0.66088844739E+03  0.59027967559E+02  0.11869779584E+04  0.13598435625E+04  0.00000000000E+00 0.  1.
<mgrwt>
<rscale>  0 0.13618577E+04</rscale>
<asrwt>0</asrwt>
<pdfrwt beam="1">  1        1 0.32681033E+00 0.13618577E+04</pdfrwt>
<pdfrwt beam="2">  1       -1 0.33580024E-01 0.13618577E+04</pdfrwt>
<totfact> 0.20082668E+01</totfact>
</mgrwt>
</event>
<event>
 6    1  0.3041353E-005  0.3679319E+04  0.7818608E-02  0.8072560E-01
         -2   -1    0    0    0  501 -0.00000000000E+00  0.00000000000E+00  0.13577664743E+04  0.13577664743E+04  0.00000000000E+00 0.  1.
          2   -1    0    0  501    0  0.00000000000E+00 -0.00000000000E+00 -0.24925847333E+04  0.24925847333E+04  0.00000000000E+00 0. -1.
         23    2    1    2    0    0 -0.12877155589E+04  0.23723762567E+03 -0.19179376298E+04  0.23246484185E+04  0.10494029725E+03 0.  0.
         13    1    3    3    0    0 -0.32596552307E+03  0.42311242479E+02 -0.40941782013E+03  0.52503972698E+03  0.00000000000E+00 0.  1.
        -13    1    3    3    0    0 -0.96175003587E+03  0.19492638319E+03 -0.15085198097E+04  0.17996086915E+04  0.00000000000E+00 0. -1.
         22    1    1    2    0    0  0.12877155589E+04 -0.23723762567E+03  0.78311937087E+03  0.15257027891E+04  0.00000000000E+00 0.  1.
<mgrwt>
<rscale>  0 0.36793195E+04</rscale>
<asrwt>0</asrwt>
<pdfrwt beam="1">  1        2 0.38347458E+00 0.36793195E+04</pdfrwt>
<pdfrwt beam="2">  1       -2 0.20888715E+00 0.36793195E+04</pdfrwt>
<totfact> 0.33140747E-01</totfact>
</mgrwt>
</event>
<event>
 6    1  0.2236204E-005  0.1936779E+04  0.7818608E-02  0.8636763E-01
          1   -1    0    0  501    0  0.00000000000E+00  0.00000000000E+00  0.13130358784E+04  0.13130358784E+04  0.00000000000E+00 0. -1.
         -1   -1    0    0    0  501 -0.00000000000E+00 -0.00000000000E+00 -0.71420607974E+03  0.71420607974E+03  0.00000000000E+00 0.  1.
         23    2    1    2    0    0 -0.13870491686E+03 -0.60787796056E+03  0.10725907426E+04  0.12441684616E+04  0.93539247312E+02 0.  0.
         11    1    3    3    0    0 -0.11752154938E+03 -0.41013602099E+03  0.80116493925E+03  0.90768283567E+03  0.00000000000E+00 0. -1.
        -11    1    3    3    0    0 -0.21183367476E+02 -0.19774193957E+03  0.27142580336E+03  0.33648562592E+03  0.00000000000E+00 0.  1.
         22    1    1    2    0    0  0.13870491686E+03  0.60787796056E+03 -0.47376094399E+03  0.78307349652E+03  0.00000000000E+00 0.  1.
<mgrwt>
<rscale>  0 0.19367790E+04</rscale>
<asrwt>0</asrwt>
<pdfrwt beam="1">  1        1 0.20200552E+00 0.19367790E+04</pdfrwt>
<pdfrwt beam="2">  1       -1 0.10987786E+00 0.19367790E+04</pdfrwt>
<totfact> 0.63190046E+00</totfact>
</mgrwt>
</event>
<event>
 6    1  0.2236204E-005  0.3437760E+04  0.7818608E-02  0.8128701E-01
         -2   -1    0    0    0  501 -0.00000000000E+00  0.00000000000E+00  0.84029553654E+03  0.84029553654E+03  0.00000000000E+00 0.  1.
          2   -1    0    0  501    0  0.00000000000E+00 -0.00000000000E+00 -0.35160817619E+04  0.35160817619E+04  0.00000000000E+00 0. -1.
         23    2    1    2    0    0  0.15210943417E+04 -0.55551182352E+03 -0.61299449914E+03  0.17338916287E+04  0.91085353011E+02 0.  0.
         13    1    3    3    0    0  0.12398815638E+04 -0.42520994213E+03 -0.52190678625E+03  0.14108495599E+04  0.00000000000E+00 0.  1.
        -13    1    3    3    0    0  0.28121277790E+03 -0.13030188139E+03 -0.91087712887E+02  0.32304206876E+03  0.00000000000E+00 0. -1.
         22    1    1    2    0    0 -0.15210943417E+04  0.55551182352E+03 -0.20627917262E+04  0.26224856698E+04  0.00000000000E+00 0. -1.
<mgrwt>
<rscale>  0 0.34377596E+04</rscale>
<asrwt>0</asrwt>
<pdfrwt beam="1">  1        2 0.54093566E+00 0.34377596E+04</pdfrwt>
<pdfrwt beam="2">  1       -2 0.12927623E+00 0.34377596E+04</pdfrwt>
<totfact> 0.28770885E-01</totfact>
</mgrwt>
</event>
<event>
 6    1  0.2236204E-005  0.2751020E+04  0.7818608E-02  0.8318638E-01
          2   -1    0    0  501    0  0.00000000000E+00  0.00000000000E+00  0.11135542975E+04  0.11135542975E+04  0.00000000000E+00 0. -1.
         -2   -1    0    0    0  501 -0.00000000000E+00 -0.00000000000E+00 -0.16990885318E+04  0.16990885318E+04  0.00000000000E+00 0.  1.
         23    2    1    2    0    0  0.32287580608E+03  0.11943240813E+04  0.31801467859E+03  0.12806312644E+04  0.90687938380E+02 0.  0.
         11    1    3    3    0    0  0.17690054319E+03  0.53121976483E+03  0.17648018672E+03  0.58705493528E+03  0.00000000000E+00 0. -1.
        -11    1    3    3    0    0  0.14597526289E+03  0.66310431645E+03  0.14153449187E+03  0.69357632908E+03  0.00000000000E+00 0.  1.
         22    1    1    2    0    0 -0.32287580608E+03 -0.11943240813E+04 -0.90354891283E+03  0.15320115650E+04  0.00000000000E+00 0.  1.
<mgrwt>
<rscale>  0 0.27510197E+04</rscale>
<asrwt>0</asrwt>
<pdfrwt beam="1">  1        2 0.17131605E+00 0.27510197E+04</pdfrwt>
<pdfrwt beam="2">  1       -2 0.26139824E+00 0.27510197E+04</pdfrwt>
<totfact> 0.10213329E+00</totfact>
</mgrwt>
</event>
<event>
 6    1  0.2236204E-005  0.1759423E+04  0.7818608E-02  0.8728181E-01
          2   -1    0    0  501    0  0.00000000000E+00  0.00000000000E+00  0.19988420289E+04  0.19988420289E+04  0.00000000000E+00 0. -1.
         -2   -1    0    0    0  501 -0.00000000000E+00 -0.00000000000E+00 -0.38717021704E+03  0.38717021704E+03  0.00000000000E+00 0.  1.
         23    2    1    2    0    0 -0.44536312639E+03 -0.27386194820E+03  0.17634276682E+04  0.18416056690E+04  0.92117415483E+02 0.  0.
         11    1    3    3    0    0 -0.27178977730E+03 -0.11959088660E+03  0.10623797995E+04  0.11030967780E+04  0.00000000000E+00 0. -1.
        -11    1    3    3    0    0 -0.17357334909E+03 -0.15427106161E+03  0.70104786869E+03  0.73850889105E+03  0.00000000000E+00 0.  1.
         22    1    1    2    0    0  0.44536312639E+03  0.27386194820E+03 -0.15175585636E+03  0.54440657689E+03  0.00000000000E+00 0.  1.
<mgrwt>
<rscale>  0 0.17594227E+04</rscale>
<asrwt>0</asrwt>
<pdfrwt beam="1">  1        2 0.30751415E+00 0.17594227E+04</pdfrwt>
<pdfrwt beam="2">  1       -2 0.59564650E-01 0.17594227E+04</pdfrwt>
<totfact> 0.16668620E+01</totfact>
</mgrwt>
</event>
<event>
 6    1  0.2236204E-005  0.1204254E+04  0.7818608E-02  0.9109141E-01
         -2   -1    0    0    0  501 -0.00000000000E+00  0.00000000000E+00  0.56502624121E+03  0.56502624121E+03  0.00000000000E+00 0. -1.
          2   -1    0    0  501    0  0.00000000000E+00 -0.00000000000E+00 -0.64166416990E+03  0.64166416990E+03  0.00000000000E+00 0.  1.
         23    2    1    2    0    0 -0.14429367689E+03 -0.85209136019E+02  0.53728063330E+03  0.57031217231E+03  0.92218397927E+02 0.  0.
         11    1    3    3    0    0 -0.48018347881E+02 -0.50238924328E+02  0.10395868103E+03  0.12504846505E+03  0.00000000000E+00 0. -1.
        -11    1    3    3    0    0 -0.96275329011E+02 -0.34970211691E+02  0.43332195228E+03  0.44526370726E+03  0.00000000000E+00 0.  1.
         22    1    1    2    0    0  0.14429367689E+03  0.85209136019E+02 -0.61391856199E+03  0.63637823879E+03  0.00000000000E+00 0.  1.
<mgrwt>
<rscale>  0 0.12042543E+04</rscale>
<asrwt>0</asrwt>
<pdfrwt beam="1">  1        2 0.98717564E-01 0.12042543E+04</pdfrwt>
<pdfrwt beam="2">  1       -2 0.86927115E-01 0.12042543E+04</pdfrwt>
<totfact> 0.51615009E+01</totfact>
</mgrwt>
</event>
<event>
 6    1  0.2236204E-005  0.1610075E+04  0.7818608E-02  0.8814382E-01
         -4   -1    0    0    0  501 -0.00000000000E+00  0.00000000000E+00  0.11986959791E+04  0.11986959791E+04  0.00000000000E+00 0.  1.
          4   -1    0    0  501    0  0.00000000000E+00 -0.00000000000E+00 -0.54065866879E+03  0.54065866879E+03  0.00000000000E+00 0. -1.
         23    2    1    2    0    0  0.40632090466E+03 -0.41308492691E+03  0.92973471556E+03  0.10993895595E+04  0.92276366225E+02 0.  0.
         13    1    3    3    0    0  0.16295552823E+03 -0.15401083151E+03  0.27928552198E+03  0.35815393784E+03  0.00000000000E+00 0.  1.
        -13    1    3    3    0    0  0.24336537643E+03 -0.25907409540E+03  0.65044919358E+03  0.74123562164E+03  0.00000000000E+00 0. -1.
         22    1    1    2    0    0 -0.40632090466E+03  0.41308492691E+03 -0.27169740523E+03  0.63996508843E+03  0.00000000000E+00 0. -1.
<mgrwt>
<rscale>  0 0.16100750E+04</rscale>
<asrwt>0</asrwt>
<pdfrwt beam="1">  1        4 0.83178257E-01 0.16100750E+04</pdfrwt>
<pdfrwt beam="2">  1       -4 0.18441477E+00 0.16100750E+04</pdfrwt>
<totfact> 0.40772888E-01</totfact>
</mgrwt>
</event>
<event>
 6    1  0.2236204E-005  0.1080573E+04  0.7818608E-02  0.9224336E-01
         -2   -1    0    0    0  501 -0.00000000000E+00  0.00000000000E+00  0.42375897334E+03  0.42375897334E+03  0.00000000000E+00 0.  1.
          2   -1    0    0  501    0  0.00000000000E+00 -0.00000000000E+00 -0.68885793265E+03  0.68885793265E+03  0.00000000000E+00 0. -1.
         23    2    1    2    0    0  0.12815038791E+03 -0.34948489542E+03  0.26439272807E+03  0.46537378238E+03  0.90039039419E+02 0.  0.
         13    1    3    3    0    0  0.75549607808E+02 -0.18761802530E+03  0.88992291646E+02  0.22097034785E+03  0.00000000000E+00 0.  1.
        -13    1    3    3    0    0  0.52600780101E+02 -0.16186687012E+03  0.17540043643E+03  0.24440343453E+03  0.00000000000E+00 0. -1.
         22    1    1    2    0    0 -0.12815038791E+03  0.34948489542E+03 -0.52949168738E+03  0.64724312361E+03  0.00000000000E+00 0. -1.
<mgrwt>
<rscale>  0 0.10805734E+04</rscale>
<asrwt>0</asrwt>
<pdfrwt beam="1">  1        2 0.10597814E+00 0.10805734E+04</pdfrwt>
<pdfrwt beam="2">  1       -2 0.65193688E-01 0.10805734E+04</pdfrwt>
<totfact> 0.90208194E+01</totfact>
</mgrwt>
</event>
<event>
 6    1  0.2236204E-005  0.3758875E+03  0.7818608E-02  0.1052464E+00
         -2   -1    0    0    0  501 -0.00000000000E+00  0.00000000000E+00  0.41073890538E+02  0.41073890538E+02  0.00000000000E+00 0.  1.
          2   -1    0    0  501    0  0.00000000000E+00 -0.00000000000E+00 -0.85998308871E+03  0.85998308871E+03  0.00000000000E+00 0. -1.
         23    2    1    2    0    0 -0.11285346981E+03  0.13578359578E+03 -0.42411915786E+03  0.46858470677E+03  0.92311845531E+02 0.  0.
         13    1    3    3    0    0 -0.59526562225E+02  0.22796435453E+02 -0.78769987907E+02  0.10133015383E+03  0.00000000000E+00 0.  1.
        -13    1    3    3    0    0 -0.53326907582E+02  0.11298716033E+03 -0.34534916995E+03  0.36725455294E+03  0.00000000000E+00 0. -1.
         22    1    1    2    0    0  0.11285346981E+03 -0.13578359578E+03 -0.39479004031E+03  0.43247227248E+03  0.00000000000E+00 0.  1.
<mgrwt>
<rscale>  0 0.37588749E+03</rscale>
<asrwt>0</asrwt>
<pdfrwt beam="1">  1        2 0.13230510E+00 0.37588749E+03</pdfrwt>
<pdfrwt beam="2">  1       -2 0.63190599E-02 0.37588749E+03</pdfrwt>
<totfact> 0.44316732E+03</totfact>
</mgrwt>
</event>
<event>
 6    1  0.2236204E-005  0.1794424E+04  0.7818608E-02  0.8709270E-01
         -2   -1    0    0    0  501 -0.00000000000E+00  0.00000000000E+00  0.10935560917E+04  0.10935560917E+04  0.00000000000E+00 0.  1.
          2   -1    0    0  501    0  0.00000000000E+00 -0.00000000000E+00 -0.73612110162E+03  0.73612110162E+03  0.00000000000E+00 0. -1.
         23    2    1    2    0    0  0.74367320014E+03  0.18581404430E+03 -0.29147701417E+03  0.82535479642E+03  0.93139693586E+02 0.  0.
         13    1    3    3    0    0  0.53264373948E+03  0.92744258220E+02 -0.18620405466E+03  0.57182409937E+03  0.00000000000E+00 0.  1.
        -13    1    3    3    0    0  0.21102946066E+03  0.93069786077E+02 -0.10527295951E+03  0.25353069706E+03  0.00000000000E+00 0. -1.
         22    1    1    2    0    0 -0.74367320014E+03 -0.18581404430E+03  0.64891200428E+03  0.10043223969E+04  0.00000000000E+00 0.  1.
<mgrwt>
<rscale>  0 0.17944244E+04</rscale>
<asrwt>0</asrwt>
<pdfrwt beam="1">  1        2 0.11324940E+00 0.17944244E+04</pdfrwt>
<pdfrwt beam="2">  1       -2 0.16823940E+00 0.17944244E+04</pdfrwt>
<totfact> 0.79560029E+00</totfact>
</mgrwt>
</event>
<event>
 6    1  0.2236204E-005  0.2136954E+04  0.7818608E-02  0.8545137E-01
          2   -1    0    0  501    0  0.00000000000E+00  0.00000000000E+00  0.33375223257E+04  0.33375223257E+04  0.00000000000E+00 0. -1.
         -2   -1    0    0    0  501 -0.00000000000E+00 -0.00000000000E+00 -0.34206299194E+03  0.34206299194E+03  0.00000000000E+00 0.  1.
         23    2    1    2    0    0 -0.99745368650E+03  0.26287261944E+03  0.19671171716E+04  0.22230471364E+04  0.91502641709E+02 0.  0.
         13    1    3    3    0    0 -0.84533132717E+03  0.21248012420E+03  0.17248773262E+04  0.19325979008E+04  0.00000000000E+00 0. -1.
        -13    1    3    3    0    0 -0.15212235934E+03  0.50392495235E+02  0.24223984534E+03  0.29044923560E+03  0.00000000000E+00 0.  1.
         22    1    1    2    0    0  0.99745368650E+03 -0.26287261944E+03  0.10283421622E+04  0.14565381812E+04  0.00000000000E+00 0. -1.
<mgrwt>
<rscale>  0 0.21369538E+04</rscale>
<asrwt>0</asrwt>
<pdfrwt beam="1">  1        2 0.51346495E+00 0.21369538E+04</pdfrwt>
<pdfrwt beam="2">  1       -2 0.52625078E-01 0.21369538E+04</pdfrwt>
<totfact> 0.33006480E+00</totfact>
</mgrwt>
</event>
<event>
 6    1  0.2236204E-005  0.2223677E+04  0.7818608E-02  0.8508637E-01
         -2   -1    0    0    0  501 -0.00000000000E+00  0.00000000000E+00  0.85611552336E+03  0.85611552336E+03  0.00000000000E+00 0.  1.
          2   -1    0    0  501    0  0.00000000000E+00 -0.00000000000E+00 -0.14439463101E+04  0.14439463101E+04  0.00000000000E+00 0. -1.
         23    2    1    2    0    0 -0.88788026836E+03 -0.61282103224E+03 -0.24484467971E+02  0.10829997712E+04  0.91695293299E+02 0.  0.
         11    1    3    3    0    0 -0.70369885340E+03 -0.44512741025E+03 -0.38157782272E+02  0.83353854378E+03  0.00000000000E+00 0. -1.
        -11    1    3    3    0    0 -0.18418141496E+03 -0.16769362199E+03  0.13673314301E+02  0.24946122745E+03  0.00000000000E+00 0.  1.
         22    1    1    2    0    0  0.88788026836E+03  0.61282103224E+03 -0.56334631882E+03  0.12170620623E+04  0.00000000000E+00 0. -1.
<mgrwt>
<rscale>  0 0.22236770E+04</rscale>
<asrwt>0</asrwt>
<pdfrwt beam="1">  1        2 0.22214558E+00 0.22236770E+04</pdfrwt>
<pdfrwt beam="2">  1       -2 0.13171008E+00 0.22236770E+04</pdfrwt>
<totfact> 0.52356699E+00</totfact>
</mgrwt>
</event>
<event>
 6    1  0.2236204E-005  0.1421379E+04  0.7818608E-02  0.8938487E-01
         -2   -1    0    0    0  501 -0.00000000000E+00  0.00000000000E+00  0.21524111574E+03  0.21524111574E+03  0.00000000000E+00 0.  1.
          2   -1    0    0  501    0  0.00000000000E+00 -0.00000000000E+00 -0.23465752055E+04  0.23465752055E+04  0.00000000000E+00 0. -1.
         23    2    1    2    0    0 -0.40037960294E+03  0.43013767341E+03 -0.35678823533E+03  0.69250221335E+03  0.83302017324E+02 0.  0.
         13    1    3    3    0    0 -0.32223184411E+03  0.38768970416E+03 -0.31287712250E+03  0.59332011751E+03  0.00000000000E+00 0.  1.
        -13    1    3    3    0    0 -0.78147758831E+02  0.42447969249E+02 -0.43911112836E+02  0.99182095835E+02  0.00000000000E+00 0. -1.
         22    1    1    2    0    0  0.40037960294E+03 -0.43013767341E+03 -0.17745458545E+04  0.18693141079E+04  0.00000000000E+00 0. -1.
<mgrwt>
<rscale>  0 0.14213789E+04</rscale>
<asrwt>0</asrwt>
<pdfrwt beam="1">  1        2 0.36101157E+00 0.14213789E+04</pdfrwt>
<pdfrwt beam="2">  1       -2 0.33114017E-01 0.14213789E+04</pdfrwt>
<totfact> 0.35373589E+01</totfact>
</mgrwt>
</event>
<event>
 6    1  0.2236204E-005  0.3735539E+04  0.7818608E-02  0.8060131E-01
          2   -1    0    0  501    0  0.00000000000E+00  0.00000000000E+00  0.26879193140E+04  0.26879193140E+04  0.00000000000E+00 0. -1.
         -2   -1    0    0    0  501 -0.00000000000E+00 -0.00000000000E+00 -0.12978672225E+04  0.12978672225E+04  0.00000000000E+00 0.  1.
         23    2    1    2    0    0 -0.29443300511E+03 -0.46233685322E+03  0.25997729358E+04  0.26576786036E+04  0.63167098291E+02 0.  0.
         13    1    3    3    0    0 -0.59265351473E+02 -0.77171432505E+02  0.36159714305E+03  0.37446001888E+03  0.00000000000E+00 0. -1.
        -13    1    3    3    0    0 -0.23516765363E+03 -0.38516542072E+03  0.22381757927E+04  0.22832185848E+04  0.00000000000E+00 0.  1.
         22    1    1    2    0    0  0.29443300511E+03  0.46233685322E+03 -0.12097208442E+04  0.13281079329E+04  0.00000000000E+00 0.  1.
<mgrwt>
<rscale>  0 0.37355387E+04</rscale>
<asrwt>0</asrwt>
<pdfrwt beam="1">  1        2 0.41352605E+00 0.37355387E+04</pdfrwt>
<pdfrwt beam="2">  1       -2 0.19967188E+00 0.37355387E+04</pdfrwt>
<totfact> 0.29081794E-01</totfact>
</mgrwt>
</event>
<event>
 6    1  0.2236204E-005  0.1534446E+04  0.7818608E-02  0.8861864E-01
         -2   -1    0    0    0  501 -0.00000000000E+00  0.00000000000E+00  0.91531168710E+03  0.91531168710E+03  0.00000000000E+00 0.  1.
          2   -1    0    0  501    0  0.00000000000E+00 -0.00000000000E+00 -0.64309395619E+03  0.64309395619E+03  0.00000000000E+00 0. -1.
         23    2    1    2    0    0  0.68564655529E+03 -0.25157800329E+03 -0.93814289312E+02  0.74147104962E+03  0.87037382863E+02 0.  0.
         11    1    3    3    0    0  0.48660686102E+03 -0.21949100528E+03 -0.63095124335E+02  0.53753468103E+03  0.00000000000E+00 0. -1.
        -11    1    3    3    0    0  0.19903969427E+03 -0.32086998014E+02 -0.30719164977E+02  0.20393636859E+03  0.00000000000E+00 0.  1.
         22    1    1    2    0    0 -0.68564655529E+03  0.25157800329E+03  0.36603202022E+03  0.81693459368E+03  0.00000000000E+00 0.  1.
<mgrwt>
<rscale>  0 0.15344464E+04</rscale>
<asrwt>0</asrwt>
<pdfrwt beam="1">  1        2 0.98937532E-01 0.15344464E+04</pdfrwt>
<pdfrwt beam="2">  1       -2 0.14081718E+00 0.15344464E+04</pdfrwt>
<totfact> 0.15524194E+01</totfact>
</mgrwt>
</event>
<event>
 6    1  0.2236204E-005  0.1489373E+04  0.7818608E-02  0.8891550E-01
         -4   -1    0    0    0  501 -0.00000000000E+00  0.00000000000E+00  0.11914033868E+04  0.11914033868E+04  0.00000000000E+00 0.  1.
          4   -1    0    0  501    0  0.00000000000E+00 -0.00000000000E+00 -0.46546640839E+03  0.46546640839E+03  0.00000000000E+00 0. -1.
         23    2    1    2    0    0 -0.55461984912E+03  0.47884607940E+03  0.23590571246E+03  0.77537822609E+03  0.93076009411E+02 0.  0.
         13    1    3    3    0    0 -0.18133633230E+03  0.19650779183E+03  0.12071752524E+03  0.29337842212E+03  0.00000000000E+00 0. -1.
        -13    1    3    3    0    0 -0.37328351681E+03  0.28233828757E+03  0.11518818722E+03  0.48199980397E+03  0.00000000000E+00 0.  1.
         22    1    1    2    0    0  0.55461984912E+03 -0.47884607940E+03  0.49003126596E+03  0.88149156911E+03  0.00000000000E+00 0.  1.
<mgrwt>
<rscale>  0 0.14893734E+04</rscale>
<asrwt>0</asrwt>
<pdfrwt beam="1">  1        4 0.71610217E-01 0.14893734E+04</pdfrwt>
<pdfrwt beam="2">  1       -4 0.18329283E+00 0.14893734E+04</pdfrwt>
<totfact> 0.58707234E-01</totfact>
</mgrwt>
</event>
<event>
 6    1  0.2236204E-005  0.1602460E+04  0.7818608E-02  0.8819038E-01
         -2   -1    0    0    0  501 -0.00000000000E+00  0.00000000000E+00  0.19729120279E+03  0.19729120279E+03  0.00000000000E+00 0.  1.
          2   -1    0    0  501    0  0.00000000000E+00 -0.00000000000E+00 -0.32539183167E+04  0.32539183167E+04  0.00000000000E+00 0. -1.
         23    2    1    2    0    0 -0.19837009475E+03 -0.57925640880E+03 -0.26373177787E+04  0.27091118169E+04  0.94620763801E+02 0.  0.
         13    1    3    3    0    0 -0.75646495306E+02 -0.28925787369E+03 -0.14678281939E+04  0.14979693310E+04  0.00000000000E+00 0.  1.
        -13    1    3    3    0    0 -0.12272359944E+03 -0.28999853512E+03 -0.11694895848E+04  0.12111424859E+04  0.00000000000E+00 0. -1.
         22    1    1    2    0    0  0.19837009475E+03  0.57925640880E+03 -0.41930933527E+03  0.74209770265E+03  0.00000000000E+00 0.  1.
<mgrwt>
<rscale>  0 0.16024599E+04</rscale>
<asrwt>0</asrwt>
<pdfrwt beam="1">  1        2 0.50060280E+00 0.16024599E+04</pdfrwt>
<pdfrwt beam="2">  1       -2 0.30352494E-01 0.16024599E+04</pdfrwt>
<totfact> 0.11596631E+01</totfact>
</mgrwt>
</event>
<event>
 6    1  0.2236204E-005  0.2285236E+04  0.7818608E-02  0.8483765E-01
          2   -1    0    0  501    0  0.00000000000E+00  0.00000000000E+00  0.21850225248E+04  0.21850225248E+04  0.00000000000E+00 0. -1.
         -2   -1    0    0    0  501 -0.00000000000E+00 -0.00000000000E+00 -0.59751131888E+03  0.59751131888E+03  0.00000000000E+00 0.  1.
         23    2    1    2    0    0  0.64706841305E+03  0.73691787318E+03  0.15044891883E+04  0.17983396868E+04  0.93767949328E+02 0.  0.
         13    1    3    3    0    0  0.29776699321E+03  0.27101400997E+03  0.63382229588E+03  0.75089578411E+03  0.00000000000E+00 0. -1.
        -13    1    3    3    0    0  0.34930141984E+03  0.46590386320E+03  0.87066689246E+03  0.10474439027E+04  0.00000000000E+00 0.  1.
         22    1    1    2    0    0 -0.64706841305E+03 -0.73691787318E+03  0.83022017539E+02  0.98419415684E+03  0.00000000000E+00 0.  1.
<mgrwt>
<rscale>  0 0.22852358E+04</rscale>
<asrwt>0</asrwt>
<pdfrwt beam="1">  1        2 0.33615731E+00 0.22852358E+04</pdfrwt>
<pdfrwt beam="2">  1       -2 0.91924820E-01 0.22852358E+04</pdfrwt>
<totfact> 0.48084550E+00</totfact>
</mgrwt>
</event>
<event>
 6    1  0.2236204E-005  0.4254832E+04  0.7818608E-02  0.7955023E-01
          2   -1    0    0  501    0  0.00000000000E+00  0.00000000000E+00  0.47120648207E+04  0.47120648207E+04  0.00000000000E+00 0. -1.
         -2   -1    0    0    0  501 -0.00000000000E+00 -0.00000000000E+00 -0.96049183994E+03  0.96049183994E+03  0.00000000000E+00 0.  1.
         23    2    1    2    0    0  0.30222891538E+03 -0.18608299832E+04  0.31881862279E+04  0.37049603665E+04  0.90384456061E+02 0.  0.
         13    1    3    3    0    0  0.16969028997E+03 -0.10957047535E+04  0.17885549780E+04  0.21043508764E+04  0.00000000000E+00 0.  1.
        -13    1    3    3    0    0  0.13253862541E+03 -0.76512522967E+03  0.13996312499E+04  0.16006094901E+04  0.00000000000E+00 0. -1.
         22    1    1    2    0    0 -0.30222891538E+03  0.18608299832E+04  0.56338675288E+03  0.19675962942E+04  0.00000000000E+00 0. -1.
<mgrwt>
<rscale>  0 0.42548325E+04</rscale>
<asrwt>0</asrwt>
<pdfrwt beam="1">  1        2 0.72493304E+00 0.42548325E+04</pdfrwt>
<pdfrwt beam="2">  1       -2 0.14776798E+00 0.42548325E+04</pdfrwt>
<totfact> 0.17763044E-02</totfact>
</mgrwt>
</event>
<event>
 6    1  0.2236204E-005  0.3066359E+04  0.7818608E-02  0.8225031E-01
         -2   -1    0    0    0  501 -0.00000000000E+00  0.00000000000E+00  0.17357164187E+04  0.17357164187E+04  0.00000000000E+00 0.  1.
          2   -1    0    0  501    0  0.00000000000E+00 -0.00000000000E+00 -0.13542765782E+04  0.13542765782E+04  0.00000000000E+00 0. -1.
         23    2    1    2    0    0 -0.26729054632E+03  0.35842333763E+03  0.16672739761E+04  0.17286403793E+04  0.92106050184E+02 0.  0.
         11    1    3    3    0    0 -0.98030536340E+02  0.11718892275E+03  0.74217912720E+03  0.75774209763E+03  0.00000000000E+00 0. -1.
        -11    1    3    3    0    0 -0.16926000997E+03  0.24123441488E+03  0.92509484889E+03  0.97089828167E+03  0.00000000000E+00 0.  1.
         22    1    1    2    0    0  0.26729054632E+03 -0.35842333763E+03 -0.12858341357E+04  0.13613526176E+04  0.00000000000E+00 0. -1.
<mgrwt>
<rscale>  0 0.30663595E+04</rscale>
<asrwt>0</asrwt>
<pdfrwt beam="1">  1        2 0.20835024E+00 0.30663595E+04</pdfrwt>
<pdfrwt beam="2">  1       -2 0.26703330E+00 0.30663595E+04</pdfrwt>
<totfact> 0.66141928E-01</totfact>
</mgrwt>
</event>
<event>
 6    1  0.2236204E-005  0.1243564E+04  0.7818608E-02  0.9075557E-01
          1   -1    0    0  501    0  0.00000000000E+00  0.00000000000E+00  0.47213028639E+03  0.47213028639E+03  0.00000000000E+00 0. -1.
         -1   -1    0    0    0  501 -0.00000000000E+00 -0.00000000000E+00 -0.81886959555E+03  0.81886959555E+03  0.00000000000E+00 0.  1.
         23    2    1    2    0    0  0.11090750940E+03 -0.57090183737E+03  0.44132025147E+02  0.59027897919E+03  0.90841918088E+02 0.  0.
         13    1    3    3    0    0  0.56138452636E+02 -0.46600784360E+03  0.21978482956E+02  0.46989135965E+03  0.00000000000E+00 0. -1.
        -13    1    3    3    0    0  0.54769056766E+02 -0.10489399377E+03  0.22153542191E+02  0.12038761954E+03  0.00000000000E+00 0.  1.
         22    1    1    2    0    0 -0.11090750940E+03  0.57090183737E+03 -0.39087133431E+03  0.70072090274E+03  0.00000000000E+00 0.  1.
<mgrwt>
<rscale>  0 0.12435645E+04</rscale>
<asrwt>0</asrwt>
<pdfrwt beam="1">  1        1 0.72635428E-01 0.12435645E+04</pdfrwt>
<pdfrwt beam="2">  1       -1 0.12597994E+00 0.12435645E+04</pdfrwt>
<totfact> 0.25979025E+01</totfact>
</mgrwt>
</event>
<event>
 6    1  0.2236204E-005  0.4144577E+04  0.7818608E-02  0.7975999E-01
          2   -1    0    0  501    0  0.00000000000E+00  0.00000000000E+00  0.36722715078E+04  0.36722715078E+04  0.00000000000E+00 0. -1.
         -2   -1    0    0    0  501 -0.00000000000E+00 -0.00000000000E+00 -0.11694067823E+04  0.11694067823E+04  0.00000000000E+00 0.  1.
         23    2    1    2    0    0 -0.10360514148E+03 -0.17259865612E+04  0.25842138940E+04  0.31106724200E+04  0.91421112937E+02 0.  0.
         11    1    3    3    0    0 -0.47580201071E+02 -0.10743270164E+04  0.15324785737E+04  0.18721466269E+04  0.00000000000E+00 0. -1.
        -11    1    3    3    0    0 -0.56024940405E+02 -0.65165954479E+03  0.10517353203E+04  0.12385257931E+04  0.00000000000E+00 0.  1.
         22    1    1    2    0    0  0.10360514148E+03  0.17259865612E+04 -0.81349168603E+02  0.17310058700E+04  0.00000000000E+00 0.  1.
<mgrwt>
<rscale>  0 0.41445768E+04</rscale>
<asrwt>0</asrwt>
<pdfrwt beam="1">  1        2 0.56496484E+00 0.41445768E+04</pdfrwt>
<pdfrwt beam="2">  1       -2 0.17990874E+00 0.41445768E+04</pdfrwt>
<totfact> 0.86416036E-02</totfact>
</mgrwt>
</event>
<event>
 6    1  0.2236204E-005  0.2836035E+04  0.7818608E-02  0.8292167E-01
         -2   -1    0    0    0  501 -0.00000000000E+00  0.00000000000E+00  0.12556466628E+04  0.12556466628E+04  0.00000000000E+00 0.  1.
          2   -1    0    0  501    0  0.00000000000E+00 -0.00000000000E+00 -0.16013851520E+04  0.16013851520E+04  0.00000000000E+00 0. -1.
         23    2    1    2    0    0  0.66505270815E+03 -0.29799490080E+03 -0.13967774495E+04  0.15780560678E+04  0.90430329198E+02 0.  0.
         11    1    3    3    0    0  0.26199857137E+03 -0.11455549752E+03 -0.64507314367E+03  0.70561007228E+03  0.00000000000E+00 0. -1.
        -11    1    3    3    0    0  0.40305413678E+03 -0.18343940328E+03 -0.75170430578E+03  0.87244599557E+03  0.00000000000E+00 0.  1.
         22    1    1    2    0    0 -0.66505270815E+03  0.29799490080E+03  0.10510389602E+04  0.12789757470E+04  0.00000000000E+00 0.  1.
<mgrwt>
<rscale>  0 0.28360352E+04</rscale>
<asrwt>0</asrwt>
<pdfrwt beam="1">  1        2 0.24636695E+00 0.28360352E+04</pdfrwt>
<pdfrwt beam="2">  1       -2 0.19317641E+00 0.28360352E+04</pdfrwt>
<totfact> 0.14256363E+00</totfact>
</mgrwt>
</event>
<event>
 6    1  0.2236204E-005  0.2130788E+04  0.7818608E-02  0.8547801E-01
          2   -1    0    0  501    0  0.00000000000E+00  0.00000000000E+00  0.69962444335E+03  0.69962444335E+03  0.00000000000E+00 0. -1.
         -2   -1    0    0    0  501 -0.00000000000E+00 -0.00000000000E+00 -0.16223906269E+04  0.16223906269E+04  0.00000000000E+00 0.  1.
         23    2    1    2    0    0  0.83344638232E+03 -0.41862128987E+03 -0.10188408331E+04  0.13844080124E+04  0.93124889655E+02 0.  0.
         13    1    3    3    0    0  0.10126461787E+03 -0.20938467211E+02 -0.96393946144E+02  0.14136737634E+03  0.00000000000E+00 0. -1.
        -13    1    3    3    0    0  0.73218176445E+03 -0.39768282266E+03 -0.92244688700E+03  0.12430406361E+04  0.00000000000E+00 0.  1.
         22    1    1    2    0    0 -0.83344638232E+03  0.41862128987E+03  0.96074649611E+02  0.93760705780E+03  0.00000000000E+00 0. -1.
<mgrwt>
<rscale>  0 0.21307878E+04</rscale>
<asrwt>0</asrwt>
<pdfrwt beam="1">  1        2 0.10763453E+00 0.21307878E+04</pdfrwt>
<pdfrwt beam="2">  1       -2 0.24959856E+00 0.21307878E+04</pdfrwt>
<totfact> 0.24353102E+00</totfact>
</mgrwt>
</event>
<event>
 6    1  0.2236204E-005  0.4000953E+04  0.7818608E-02  0.8004354E-01
          2   -1    0    0  501    0  0.00000000000E+00  0.00000000000E+00  0.34493541100E+04  0.34493541100E+04  0.00000000000E+00 0. -1.
         -2   -1    0    0    0  501 -0.00000000000E+00 -0.00000000000E+00 -0.11601901783E+04  0.11601901783E+04  0.00000000000E+00 0.  1.
         23    2    1    2    0    0  0.95383595514E+03  0.17572498066E+04  0.11500783479E+04  0.23084041623E+04  0.91212160176E+02 0.  0.
         11    1    3    3    0    0  0.53164130001E+03  0.98411017515E+03  0.69540312933E+03  0.13170804155E+04  0.00000000000E+00 0.  1.
        -11    1    3    3    0    0  0.42219465513E+03  0.77313963147E+03  0.45467521856E+03  0.99132374679E+03  0.00000000000E+00 0. -1.
         22    1    1    2    0    0 -0.95383595514E+03 -0.17572498066E+04  0.11390855838E+04  0.23011401260E+04  0.00000000000E+00 0. -1.
<mgrwt>
<rscale>  0 0.40009533E+04</rscale>
<asrwt>0</asrwt>
<pdfrwt beam="1">  1        2 0.53066986E+00 0.40009533E+04</pdfrwt>
<pdfrwt beam="2">  1       -2 0.17849080E+00 0.40009533E+04</pdfrwt>
<totfact> 0.12897823E-01</totfact>
</mgrwt>
</event>
<event>
 6    1  0.2236204E-005  0.7548849E+03  0.7818608E-02  0.9627718E-01
          2   -1    0    0  501    0  0.00000000000E+00  0.00000000000E+00  0.18053125298E+04  0.18053125298E+04  0.00000000000E+00 0. -1.
         -2   -1    0    0    0  501 -0.00000000000E+00 -0.00000000000E+00 -0.78913091329E+02  0.78913091329E+02  0.00000000000E+00 0.  1.
         23    2    1    2    0    0 -0.27860240452E+03  0.19171143388E+03  0.12623585418E+04  0.13100248484E+04  0.90793400236E+02 0.  0.
         11    1    3    3    0    0 -0.20168696221E+03  0.93861079700E+02  0.72075433601E+03  0.75430388166E+03  0.00000000000E+00 0.  1.
        -11    1    3    3    0    0 -0.76915442312E+02  0.97850354181E+02  0.54160420581E+03  0.55572096670E+03  0.00000000000E+00 0. -1.
         22    1    1    2    0    0  0.27860240452E+03 -0.19171143388E+03  0.46404089667E+03  0.57420077278E+03  0.00000000000E+00 0.  1.
<mgrwt>
<rscale>  0 0.75488487E+03</rscale>
<asrwt>0</asrwt>
<pdfrwt beam="1">  1        2 0.27774036E+00 0.75488487E+03</pdfrwt>
<pdfrwt beam="2">  1       -2 0.12140477E-01 0.75488487E+03</pdfrwt>
<totfact> 0.43576726E+02</totfact>
</mgrwt>
</event>
<event>
 6    1  0.2236204E-005  0.2485514E+04  0.7818608E-02  0.8408165E-01
         -2   -1    0    0    0  501 -0.00000000000E+00  0.00000000000E+00  0.53006773709E+03  0.53006773709E+03  0.00000000000E+00 0. -1.
          2   -1    0    0  501    0  0.00000000000E+00 -0.00000000000E+00 -0.29136743360E+04  0.29136743360E+04  0.00000000000E+00 0.  1.
         23    2    1    2    0    0  0.48979410581E+03  0.10376643653E+04 -0.53809026036E+03  0.12705931696E+04  0.90665721743E+02 0.  0.
         13    1    3    3    0    0  0.31992865430E+03  0.75289403243E+03 -0.41095071097E+03  0.91546941771E+03  0.00000000000E+00 0. -1.
        -13    1    3    3    0    0  0.16986545151E+03  0.28477033288E+03 -0.12713954938E+03  0.35512375184E+03  0.00000000000E+00 0.  1.
         22    1    1    2    0    0 -0.48979410581E+03 -0.10376643653E+04 -0.18455163386E+04  0.21731489036E+04  0.00000000000E+00 0. -1.
<mgrwt>
<rscale>  0 0.24855138E+04</rscale>
<asrwt>0</asrwt>
<pdfrwt beam="1">  1        2 0.44825759E+00 0.24855138E+04</pdfrwt>
<pdfrwt beam="2">  1       -2 0.81548883E-01 0.24855138E+04</pdfrwt>
<totfact> 0.23293703E+00</totfact>
</mgrwt>
</event>
<event>
 6    1  0.2236204E-005  0.1036562E+04  0.7818608E-02  0.9269329E-01
         -2   -1    0    0    0  501 -0.00000000000E+00  0.00000000000E+00  0.33615267155E+03  0.33615267155E+03  0.00000000000E+00 0.  1.
          2   -1    0    0  501    0  0.00000000000E+00 -0.00000000000E+00 -0.79908679405E+03  0.79908679405E+03  0.00000000000E+00 0. -1.
         23    2    1    2    0    0  0.12676165843E+03  0.47298869610E+03 -0.61184496964E+02  0.50184418120E+03  0.91198765601E+02 0.  0.
         13    1    3    3    0    0  0.79804513440E+02  0.41570506194E+03 -0.42297540818E+02  0.42540397371E+03  0.00000000000E+00 0.  1.
        -13    1    3    3    0    0  0.46957144994E+02  0.57283634157E+02 -0.18886956146E+02  0.76440207487E+02  0.00000000000E+00 0. -1.
         22    1    1    2    0    0 -0.12676165843E+03 -0.47298869610E+03 -0.40174962553E+03  0.63339528440E+03  0.00000000000E+00 0. -1.
<mgrwt>
<rscale>  0 0.10365619E+04</rscale>
<asrwt>0</asrwt>
<pdfrwt beam="1">  1        2 0.12293643E+00 0.10365619E+04</pdfrwt>
<pdfrwt beam="2">  1       -2 0.51715796E-01 0.10365619E+04</pdfrwt>
<totfact> 0.12140404E+02</totfact>
</mgrwt>
</event>
<event>
 6    1  0.2236204E-005  0.1364776E+04  0.7818608E-02  0.8979718E-01
         -2   -1    0    0    0  501 -0.00000000000E+00  0.00000000000E+00  0.12308706261E+04  0.12308706261E+04  0.00000000000E+00 0.  1.
          2   -1    0    0  501    0  0.00000000000E+00 -0.00000000000E+00 -0.37831224081E+03  0.37831224081E+03  0.00000000000E+00 0. -1.
         23    2    1    2    0    0 -0.37223210001E+03  0.31984001605E+03 -0.12582424192E+03  0.51461128983E+03  0.90214564361E+02 0.  0.
         13    1    3    3    0    0 -0.12222324357E+03  0.73028751518E+02 -0.70819256275E+02  0.15901913997E+03  0.00000000000E+00 0.  1.
        -13    1    3    3    0    0 -0.25000885645E+03  0.24681126453E+03 -0.55004985643E+02  0.35559214987E+03  0.00000000000E+00 0. -1.
         22    1    1    2    0    0  0.37223210001E+03 -0.31984001605E+03  0.97838262724E+03  0.10945715771E+04  0.00000000000E+00 0.  1.
<mgrwt>
<rscale>  0 0.13647761E+04</rscale>
<asrwt>0</asrwt>
<pdfrwt beam="1">  1        2 0.58201884E-01 0.13647761E+04</pdfrwt>
<pdfrwt beam="2">  1       -2 0.18936471E+00 0.13647761E+04</pdfrwt>
<totfact> 0.12919101E+01</totfact>
</mgrwt>
</event>
<event>
 6    1  0.2236204E-005  0.1777475E+04  0.7818608E-02  0.8718370E-01
         -2   -1    0    0    0  501 -0.00000000000E+00  0.00000000000E+00  0.56882742632E+03  0.56882742632E+03  0.00000000000E+00 0.  1.
          2   -1    0    0  501    0  0.00000000000E+00 -0.00000000000E+00 -0.13885662877E+04  0.13885662877E+04  0.00000000000E+00 0. -1.
         23    2    1    2    0    0 -0.62913694756E+03  0.27395647510E+03  0.20701695403E+03  0.72244717529E+03  0.90600512080E+02 0.  0.
         11    1    3    3    0    0 -0.20992772304E+03  0.64205646035E+02  0.10202872955E+03  0.24207824259E+03  0.00000000000E+00 0.  1.
        -11    1    3    3    0    0 -0.41920922453E+03  0.20975082907E+03  0.10498822448E+03  0.48036893270E+03  0.00000000000E+00 0. -1.
         22    1    1    2    0    0  0.62913694756E+03 -0.27395647510E+03 -0.10267558154E+04  0.12349465387E+04  0.00000000000E+00 0. -1.
<mgrwt>
<rscale>  0 0.17774753E+04</rscale>
<asrwt>0</asrwt>
<pdfrwt beam="1">  1        2 0.21362558E+00 0.17774753E+04</pdfrwt>
<pdfrwt beam="2">  1       -2 0.87511912E-01 0.17774753E+04</pdfrwt>
<totfact> 0.15663434E+01</totfact>
</mgrwt>
</event>
<event>
 6    1  0.2236204E-005  0.1504342E+04  0.7818608E-02  0.8881571E-01
          2   -1    0    0  501    0  0.00000000000E+00  0.00000000000E+00  0.20742077214E+04  0.20742077214E+04  0.00000000000E+00 0. -1.
         -2   -1    0    0    0  501 -0.00000000000E+00 -0.00000000000E+00 -0.27276022384E+03  0.27276022384E+03  0.00000000000E+00 0.  1.
         23    2    1    2    0    0  0.48284715335E+03 -0.11542069985E+02  0.17980027510E+04  0.18639705755E+04  0.91092375475E+02 0.  0.
         11    1    3    3    0    0  0.14515199904E+03 -0.45243166134E+02  0.57270874357E+03  0.59254649764E+03  0.00000000000E+00 0.  1.
        -11    1    3    3    0    0  0.33769515430E+03  0.33701096149E+02  0.12252940074E+04  0.12714240779E+04  0.00000000000E+00 0. -1.
         22    1    1    2    0    0 -0.48284715335E+03  0.11542069985E+02  0.34447465500E+01  0.48299736972E+03  0.00000000000E+00 0.  1.
<mgrwt>
<rscale>  0 0.15043422E+04</rscale>
<asrwt>0</asrwt>
<pdfrwt beam="1">  1        2 0.31910887E+00 0.15043422E+04</pdfrwt>
<pdfrwt beam="2">  1       -2 0.41963113E-01 0.15043422E+04</pdfrwt>
<totfact> 0.31593358E+01</totfact>
</mgrwt>
</event>
<event>
 6    1  0.2236204E-005  0.6975773E+04  0.7818608E-02  0.7579939E-01
          2   -1    0    0  501    0  0.00000000000E+00  0.00000000000E+00  0.32142203384E+04  0.32142203384E+04  0.00000000000E+00 0. -1.
         -2   -1    0    0    0  501 -0.00000000000E+00 -0.00000000000E+00 -0.37848534555E+04  0.37848534555E+04  0.00000000000E+00 0.  1.
         23    2    1    2    0    0  0.20671377633E+04 -0.28037469433E+04 -0.11981360001E+03  0.34866254040E+04  0.90254942391E+02 0.  0.
         13    1    3    3    0    0  0.53634444103E+03 -0.78221568471E+03 -0.89815359468E+01  0.94847635965E+03  0.00000000000E+00 0.  1.
        -13    1    3    3    0    0  0.15307933223E+04 -0.20215312586E+04 -0.11083206406E+03  0.25381490444E+04  0.00000000000E+00 0. -1.
         22    1    1    2    0    0 -0.20671377633E+04  0.28037469433E+04 -0.45081951706E+03  0.35124483899E+04  0.00000000000E+00 0.  1.
<mgrwt>
<rscale>  0 0.69757732E+04</rscale>
<asrwt>0</asrwt>
<pdfrwt beam="1">  1        2 0.49449544E+00 0.69757732E+04</pdfrwt>
<pdfrwt beam="2">  1       -2 0.58228515E+00 0.69757732E+04</pdfrwt>
<totfact> 0.48936649E-04</totfact>
</mgrwt>
</event>
<event>
 6    1  0.2236204E-005  0.2804897E+04  0.7818608E-02  0.8301750E-01
          2   -1    0    0  501    0  0.00000000000E+00  0.00000000000E+00  0.16247814078E+04  0.16247814078E+04  0.00000000000E+00 0. -1.
         -2   -1    0    0    0  501 -0.00000000000E+00 -0.00000000000E+00 -0.12105395328E+04  0.12105395328E+04  0.00000000000E+00 0.  1.
         23    2    1    2    0    0  0.11923157809E+04  0.62159504357E+03 -0.19032567203E+03  0.13610417138E+04  0.90627620640E+02 0.  0.
         11    1    3    3    0    0  0.16453361769E+03  0.12174760209E+03 -0.35016043214E+02  0.20765334875E+03  0.00000000000E+00 0.  1.
        -11    1    3    3    0    0  0.10277821632E+04  0.49984744148E+03 -0.15530962882E+03  0.11533883650E+04  0.00000000000E+00 0. -1.
         22    1    1    2    0    0 -0.11923157809E+04 -0.62159504357E+03  0.60456754702E+03  0.14742792268E+04  0.00000000000E+00 0.  1.
<mgrwt>
<rscale>  0 0.28048972E+04</rscale>
<asrwt>0</asrwt>
<pdfrwt beam="1">  1        2 0.24996637E+00 0.28048972E+04</pdfrwt>
<pdfrwt beam="2">  1       -2 0.18623685E+00 0.28048972E+04</pdfrwt>
<totfact> 0.15442223E+00</totfact>
</mgrwt>
</event>
<event>
 6    1  0.2236204E-005  0.7125689E+03  0.7818608E-02  0.9695976E-01
         -1   -1    0    0    0  501 -0.00000000000E+00  0.00000000000E+00  0.88810749398E+02  0.88810749398E+02  0.00000000000E+00 0.  1.
          1   -1    0    0  501    0  0.00000000000E+00 -0.00000000000E+00 -0.14293158002E+04  0.14293158002E+04  0.00000000000E+00 0. -1.
         23    2    1    2    0    0 -0.57008019011E+02 -0.28842305490E+03 -0.27463142838E+03  0.41244831801E+03  0.90848339265E+02 0.  0.
         13    1    3    3    0    0 -0.21041261081E+02 -0.24223712678E+03 -0.25058793076E+03  0.34916453327E+03  0.00000000000E+00 0. -1.
        -13    1    3    3    0    0 -0.35966757931E+02 -0.46185928124E+02 -0.24043497627E+02  0.63283784739E+02  0.00000000000E+00 0.  1.
         22    1    1    2    0    0  0.57008019011E+02  0.28842305490E+03 -0.10658736224E+04  0.11056782316E+04  0.00000000000E+00 0. -1.
<mgrwt>
<rscale>  0 0.71256889E+03</rscale>
<asrwt>0</asrwt>
<pdfrwt beam="1">  1        1 0.21989473E+00 0.71256889E+03</pdfrwt>
<pdfrwt beam="2">  1       -1 0.13663193E-01 0.71256889E+03</pdfrwt>
<totfact> 0.28589674E+02</totfact>
</mgrwt>
</event>
<event>
 6    1  0.2236204E-005  0.1701049E+04  0.7818608E-02  0.8760767E-01
          2   -1    0    0  501    0  0.00000000000E+00  0.00000000000E+00  0.19418737012E+04  0.19418737012E+04  0.00000000000E+00 0. -1.
         -2   -1    0    0    0  501 -0.00000000000E+00 -0.00000000000E+00 -0.37252247497E+03  0.37252247497E+03  0.00000000000E+00 0.  1.
         23    2    1    2    0    0  0.30070447665E+03 -0.56274721214E+03  0.15470533429E+04  0.16759568269E+04  0.91376325280E+02 0.  0.
         13    1    3    3    0    0  0.20281881285E+03 -0.44304918143E+03  0.12363070342E+04  0.13288653546E+04  0.00000000000E+00 0.  1.
        -13    1    3    3    0    0  0.97885663802E+02 -0.11969803071E+03  0.31074630877E+03  0.34709147231E+03  0.00000000000E+00 0. -1.
         22    1    1    2    0    0 -0.30070447665E+03  0.56274721214E+03  0.22297883302E+02  0.63843934923E+03  0.00000000000E+00 0.  1.
<mgrwt>
<rscale>  0 0.17010486E+04</rscale>
<asrwt>0</asrwt>
<pdfrwt beam="1">  1        2 0.29874979E+00 0.17010486E+04</pdfrwt>
<pdfrwt beam="2">  1       -2 0.57311151E-01 0.17010486E+04</pdfrwt>
<totfact> 0.19536214E+01</totfact>
</mgrwt>
</event>
<event>
 6    1  0.2236204E-005  0.3110451E+04  0.7818608E-02  0.8212875E-01
         -2   -1    0    0    0  501 -0.00000000000E+00  0.00000000000E+00  0.91741303491E+03  0.91741303491E+03  0.00000000000E+00 0.  1.
          2   -1    0    0  501    0  0.00000000000E+00 -0.00000000000E+00 -0.26364646376E+04  0.26364646376E+04  0.00000000000E+00 0. -1.
         23    2    1    2    0    0  0.20267374052E+03 -0.40796146894E+03  0.83616570014E+03  0.95837296823E+03  0.10861152292E+03 0.  0.
         11    1    3    3    0    0  0.76257342542E+02 -0.15382553669E+03  0.42858938264E+03  0.46169940107E+03  0.00000000000E+00 0.  1.
        -11    1    3    3    0    0  0.12641639798E+03 -0.25413593225E+03  0.40757631750E+03  0.49667356717E+03  0.00000000000E+00 0. -1.
         22    1    1    2    0    0 -0.20267374052E+03  0.40796146894E+03 -0.25552173028E+04  0.25955047042E+04  0.00000000000E+00 0. -1.
<mgrwt>
<rscale>  0 0.31104514E+04</rscale>
<asrwt>0</asrwt>
<pdfrwt beam="1">  1        2 0.40560994E+00 0.31104514E+04</pdfrwt>
<pdfrwt beam="2">  1       -2 0.14114047E+00 0.31104514E+04</pdfrwt>
<totfact> 0.86371163E-01</totfact>
</mgrwt>
</event>
<event>
 6    1  0.2236204E-005  0.3531560E+04  0.7818608E-02  0.8106351E-01
          2   -1    0    0  501    0  0.00000000000E+00  0.00000000000E+00  0.10250157816E+04  0.10250157816E+04  0.00000000000E+00 0.  1.
         -2   -1    0    0    0  501 -0.00000000000E+00 -0.00000000000E+00 -0.30418831684E+04  0.30418831684E+04  0.00000000000E+00 0. -1.
         23    2    1    2    0    0 -0.15841107165E+04 -0.16533587591E+03 -0.18839341829E+04  0.24686455438E+04  0.90885099024E+02 0.  0.
         13    1    3    3    0    0 -0.12036814815E+04 -0.14214075399E+03 -0.13775559970E+04  0.18348606562E+04  0.00000000000E+00 0. -1.
        -13    1    3    3    0    0 -0.38042923503E+03 -0.23195121917E+02 -0.50637818595E+03  0.63378488760E+03  0.00000000000E+00 0.  1.
         22    1    1    2    0    0  0.15841107165E+04  0.16533587591E+03 -0.13293320390E+03  0.15982534063E+04  0.00000000000E+00 0. -1.
<mgrwt>
<rscale>  0 0.35315596E+04</rscale>
<asrwt>0</asrwt>
<pdfrwt beam="1">  1        2 0.15769474E+00 0.35315596E+04</pdfrwt>
<pdfrwt beam="2">  1       -2 0.46798202E+00 0.35315596E+04</pdfrwt>
<totfact> 0.52535298E-02</totfact>
</mgrwt>
</event>
<event>
 6    1  0.2236204E-005  0.5147521E+04  0.7818608E-02  0.7806145E-01
          2   -1    0    0  501    0  0.00000000000E+00  0.00000000000E+00  0.40926287528E+04  0.40926287528E+04  0.00000000000E+00 0.  1.
         -2   -1    0    0    0  501 -0.00000000000E+00 -0.00000000000E+00 -0.16185791005E+04  0.16185791005E+04  0.00000000000E+00 0. -1.
         23    2    1    2    0    0  0.15912613156E+04  0.51847947203E+03  0.34056831317E+04  0.37957772287E+04  0.91179158710E+02 0.  0.
         11    1    3    3    0    0  0.15395147790E+04  0.49999874976E+03  0.33262004158E+04  0.36991504039E+04  0.00000000000E+00 0. -1.
        -11    1    3    3    0    0  0.51746536652E+02  0.18480722271E+02  0.79482715848E+02  0.96626824793E+02  0.00000000000E+00 0.  1.
         22    1    1    2    0    0 -0.15912613156E+04 -0.51847947203E+03 -0.93163347938E+03  0.19154306246E+04  0.00000000000E+00 0. -1.
<mgrwt>
<rscale>  0 0.51475211E+04</rscale>
<asrwt>0</asrwt>
<pdfrwt beam="1">  1        2 0.62963519E+00 0.51475211E+04</pdfrwt>
<pdfrwt beam="2">  1       -2 0.24901217E+00 0.51475211E+04</pdfrwt>
<totfact> 0.13386308E-02</totfact>
</mgrwt>
</event>
<event>
 6    1  0.2236204E-005  0.2571304E+04  0.7818608E-02  0.8378014E-01
         -2   -1    0    0    0  501 -0.00000000000E+00  0.00000000000E+00  0.13224560267E+04  0.13224560267E+04  0.00000000000E+00 0.  1.
          2   -1    0    0  501    0  0.00000000000E+00 -0.00000000000E+00 -0.12498720069E+04  0.12498720069E+04  0.00000000000E+00 0. -1.
         23    2    1    2    0    0  0.11207876952E+03  0.22923395691E+03 -0.12225909548E+04  0.12522567960E+04  0.91151427066E+02 0.  0.
         11    1    3    3    0    0  0.84977470392E+02  0.14450683746E+03 -0.58693096875E+03  0.61040262010E+03  0.00000000000E+00 0. -1.
        -11    1    3    3    0    0  0.27101299129E+02  0.84727119446E+02 -0.63565998610E+03  0.64185417589E+03  0.00000000000E+00 0.  1.
         22    1    1    2    0    0 -0.11207876952E+03 -0.22923395691E+03  0.12951749746E+04  0.13200712377E+04  0.00000000000E+00 0.  1.
<mgrwt>
<rscale>  0 0.25713038E+04</rscale>
<asrwt>0</asrwt>
<pdfrwt beam="1">  1        2 0.19228800E+00 0.25713038E+04</pdfrwt>
<pdfrwt beam="2">  1       -2 0.20345477E+00 0.25713038E+04</pdfrwt>
<totfact> 0.19803365E+00</totfact>
</mgrwt>
</event>
<event>
 6    1  0.2236204E-005  0.2915409E+04  0.7818608E-02  0.8268307E-01
         -2   -1    0    0    0  501 -0.00000000000E+00  0.00000000000E+00  0.13047843726E+04  0.13047843726E+04  0.00000000000E+00 0.  1.
          2   -1    0    0  501    0  0.00000000000E+00 -0.00000000000E+00 -0.16285471409E+04  0.16285471409E+04  0.00000000000E+00 0. -1.
         23    2    1    2    0    0 -0.12247729128E+04 -0.26718744774E+02  0.63003520137E+03  0.13807487793E+04  0.93489342880E+02 0.  0.
         11    1    3    3    0    0 -0.11008925119E+04 -0.38365071341E+01  0.58705365833E+03  0.12476421920E+04  0.00000000000E+00 0. -1.
        -11    1    3    3    0    0 -0.12388040095E+03 -0.22882237640E+02  0.42981543041E+02  0.13310658729E+03  0.00000000000E+00 0.  1.
         22    1    1    2    0    0  0.12247729128E+04  0.26718744774E+02 -0.95379796966E+03  0.15525827341E+04  0.00000000000E+00 0. -1.
<mgrwt>
<rscale>  0 0.29154093E+04</rscale>
<asrwt>0</asrwt>
<pdfrwt beam="1">  1        2 0.25054571E+00 0.29154093E+04</pdfrwt>
<pdfrwt beam="2">  1       -2 0.20073606E+00 0.29154093E+04</pdfrwt>
<totfact> 0.12188288E+00</totfact>
</mgrwt>
</event>
<event>
 6    1  0.2236204E-005  0.1299440E+04  0.7818608E-02  0.9030010E-01
         -2   -1    0    0    0  501 -0.00000000000E+00  0.00000000000E+00  0.29491843286E+03  0.29491843286E+03  0.00000000000E+00 0.  1.
          2   -1    0    0  501    0  0.00000000000E+00 -0.00000000000E+00 -0.14313645464E+04  0.14313645464E+04  0.00000000000E+00 0. -1.
         23    2    1    2    0    0  0.26698650187E+03 -0.53482654599E+03 -0.89868629861E+03  0.10829704922E+04  0.88694966621E+02 0.  0.
         11    1    3    3    0    0  0.95419633693E+02 -0.26143749585E+03 -0.36064202181E+03  0.45554049065E+03  0.00000000000E+00 0. -1.
        -11    1    3    3    0    0  0.17156686818E+03 -0.27338905014E+03 -0.53804427680E+03  0.62743000151E+03  0.00000000000E+00 0.  1.
         22    1    1    2    0    0 -0.26698650187E+03  0.53482654599E+03 -0.23775981497E+03  0.64331248713E+03  0.00000000000E+00 0.  1.
<mgrwt>
<rscale>  0 0.12994396E+04</rscale>
<asrwt>0</asrwt>
<pdfrwt beam="1">  1        2 0.22020993E+00 0.12994396E+04</pdfrwt>
<pdfrwt beam="2">  1       -2 0.45372067E-01 0.12994396E+04</pdfrwt>
<totfact> 0.62674293E+01</totfact>
</mgrwt>
</event>
<event>
 6    1  0.2236204E-005  0.1325886E+04  0.7818608E-02  0.9009286E-01
         -1   -1    0    0    0  501 -0.00000000000E+00  0.00000000000E+00  0.41933541098E+03  0.41933541098E+03  0.00000000000E+00 0.  1.
          1   -1    0    0  501    0  0.00000000000E+00 -0.00000000000E+00 -0.10480707891E+04  0.10480707891E+04  0.00000000000E+00 0. -1.
         23    2    1    2    0    0 -0.19054224574E+03  0.28526815882E+03  0.30789398533E+03  0.46992996763E+03  0.91384891703E+02 0.  0.
         11    1    3    3    0    0 -0.85043147340E+02  0.13750547770E+03  0.85690349795E+02  0.18298341279E+03  0.00000000000E+00 0.  1.
        -11    1    3    3    0    0 -0.10549909840E+03  0.14776268112E+03  0.22220363553E+03  0.28694655485E+03  0.00000000000E+00 0. -1.
         22    1    1    2    0    0  0.19054224574E+03 -0.28526815882E+03 -0.93662936344E+03  0.99747623245E+03  0.00000000000E+00 0. -1.
<mgrwt>
<rscale>  0 0.13258857E+04</rscale>
<asrwt>0</asrwt>
<pdfrwt beam="1">  1        1 0.16124166E+00 0.13258857E+04</pdfrwt>
<pdfrwt beam="2">  1       -1 0.64513141E-01 0.13258857E+04</pdfrwt>
<totfact> 0.33179468E+01</totfact>
</mgrwt>
</event>
<event>
 6    1  0.2236204E-005  0.2282547E+04  0.7818608E-02  0.8484834E-01
         -2   -1    0    0    0  501 -0.00000000000E+00  0.00000000000E+00  0.40192259779E+03  0.40192259779E+03  0.00000000000E+00 0.  1.
          2   -1    0    0  501    0  0.00000000000E+00 -0.00000000000E+00 -0.32406877476E+04  0.32406877476E+04  0.00000000000E+00 0. -1.
         23    2    1    2    0    0  0.94852701629E+03 -0.49402430484E+03 -0.79465431541E+03  0.13356312346E+04  0.93122496396E+02 0.  0.
         13    1    3    3    0    0  0.28119254279E+03 -0.17888736824E+03 -0.28779747820E+03  0.44033773981E+03  0.00000000000E+00 0.  1.
        -13    1    3    3    0    0  0.66733447351E+03 -0.31513693660E+03 -0.50685683721E+03  0.89529349476E+03  0.00000000000E+00 0. -1.
         22    1    1    2    0    0 -0.94852701629E+03  0.49402430484E+03 -0.20441108344E+04  0.23069791108E+04  0.00000000000E+00 0. -1.
<mgrwt>
<rscale>  0 0.22825474E+04</rscale>
<asrwt>0</asrwt>
<pdfrwt beam="1">  1        2 0.49856737E+00 0.22825474E+04</pdfrwt>
<pdfrwt beam="2">  1       -2 0.61834243E-01 0.22825474E+04</pdfrwt>
<totfact> 0.26943347E+00</totfact>
</mgrwt>
</event>
<event>
 6    1  0.2236204E-005  0.1935313E+04  0.7818608E-02  0.8637476E-01
          2   -1    0    0  501    0  0.00000000000E+00  0.00000000000E+00  0.15192790361E+04  0.15192790361E+04  0.00000000000E+00 0. -1.
         -2   -1    0    0    0  501 -0.00000000000E+00 -0.00000000000E+00 -0.61631827779E+03  0.61631827779E+03  0.00000000000E+00 0.  1.
         23    2    1    2    0    0  0.59314296221E+02 -0.37945636543E+03  0.14299507666E+04  0.14835054585E+04  0.92325139442E+02 0.  0.
         11    1    3    3    0    0  0.68916109895E+01 -0.21418538392E+03  0.92905659693E+03  0.95345111741E+03  0.00000000000E+00 0.  1.
        -11    1    3    3    0    0  0.52422685231E+02 -0.16527098152E+03  0.50089416967E+03  0.53005434105E+03  0.00000000000E+00 0. -1.
         22    1    1    2    0    0 -0.59314296221E+02  0.37945636543E+03 -0.52699000832E+03  0.65209185539E+03  0.00000000000E+00 0.  1.
<mgrwt>
<rscale>  0 0.19353133E+04</rscale>
<asrwt>0</asrwt>
<pdfrwt beam="1">  1        2 0.23373523E+00 0.19353133E+04</pdfrwt>
<pdfrwt beam="2">  1       -2 0.94818197E-01 0.19353133E+04</pdfrwt>
<totfact> 0.10824601E+01</totfact>
</mgrwt>
</event>
<event>
 6    1  0.2236204E-005  0.1288167E+04  0.7818608E-02  0.9039002E-01
         -2   -1    0    0    0  501 -0.00000000000E+00  0.00000000000E+00  0.61950855117E+03  0.61950855117E+03  0.00000000000E+00 0.  1.
          2   -1    0    0  501    0  0.00000000000E+00 -0.00000000000E+00 -0.66963357524E+03  0.66963357524E+03  0.00000000000E+00 0. -1.
         23    2    1    2    0    0 -0.60228129948E+03  0.85086023501E+01 -0.24424072676E+03  0.65629454124E+03  0.90850603913E+02 0.  0.
         11    1    3    3    0    0 -0.34290934316E+03 -0.27918271094E+02 -0.10525056710E+03  0.35978316993E+03  0.00000000000E+00 0.  1.
        -11    1    3    3    0    0 -0.25937195632E+03  0.36426873444E+02 -0.13899015966E+03  0.29651137131E+03  0.00000000000E+00 0. -1.
         22    1    1    2    0    0  0.60228129948E+03 -0.85086023501E+01  0.19411570269E+03  0.63284758517E+03  0.00000000000E+00 0.  1.
<mgrwt>
<rscale>  0 0.12881673E+04</rscale>
<asrwt>0</asrwt>
<pdfrwt beam="1">  1        2 0.10302055E+00 0.12881673E+04</pdfrwt>
<pdfrwt beam="2">  1       -2 0.95309008E-01 0.12881673E+04</pdfrwt>
<totfact> 0.39325450E+01</totfact>
</mgrwt>
</event>
<event>
 6    1  0.2236204E-005  0.1358988E+04  0.7818608E-02  0.8984052E-01
          1   -1    0    0  501    0  0.00000000000E+00  0.00000000000E+00  0.14095504413E+04  0.14095504413E+04  0.00000000000E+00 0. -1.
         -1   -1    0    0    0  501 -0.00000000000E+00 -0.00000000000E+00 -0.32755983329E+03  0.32755983329E+03  0.00000000000E+00 0.  1.
         23    2    1    2    0    0  0.62001185344E+03  0.17777188822E+03  0.80533512783E+03  0.10352870794E+04  0.85071298959E+02 0.  0.
         11    1    3    3    0    0  0.29036217010E+03  0.70382102779E+02  0.30866605340E+03  0.42957951853E+03  0.00000000000E+00 0. -1.
        -11    1    3    3    0    0  0.32964968334E+03  0.10738978544E+03  0.49666907443E+03  0.60570756082E+03  0.00000000000E+00 0.  1.
         22    1    1    2    0    0 -0.62001185344E+03 -0.17777188822E+03  0.27665548015E+03  0.70182319522E+03  0.00000000000E+00 0.  1.
<mgrwt>
<rscale>  0 0.13589880E+04</rscale>
<asrwt>0</asrwt>
<pdfrwt beam="1">  1        1 0.21685391E+00 0.13589880E+04</pdfrwt>
<pdfrwt beam="2">  1       -1 0.50393821E-01 0.13589880E+04</pdfrwt>
<totfact> 0.29256481E+01</totfact>
</mgrwt>
</event>
<event>
 6    1  0.2236204E-005  0.3776133E+04  0.7818608E-02  0.8051296E-01
          2   -1    0    0  501    0  0.00000000000E+00  0.00000000000E+00  0.16133736542E+04  0.16133736542E+04  0.00000000000E+00 0. -1.
         -2   -1    0    0    0  501 -0.00000000000E+00 -0.00000000000E+00 -0.22095284919E+04  0.22095284919E+04  0.00000000000E+00 0.  1.
         23    2    1    2    0    0  0.28114183738E+03  0.79280310812E+03  0.14117926825E+04  0.16458787780E+04  0.90448176855E+02 0.  0.
         13    1    3    3    0    0  0.11081775982E+03  0.43337691901E+03  0.70802087399E+03  0.83749011207E+03  0.00000000000E+00 0.  1.
        -13    1    3    3    0    0  0.17032407757E+03  0.35942618911E+03  0.70377180851E+03  0.80838866597E+03  0.00000000000E+00 0. -1.
         22    1    1    2    0    0 -0.28114183738E+03 -0.79280310812E+03 -0.20079475202E+04  0.21770233680E+04  0.00000000000E+00 0.  1.
<mgrwt>
<rscale>  0 0.37761330E+04</rscale>
<asrwt>0</asrwt>
<pdfrwt beam="1">  1        2 0.24821133E+00 0.37761330E+04</pdfrwt>
<pdfrwt beam="2">  1       -2 0.33992746E+00 0.37761330E+04</pdfrwt>
<totfact> 0.15846357E-01</totfact>
</mgrwt>
</event>
<event>
 6    1  0.2236204E-005  0.8813107E+03  0.7818608E-02  0.9449250E-01
         -2   -1    0    0    0  501 -0.00000000000E+00  0.00000000000E+00  0.34636658640E+03  0.34636658640E+03  0.00000000000E+00 0. -1.
          2   -1    0    0  501    0  0.00000000000E+00 -0.00000000000E+00 -0.56061169268E+03  0.56061169268E+03  0.00000000000E+00 0.  1.
         23    2    1    2    0    0 -0.91908406863E+02 -0.30064658772E+03 -0.41890390330E+03  0.53185063526E+03  0.92461300363E+02 0.  0.
         11    1    3    3    0    0 -0.82144239005E+02 -0.28158992069E+03 -0.33505841104E+03  0.44531415680E+03  0.00000000000E+00 0. -1.
        -11    1    3    3    0    0 -0.97641678586E+01 -0.19056667033E+02 -0.83845492259E+02  0.86536478462E+02  0.00000000000E+00 0.  1.
         22    1    1    2    0    0  0.91908406863E+02  0.30064658772E+03  0.20465879702E+03  0.37512764382E+03  0.00000000000E+00 0. -1.
<mgrwt>
<rscale>  0 0.88131075E+03</rscale>
<asrwt>0</asrwt>
<pdfrwt beam="1">  1        2 0.86247952E-01 0.88131075E+03</pdfrwt>
<pdfrwt beam="2">  1       -2 0.53287168E-01 0.88131075E+03</pdfrwt>
<totfact> 0.17943858E+02</totfact>
</mgrwt>
</event>
<event>
 6    1  0.2236204E-005  0.1382924E+04  0.7818608E-02  0.8966272E-01
          2   -1    0    0  501    0  0.00000000000E+00  0.00000000000E+00  0.16462843614E+04  0.16462843614E+04  0.00000000000E+00 0. -1.
         -2   -1    0    0    0  501 -0.00000000000E+00 -0.00000000000E+00 -0.29042371757E+03  0.29042371757E+03  0.00000000000E+00 0.  1.
         23    2    1    2    0    0  0.62694147083E+03  0.22285405295E+02  0.28337393953E+03  0.69421865124E+03  0.89924963108E+02 0.  0.
         13    1    3    3    0    0  0.27243949912E+03  0.52511411291E+02  0.13797001715E+03  0.30986522010E+03  0.00000000000E+00 0.  1.
        -13    1    3    3    0    0  0.35450197171E+03 -0.30226005995E+02  0.14540392238E+03  0.38435343114E+03  0.00000000000E+00 0. -1.
         22    1    1    2    0    0 -0.62694147083E+03 -0.22285405295E+02  0.10724867043E+04  0.12424894278E+04  0.00000000000E+00 0. -1.
<mgrwt>
<rscale>  0 0.13829245E+04</rscale>
<asrwt>0</asrwt>
<pdfrwt beam="1">  1        2 0.25327451E+00 0.13829245E+04</pdfrwt>
<pdfrwt beam="2">  1       -2 0.44680573E-01 0.13829245E+04</pdfrwt>
<totfact> 0.48630274E+01</totfact>
</mgrwt>
</event>
<event>
 6    1  0.2236204E-005  0.2672225E+04  0.7818608E-02  0.8344073E-01
          2   -1    0    0  501    0  0.00000000000E+00  0.00000000000E+00  0.30852373070E+04  0.30852373070E+04  0.00000000000E+00 0. -1.
         -2   -1    0    0    0  501 -0.00000000000E+00 -0.00000000000E+00 -0.57862557596E+03  0.57862557596E+03  0.00000000000E+00 0.  1.
         23    2    1    2    0    0  0.43860469947E+03 -0.25576309966E+03  0.29469567871E+04  0.29917820739E+04  0.91743269028E+02 0.  0.
         13    1    3    3    0    0  0.42635378989E+03 -0.23414000751E+03  0.28695401723E+04  0.29104741706E+04  0.00000000000E+00 0. -1.
        -13    1    3    3    0    0  0.12250909571E+02 -0.21623092151E+02  0.77416614734E+02  0.81307903283E+02  0.00000000000E+00 0.  1.
         22    1    1    2    0    0 -0.43860469947E+03  0.25576309966E+03 -0.44034505601E+03  0.67208080905E+03  0.00000000000E+00 0.  1.
<mgrwt>
<rscale>  0 0.26722254E+04</rscale>
<asrwt>0</asrwt>
<pdfrwt beam="1">  1        2 0.47465188E+00 0.26722254E+04</pdfrwt>
<pdfrwt beam="2">  1       -2 0.89019321E-01 0.26722254E+04</pdfrwt>
<totfact> 0.14653791E+00</totfact>
</mgrwt>
</event>
<event>
 6    1  0.2236204E-005  0.1860217E+04  0.7818608E-02  0.8674917E-01
          2   -1    0    0  501    0  0.00000000000E+00  0.00000000000E+00  0.52144147626E+03  0.52144147626E+03  0.00000000000E+00 0. -1.
         -2   -1    0    0    0  501 -0.00000000000E+00 -0.00000000000E+00 -0.16590575811E+04  0.16590575811E+04  0.00000000000E+00 0.  1.
         23    2    1    2    0    0 -0.22410646936E+03 -0.65470245429E+03  0.15432653502E+03  0.71490197837E+03  0.91701395867E+02 0.  0.
         13    1    3    3    0    0 -0.84938710483E+02 -0.36628157054E+03  0.57711539253E+02  0.38040425237E+03  0.00000000000E+00 0. -1.
        -13    1    3    3    0    0 -0.13916775888E+03 -0.28842088375E+03  0.96614995767E+02  0.33449772600E+03  0.00000000000E+00 0.  1.
         22    1    1    2    0    0  0.22410646936E+03  0.65470245429E+03 -0.12919426399E+04  0.14655970790E+04  0.00000000000E+00 0.  1.
<mgrwt>
<rscale>  0 0.18602166E+04</rscale>
<asrwt>0</asrwt>
<pdfrwt beam="1">  1        2 0.80221767E-01 0.18602166E+04</pdfrwt>
<pdfrwt beam="2">  1       -2 0.25523962E+00 0.18602166E+04</pdfrwt>
<totfact> 0.32868558E+00</totfact>
</mgrwt>
</event>
<event>
 6    1  0.2236204E-005  0.1291547E+04  0.7818608E-02  0.9036296E-01
          2   -1    0    0  501    0  0.00000000000E+00  0.00000000000E+00  0.10504159818E+04  0.10504159818E+04  0.00000000000E+00 0. -1.
         -2   -1    0    0    0  501 -0.00000000000E+00 -0.00000000000E+00 -0.39700769346E+03  0.39700769346E+03  0.00000000000E+00 0.  1.
         23    2    1    2    0    0 -0.59708805399E+03 -0.23464911916E+03  0.29344195691E+03  0.71179461584E+03  0.94705014190E+02 0.  0.
         11    1    3    3    0    0 -0.97000098260E+02 -0.40070123857E+01  0.55997968692E+02  0.11207518775E+03  0.00000000000E+00 0. -1.
        -11    1    3    3    0    0 -0.50008795573E+03 -0.23064210677E+03  0.23744398822E+03  0.59971942809E+03  0.00000000000E+00 0.  1.
         22    1    1    2    0    0  0.59708805399E+03  0.23464911916E+03  0.35996633146E+03  0.73562905946E+03  0.00000000000E+00 0.  1.
<mgrwt>
<rscale>  0 0.12915467E+04</rscale>
<asrwt>0</asrwt>
<pdfrwt beam="1">  1        2 0.16160246E+00 0.12915467E+04</pdfrwt>
<pdfrwt beam="2">  1       -2 0.61078107E-01 0.12915467E+04</pdfrwt>
<totfact> 0.57225962E+01</totfact>
</mgrwt>
</event>
<event>
 6    1  0.2236204E-005  0.2230548E+04  0.7818608E-02  0.8505820E-01
          2   -1    0    0  501    0  0.00000000000E+00  0.00000000000E+00  0.13243105253E+04  0.13243105253E+04  0.00000000000E+00 0. -1.
         -2   -1    0    0    0  501 -0.00000000000E+00 -0.00000000000E+00 -0.93923262504E+03  0.93923262504E+03  0.00000000000E+00 0.  1.
         23    2    1    2    0    0 -0.91953397168E+03  0.34240520256E+03  0.72723089762E+03  0.12243835276E+04  0.86407154854E+02 0.  0.
         13    1    3    3    0    0 -0.65875302180E+03  0.23835375388E+03  0.56589635877E+03  0.90055912887E+03  0.00000000000E+00 0. -1.
        -13    1    3    3    0    0 -0.26078094989E+03  0.10405144868E+03  0.16133453885E+03  0.32382439875E+03  0.00000000000E+00 0.  1.
         22    1    1    2    0    0  0.91953397168E+03 -0.34240520256E+03 -0.34215299740E+03  0.10391596227E+04  0.00000000000E+00 0. -1.
<mgrwt>
<rscale>  0 0.22305476E+04</rscale>
<asrwt>0</asrwt>
<pdfrwt beam="1">  1        2 0.20374008E+00 0.22305476E+04</pdfrwt>
<pdfrwt beam="2">  1       -2 0.14449733E+00 0.22305476E+04</pdfrwt>
<totfact> 0.48250733E+00</totfact>
</mgrwt>
</event>
<event>
 6    1  0.2236204E-005  0.1702000E+04  0.7818608E-02  0.8760224E-01
         -2   -1    0    0    0  501 -0.00000000000E+00  0.00000000000E+00  0.51851379753E+03  0.51851379753E+03  0.00000000000E+00 0.  1.
          2   -1    0    0  501    0  0.00000000000E+00 -0.00000000000E+00 -0.13966864421E+04  0.13966864421E+04  0.00000000000E+00 0. -1.
         23    2    1    2    0    0  0.42889845213E+03 -0.72802272850E+03 -0.35287949055E+03  0.92026110929E+03  0.91572916137E+02 0.  0.
         13    1    3    3    0    0  0.24781359553E+03 -0.40725724267E+03 -0.15019294823E+03  0.49982793193E+03  0.00000000000E+00 0.  1.
        -13    1    3    3    0    0  0.18108485659E+03 -0.32076548583E+03 -0.20268654232E+03  0.42043317736E+03  0.00000000000E+00 0. -1.
         22    1    1    2    0    0 -0.42889845213E+03  0.72802272850E+03 -0.52529315405E+03  0.99493913037E+03  0.00000000000E+00 0. -1.
<mgrwt>
<rscale>  0 0.17020002E+04</rscale>
<asrwt>0</asrwt>
<pdfrwt beam="1">  1        2 0.21487484E+00 0.17020002E+04</pdfrwt>
<pdfrwt beam="2">  1       -2 0.79771354E-01 0.17020002E+04</pdfrwt>
<totfact> 0.19238137E+01</totfact>
</mgrwt>
</event>
<event>
 6    1  0.2236204E-005  0.2349210E+04  0.7818608E-02  0.8458767E-01
         -2   -1    0    0    0  501 -0.00000000000E+00  0.00000000000E+00  0.30961097871E+03  0.30961097871E+03  0.00000000000E+00 0.  1.
          2   -1    0    0  501    0  0.00000000000E+00 -0.00000000000E+00 -0.44562255332E+04  0.44562255332E+04  0.00000000000E+00 0. -1.
         23    2    1    2    0    0 -0.82632347491E+03 -0.61849487214E+03 -0.32063067917E+04  0.33695825663E+04  0.91307370797E+02 0.  0.
         11    1    3    3    0    0 -0.55401740402E+03 -0.46183368902E+03 -0.21730215944E+04  0.22895957045E+04  0.00000000000E+00 0.  1.
        -11    1    3    3    0    0 -0.27230607089E+03 -0.15666118312E+03 -0.10332851973E+04  0.10799868618E+04  0.00000000000E+00 0. -1.
         22    1    1    2    0    0  0.82632347491E+03  0.61849487214E+03 -0.94030776272E+03  0.13962539456E+04  0.00000000000E+00 0.  1.
<mgrwt>
<rscale>  0 0.23492095E+04</rscale>
<asrwt>0</asrwt>
<pdfrwt beam="1">  1        2 0.68557309E+00 0.23492095E+04</pdfrwt>
<pdfrwt beam="2">  1       -2 0.47632463E-01 0.23492095E+04</pdfrwt>
<totfact> 0.51611056E-01</totfact>
</mgrwt>
</event>
<event>
 6    1  0.2236204E-005  0.3484848E+04  0.7818608E-02  0.8117390E-01
          2   -1    0    0  501    0  0.00000000000E+00  0.00000000000E+00  0.87252671759E+03  0.87252671759E+03  0.00000000000E+00 0.  1.
         -2   -1    0    0    0  501 -0.00000000000E+00 -0.00000000000E+00 -0.34795977314E+04  0.34795977314E+04  0.00000000000E+00 0. -1.
         23    2    1    2    0    0  0.52654139595E+03  0.12704261036E+04  0.29396689171E+02  0.13785423877E+04  0.91030890420E+02 0.  0.
         11    1    3    3    0    0  0.48778932157E+03  0.11219531481E+04  0.45521705046E+02  0.12242505929E+04  0.00000000000E+00 0.  1.
        -11    1    3    3    0    0  0.38752074373E+02  0.14847295553E+03 -0.16125015876E+02  0.15429179475E+03  0.00000000000E+00 0. -1.
         22    1    1    2    0    0 -0.52654139595E+03 -0.12704261036E+04 -0.26364677030E+04  0.29735820613E+04  0.00000000000E+00 0. -1.
<mgrwt>
<rscale>  0 0.34848483E+04</rscale>
<asrwt>0</asrwt>
<pdfrwt beam="1">  1        2 0.13423488E+00 0.34848483E+04</pdfrwt>
<pdfrwt beam="2">  1       -2 0.53532271E+00 0.34848483E+04</pdfrwt>
<totfact> 0.25677694E-02</totfact>
</mgrwt>
</event>
<event>
 6    1  0.2236204E-005  0.1859384E+04  0.7818608E-02  0.8675342E-01
          2   -1    0    0  501    0  0.00000000000E+00  0.00000000000E+00  0.15245598894E+04  0.15245598894E+04  0.00000000000E+00 0. -1.
         -2   -1    0    0    0  501 -0.00000000000E+00 -0.00000000000E+00 -0.56693544387E+03  0.56693544387E+03  0.00000000000E+00 0.  1.
         23    2    1    2    0    0 -0.41010088090E+03 -0.16576426936E+02  0.14154638751E+04  0.14766177408E+04  0.91675843371E+02 0.  0.
         11    1    3    3    0    0 -0.24722003735E+03 -0.52797987177E+02  0.89916233840E+03  0.93402263629E+03  0.00000000000E+00 0. -1.
        -11    1    3    3    0    0 -0.16288084355E+03  0.36221560241E+02  0.51630153673E+03  0.54259510452E+03  0.00000000000E+00 0.  1.
         22    1    1    2    0    0  0.41010088090E+03  0.16576426936E+02 -0.45783942957E+03  0.61487759247E+03  0.00000000000E+00 0.  1.
<mgrwt>
<rscale>  0 0.18593838E+04</rscale>
<asrwt>0</asrwt>
<pdfrwt beam="1">  1        2 0.23454767E+00 0.18593838E+04</pdfrwt>
<pdfrwt beam="2">  1       -2 0.87220838E-01 0.18593838E+04</pdfrwt>
<totfact> 0.13122893E+01</totfact>
</mgrwt>
</event>
<event>
 6    1  0.2236204E-005  0.2367661E+04  0.7818608E-02  0.8451711E-01
          2   -1    0    0  501    0  0.00000000000E+00  0.00000000000E+00  0.32279176612E+04  0.32279176612E+04  0.00000000000E+00 0. -1.
         -2   -1    0    0    0  501 -0.00000000000E+00 -0.00000000000E+00 -0.43416671345E+03  0.43416671345E+03  0.00000000000E+00 0.  1.
         23    2    1    2    0    0 -0.39636573616E+03  0.10449792069E+04  0.19947693036E+04  0.22882361271E+04  0.88502310166E+02 0.  0.
         11    1    3    3    0    0 -0.11051080931E+03  0.39213092229E+03  0.77324952660E+03  0.87401037155E+03  0.00000000000E+00 0.  1.
        -11    1    3    3    0    0 -0.28585492685E+03  0.65284828463E+03  0.12215197770E+04  0.14142257555E+04  0.00000000000E+00 0. -1.
         22    1    1    2    0    0  0.39636573616E+03 -0.10449792069E+04  0.79898164412E+03  0.13738482476E+04  0.00000000000E+00 0.  1.
<mgrwt>
<rscale>  0 0.23676608E+04</rscale>
<asrwt>0</asrwt>
<pdfrwt beam="1">  1        2 0.49660270E+00 0.23676608E+04</pdfrwt>
<pdfrwt beam="2">  1       -2 0.66794881E-01 0.23676608E+04</pdfrwt>
<totfact> 0.23102093E+00</totfact>
</mgrwt>
</event>
<event>
 6    1  0.2236204E-005  0.3253253E+04  0.7818608E-02  0.8174893E-01
          2   -1    0    0  501    0  0.00000000000E+00  0.00000000000E+00  0.27674508794E+04  0.27674508794E+04  0.00000000000E+00 0.  1.
         -2   -1    0    0    0  501 -0.00000000000E+00 -0.00000000000E+00 -0.95608358416E+03  0.95608358416E+03  0.00000000000E+00 0. -1.
         23    2    1    2    0    0 -0.21708772756E+03  0.11734382511E+04 -0.35650589446E+03  0.12489115474E+04  0.92731816135E+02 0.  0.
         13    1    3    3    0    0 -0.14514854834E+03  0.94065114201E+03 -0.25826177900E+03  0.98620069891E+03  0.00000000000E+00 0.  1.
        -13    1    3    3    0    0 -0.71939179218E+02  0.23278710913E+03 -0.98244115454E+02  0.26271084847E+03  0.00000000000E+00 0. -1.
         22    1    1    2    0    0  0.21708772756E+03 -0.11734382511E+04  0.21678731897E+04  0.24746229162E+04  0.00000000000E+00 0.  1.
<mgrwt>
<rscale>  0 0.32532534E+04</rscale>
<asrwt>0</asrwt>
<pdfrwt beam="1">  1        2 0.42576167E+00 0.32532534E+04</pdfrwt>
<pdfrwt beam="2">  1       -2 0.14708978E+00 0.32532534E+04</pdfrwt>
<totfact> 0.63982341E-01</totfact>
</mgrwt>
</event>
<event>
 6    1  0.2236204E-005  0.3165533E+04  0.7818608E-02  0.8197979E-01
         -2   -1    0    0    0  501 -0.00000000000E+00  0.00000000000E+00  0.34818154551E+04  0.34818154551E+04  0.00000000000E+00 0.  1.
          2   -1    0    0  501    0  0.00000000000E+00 -0.00000000000E+00 -0.71949541261E+03  0.71949541261E+03  0.00000000000E+00 0. -1.
         23    2    1    2    0    0  0.27224909883E+03  0.81344773020E+03  0.31455526788E+04  0.32617982094E+04  0.94916397359E+02 0.  0.
         11    1    3    3    0    0  0.19304552453E+03  0.56190015359E+03  0.20065759729E+04  0.20926885798E+04  0.00000000000E+00 0.  1.
        -11    1    3    3    0    0  0.79203574303E+02  0.25154757660E+03  0.11389767059E+04  0.11691096296E+04  0.00000000000E+00 0. -1.
         22    1    1    2    0    0 -0.27224909883E+03 -0.81344773020E+03 -0.38323263627E+03  0.93951265829E+03  0.00000000000E+00 0. -1.
<mgrwt>
<rscale>  0 0.31655333E+04</rscale>
<asrwt>0</asrwt>
<pdfrwt beam="1">  1        2 0.11069160E+00 0.31655333E+04</pdfrwt>
<pdfrwt beam="2">  1       -2 0.53566391E+00 0.31655333E+04</pdfrwt>
<totfact> 0.33832403E-02</totfact>
</mgrwt>
</event>
<event>
 6    1  0.2236204E-005  0.4098705E+04  0.7818608E-02  0.7984925E-01
         -2   -1    0    0    0  501 -0.00000000000E+00  0.00000000000E+00  0.18098775667E+04  0.18098775667E+04  0.00000000000E+00 0.  1.
          2   -1    0    0  501    0  0.00000000000E+00 -0.00000000000E+00 -0.23205131674E+04  0.23205131674E+04  0.00000000000E+00 0. -1.
         23    2    1    2    0    0  0.67343891008E+02  0.20393989198E+04 -0.75923512467E+02  0.20440883223E+04  0.94071972658E+02 0.  0.
         11    1    3    3    0    0  0.93963826649E+01  0.32803980329E+03  0.22319490665E+02  0.32893246147E+03  0.00000000000E+00 0. -1.
        -11    1    3    3    0    0  0.57947508343E+02  0.17113591165E+04 -0.98243003132E+02  0.17151558608E+04  0.00000000000E+00 0.  1.
         22    1    1    2    0    0 -0.67343891008E+02 -0.20393989198E+04 -0.43471208832E+03  0.20863024118E+04  0.00000000000E+00 0. -1.
<mgrwt>
<rscale>  0 0.40987045E+04</rscale>
<asrwt>0</asrwt>
<pdfrwt beam="1">  1        2 0.35700203E+00 0.40987045E+04</pdfrwt>
<pdfrwt beam="2">  1       -2 0.27844270E+00 0.40987045E+04</pdfrwt>
<totfact> 0.14868875E-01</totfact>
</mgrwt>
</event>
<event>
 6    1  0.2236204E-005  0.3862334E+04  0.7818608E-02  0.8032909E-01
         -2   -1    0    0    0  501 -0.00000000000E+00  0.00000000000E+00  0.79790074080E+03  0.79790074080E+03  0.00000000000E+00 0.  1.
          2   -1    0    0  501    0  0.00000000000E+00 -0.00000000000E+00 -0.46740218262E+04  0.46740218262E+04  0.00000000000E+00 0. -1.
         23    2    1    2    0    0 -0.11757582151E+04  0.15539604898E+03  0.21798763370E+03  0.12094958502E+04  0.93841839128E+02 0.  0.
         13    1    3    3    0    0 -0.32931201229E+03  0.85792448074E+02  0.68808256851E+02  0.34719061306E+03  0.00000000000E+00 0. -1.
        -13    1    3    3    0    0 -0.84644620280E+03  0.69603600909E+02  0.14917937685E+03  0.86230523712E+03  0.00000000000E+00 0.  1.
         22    1    1    2    0    0  0.11757582151E+04 -0.15539604898E+03 -0.40941087191E+04  0.42624267168E+04  0.00000000000E+00 0. -1.
<mgrwt>
<rscale>  0 0.38623337E+04</rscale>
<asrwt>0</asrwt>
<pdfrwt beam="1">  1        2 0.71908029E+00 0.38623337E+04</pdfrwt>
<pdfrwt beam="2">  1       -2 0.12275396E+00 0.38623337E+04</pdfrwt>
<totfact> 0.32484660E-02</totfact>
</mgrwt>
</event>
<event>
 6    1  0.2236204E-005  0.5962112E+03  0.7818608E-02  0.9913298E-01
          2   -1    0    0  501    0  0.00000000000E+00  0.00000000000E+00  0.67806558483E+03  0.67806558483E+03  0.00000000000E+00 0. -1.
         -2   -1    0    0    0  501 -0.00000000000E+00 -0.00000000000E+00 -0.13105949890E+03  0.13105949890E+03  0.00000000000E+00 0.  1.
         23    2    1    2    0    0 -0.16906058752E+03  0.51691696333E+02  0.59376468913E+03  0.62625933873E+03  0.91600980177E+02 0.  0.
         11    1    3    3    0    0 -0.16711016072E+03  0.55386425788E+02  0.46165802011E+03  0.49408662147E+03  0.00000000000E+00 0.  1.
        -11    1    3    3    0    0 -0.19504267966E+01 -0.36947294544E+01  0.13210666901E+03  0.13217271726E+03  0.00000000000E+00 0. -1.
         22    1    1    2    0    0  0.16906058752E+03 -0.51691696333E+02 -0.46758603199E+02  0.18286574500E+03  0.00000000000E+00 0.  1.
<mgrwt>
<rscale>  0 0.59621116E+03</rscale>
<asrwt>0</asrwt>
<pdfrwt beam="1">  1        2 0.10431778E+00 0.59621116E+03</pdfrwt>
<pdfrwt beam="2">  1       -2 0.20163000E-01 0.59621116E+03</pdfrwt>
<totfact> 0.90146781E+02</totfact>
</mgrwt>
</event>
<event>
 6    1  0.2236204E-005  0.2202068E+04  0.7818608E-02  0.8517568E-01
         -2   -1    0    0    0  501 -0.00000000000E+00  0.00000000000E+00  0.17525542630E+04  0.17525542630E+04  0.00000000000E+00 0.  1.
          2   -1    0    0  501    0  0.00000000000E+00 -0.00000000000E+00 -0.69171935593E+03  0.69171935593E+03  0.00000000000E+00 0. -1.
         23    2    1    2    0    0  0.33240462095E+03 -0.43670190503E+03 -0.52599213023E+03  0.76521988775E+03  0.87706155221E+02 0.  0.
         11    1    3    3    0    0  0.30584800377E+03 -0.38510790313E+03 -0.43107309768E+03  0.65396874085E+03  0.00000000000E+00 0.  1.
        -11    1    3    3    0    0  0.26556617184E+02 -0.51594001904E+02 -0.94919032542E+02  0.11125114690E+03  0.00000000000E+00 0. -1.
         22    1    1    2    0    0 -0.33240462095E+03  0.43670190503E+03  0.15868270373E+04  0.16790537312E+04  0.00000000000E+00 0.  1.
<mgrwt>
<rscale>  0 0.22020679E+04</rscale>
<asrwt>0</asrwt>
<pdfrwt beam="1">  1        2 0.10641836E+00 0.22020679E+04</pdfrwt>
<pdfrwt beam="2">  1       -2 0.26962373E+00 0.22020679E+04</pdfrwt>
<totfact> 0.18522260E+00</totfact>
</mgrwt>
</event>
<event>
 6    1  0.2236204E-005  0.4294816E+04  0.7818608E-02  0.7947577E-01
          1   -1    0    0  501    0  0.00000000000E+00  0.00000000000E+00  0.46425557530E+04  0.46425557530E+04  0.00000000000E+00 0. -1.
         -1   -1    0    0    0  501 -0.00000000000E+00 -0.00000000000E+00 -0.99328091017E+03  0.99328091017E+03  0.00000000000E+00 0.  1.
         23    2    1    2    0    0  0.20245301492E+03  0.18875391098E+04  0.31397930318E+04  0.36702927614E+04  0.94644372665E+02 0.  0.
         13    1    3    3    0    0  0.10919918793E+03  0.12137263334E+04  0.20919720036E+04  0.24210334444E+04  0.00000000000E+00 0.  1.
        -13    1    3    3    0    0  0.93253826993E+02  0.67381277636E+03  0.10478210282E+04  0.12492593169E+04  0.00000000000E+00 0. -1.
         22    1    1    2    0    0 -0.20245301492E+03 -0.18875391098E+04  0.50948181103E+03  0.19655439018E+04  0.00000000000E+00 0.  1.
<mgrwt>
<rscale>  0 0.42948164E+04</rscale>
<asrwt>0</asrwt>
<pdfrwt beam="1">  1        1 0.71423933E+00 0.42948164E+04</pdfrwt>
<pdfrwt beam="2">  1       -1 0.15281245E+00 0.42948164E+04</pdfrwt>
<totfact> 0.57287370E-03</totfact>
</mgrwt>
</event>
<event>
 6    1  0.2236204E-005  0.1076664E+04  0.7818608E-02  0.9228240E-01
         -2   -1    0    0    0  501 -0.00000000000E+00  0.00000000000E+00  0.10250602200E+04  0.10250602200E+04  0.00000000000E+00 0.  1.
          2   -1    0    0  501    0  0.00000000000E+00 -0.00000000000E+00 -0.28271623661E+03  0.28271623661E+03  0.00000000000E+00 0. -1.
         23    2    1    2    0    0 -0.18537043921E+03 -0.21587368518E+03  0.92340427373E+03  0.97051324119E+03  0.90867215817E+02 0.  0.
         13    1    3    3    0    0 -0.55482271336E+02 -0.12868942054E+03  0.49435324981E+03  0.51383303221E+03  0.00000000000E+00 0.  1.
        -13    1    3    3    0    0 -0.12988816787E+03 -0.87184264639E+02  0.42905102391E+03  0.45668020898E+03  0.00000000000E+00 0. -1.
         22    1    1    2    0    0  0.18537043921E+03  0.21587368518E+03 -0.18106029039E+03  0.33726321537E+03  0.00000000000E+00 0. -1.
<mgrwt>
<rscale>  0 0.10766637E+04</rscale>
<asrwt>0</asrwt>
<pdfrwt beam="1">  1        2 0.43494806E-01 0.10766637E+04</pdfrwt>
<pdfrwt beam="2">  1       -2 0.15770157E+00 0.10766637E+04</pdfrwt>
<totfact> 0.30523325E+01</totfact>
</mgrwt>
</event>
<event>
 6    1  0.2236204E-005  0.3553768E+04  0.7818608E-02  0.8101165E-01
         -2   -1    0    0    0  501 -0.00000000000E+00  0.00000000000E+00  0.17321135934E+04  0.17321135934E+04  0.00000000000E+00 0.  1.
          2   -1    0    0  501    0  0.00000000000E+00 -0.00000000000E+00 -0.18228112598E+04  0.18228112598E+04  0.00000000000E+00 0. -1.
         23    2    1    2    0    0  0.57692293333E+03 -0.84604741136E+03 -0.14962945202E+04  0.18158622297E+04  0.99106270905E+02 0.  0.
         11    1    3    3    0    0  0.27294397872E+03 -0.33113215240E+03 -0.67770484133E+03  0.80214136525E+03  0.00000000000E+00 0. -1.
        -11    1    3    3    0    0  0.30397895462E+03 -0.51491525896E+03 -0.81858967882E+03  0.10137208645E+04  0.00000000000E+00 0.  1.
         22    1    1    2    0    0 -0.57692293333E+03  0.84604741136E+03  0.14055968538E+04  0.17390626235E+04  0.00000000000E+00 0.  1.
<mgrwt>
<rscale>  0 0.35537677E+04</rscale>
<asrwt>0</asrwt>
<pdfrwt beam="1">  1        2 0.28043250E+00 0.35537677E+04</pdfrwt>
<pdfrwt beam="2">  1       -2 0.26647902E+00 0.35537677E+04</pdfrwt>
<totfact> 0.34920375E-01</totfact>
</mgrwt>
</event>
<event>
 6    1  0.2236204E-005  0.1162093E+04  0.7818608E-02  0.9146699E-01
          2   -1    0    0  501    0  0.00000000000E+00  0.00000000000E+00  0.50623818770E+03  0.50623818770E+03  0.00000000000E+00 0. -1.
         -2   -1    0    0    0  501 -0.00000000000E+00 -0.00000000000E+00 -0.66690924796E+03  0.66690924796E+03  0.00000000000E+00 0.  1.
         23    2    1    2    0    0 -0.19792984830E+03 -0.31681570038E+03 -0.52539721710E+03  0.65106163587E+03  0.91052760068E+02 0.  0.
         13    1    3    3    0    0 -0.78670057225E+02 -0.55092751067E+02 -0.11343259009E+03  0.14863089052E+03  0.00000000000E+00 0. -1.
        -13    1    3    3    0    0 -0.11925979108E+03 -0.26172294932E+03 -0.41196462701E+03  0.50243074535E+03  0.00000000000E+00 0.  1.
         22    1    1    2    0    0  0.19792984830E+03  0.31681570038E+03  0.36472615683E+03  0.52208579978E+03  0.00000000000E+00 0. -1.
<mgrwt>
<rscale>  0 0.11620928E+04</rscale>
<asrwt>0</asrwt>
<pdfrwt beam="1">  1        2 0.77882798E-01 0.11620928E+04</pdfrwt>
<pdfrwt beam="2">  1       -2 0.10260142E+00 0.11620928E+04</pdfrwt>
<totfact> 0.46652805E+01</totfact>
</mgrwt>
</event>
<event>
 6    1  0.2236204E-005  0.2305691E+04  0.7818608E-02  0.8475681E-01
          2   -1    0    0  501    0  0.00000000000E+00  0.00000000000E+00  0.29575487877E+04  0.29575487877E+04  0.00000000000E+00 0.  1.
         -2   -1    0    0    0  501 -0.00000000000E+00 -0.00000000000E+00 -0.44937629559E+03  0.44937629559E+03  0.00000000000E+00 0. -1.
         23    2    1    2    0    0 -0.21286280811E+02 -0.54808742799E+03  0.27515925616E+04  0.28068365359E+04  0.78846554765E+02 0.  0.
         13    1    3    3    0    0 -0.26918939254E+02 -0.23495473226E+03  0.10108633562E+04  0.10381585044E+04  0.00000000000E+00 0.  1.
        -13    1    3    3    0    0  0.56326584425E+01 -0.31313269573E+03  0.17407292055E+04  0.17686780314E+04  0.00000000000E+00 0. -1.
         22    1    1    2    0    0  0.21286280811E+02  0.54808742799E+03 -0.24342006956E+03  0.60008854742E+03  0.00000000000E+00 0. -1.
<mgrwt>
<rscale>  0 0.23056906E+04</rscale>
<asrwt>0</asrwt>
<pdfrwt beam="1">  1        2 0.45500749E+00 0.23056906E+04</pdfrwt>
<pdfrwt beam="2">  1       -2 0.69134817E-01 0.23056906E+04</pdfrwt>
<totfact> 0.32057873E+00</totfact>
</mgrwt>
</event>
<event>
 6    1  0.2236204E-005  0.2739921E+04  0.7818608E-02  0.8322167E-01
         -1   -1    0    0    0  501 -0.00000000000E+00  0.00000000000E+00  0.12438966558E+04  0.12438966558E+04  0.00000000000E+00 0.  1.
          1   -1    0    0  501    0  0.00000000000E+00 -0.00000000000E+00 -0.15088002507E+04  0.15088002507E+04  0.00000000000E+00 0. -1.
         23    2    1    2    0    0 -0.59090611451E+03 -0.49319474355E+03 -0.12693753637E+04  0.14872425907E+04  0.90363811372E+02 0.  0.
         11    1    3    3    0    0 -0.13209913821E+03 -0.14653260973E+03 -0.27285476641E+03  0.33670715998E+03  0.00000000000E+00 0. -1.
        -11    1    3    3    0    0 -0.45880697631E+03 -0.34666213382E+03 -0.99652059728E+03  0.11505354307E+04  0.00000000000E+00 0.  1.
         22    1    1    2    0    0  0.59090611451E+03  0.49319474355E+03  0.10044717687E+04  0.12654543158E+04  0.00000000000E+00 0.  1.
<mgrwt>
<rscale>  0 0.27399209E+04</rscale>
<asrwt>0</asrwt>
<pdfrwt beam="1">  1        1 0.23212311E+00 0.27399209E+04</pdfrwt>
<pdfrwt beam="2">  1       -1 0.19136872E+00 0.27399209E+04</pdfrwt>
<totfact> 0.97017290E-01</totfact>
</mgrwt>
</event>
<event>
 6    1  0.2236204E-005  0.1867869E+04  0.7818608E-02  0.8671018E-01
          2   -1    0    0  501    0  0.00000000000E+00  0.00000000000E+00  0.15227876202E+04  0.15227876202E+04  0.00000000000E+00 0.  1.
         -2   -1    0    0    0  501 -0.00000000000E+00 -0.00000000000E+00 -0.57278723338E+03  0.57278723338E+03  0.00000000000E+00 0. -1.
         23    2    1    2    0    0 -0.83065535459E+03 -0.33894913985E+03  0.19318739637E+03  0.92184543843E+03  0.87194063521E+02 0.  0.
         13    1    3    3    0    0 -0.52555009594E+03 -0.17367294359E+03  0.98905200527E+02  0.56226989370E+03  0.00000000000E+00 0. -1.
        -13    1    3    3    0    0 -0.30510525866E+03 -0.16527619626E+03  0.94282195844E+02  0.35957554472E+03  0.00000000000E+00 0.  1.
         22    1    1    2    0    0  0.83065535459E+03  0.33894913985E+03  0.75681299050E+03  0.11737294152E+04  0.00000000000E+00 0.  1.
<mgrwt>
<rscale>  0 0.18678686E+04</rscale>
<asrwt>0</asrwt>
<pdfrwt beam="1">  1        2 0.23427502E+00 0.18678686E+04</pdfrwt>
<pdfrwt beam="2">  1       -2 0.88121113E-01 0.18678686E+04</pdfrwt>
<totfact> 0.12838082E+01</totfact>
</mgrwt>
</event>
<event>
 6    1  0.2236204E-005  0.1038558E+04  0.7818608E-02  0.9267238E-01
          2   -1    0    0  501    0  0.00000000000E+00  0.00000000000E+00  0.37193802561E+03  0.37193802561E+03  0.00000000000E+00 0. -1.
         -2   -1    0    0    0  501 -0.00000000000E+00 -0.00000000000E+00 -0.72498762725E+03  0.72498762725E+03  0.00000000000E+00 0.  1.
         23    2    1    2    0    0 -0.42851205078E+03 -0.10868534762E+03  0.10181735354E+03  0.46262365115E+03  0.90657524037E+02 0.  0.
         13    1    3    3    0    0 -0.21762211476E+03 -0.21935503340E+02  0.82518797164E+02  0.23377318714E+03  0.00000000000E+00 0.  1.
        -13    1    3    3    0    0 -0.21088993602E+03 -0.86749844283E+02  0.19298556378E+02  0.22885046400E+03  0.00000000000E+00 0. -1.
         22    1    1    2    0    0  0.42851205078E+03  0.10868534762E+03 -0.45486695518E+03  0.63430200171E+03  0.00000000000E+00 0.  1.
<mgrwt>
<rscale>  0 0.10385576E+04</rscale>
<asrwt>0</asrwt>
<pdfrwt beam="1">  1        2 0.57221236E-01 0.10385576E+04</pdfrwt>
<pdfrwt beam="2">  1       -2 0.11153656E+00 0.10385576E+04</pdfrwt>
<totfact> 0.54623639E+01</totfact>
</mgrwt>
</event>
<event>
 6    1  0.2236204E-005  0.1837760E+04  0.7818608E-02  0.8686473E-01
         -2   -1    0    0    0  501 -0.00000000000E+00  0.00000000000E+00  0.74163573087E+03  0.74163573087E+03  0.00000000000E+00 0.  1.
          2   -1    0    0  501    0  0.00000000000E+00 -0.00000000000E+00 -0.11384834368E+04  0.11384834368E+04  0.00000000000E+00 0. -1.
         23    2    1    2    0    0  0.38908751411E+03 -0.32374086802E+03 -0.98075931016E+03  0.11073643521E+04  0.90386617806E+02 0.  0.
         11    1    3    3    0    0  0.17749697758E+03 -0.17549795843E+03 -0.39640255831E+03  0.46844391201E+03  0.00000000000E+00 0.  1.
        -11    1    3    3    0    0  0.21159053652E+03 -0.14824290958E+03 -0.58435675186E+03  0.63892044014E+03  0.00000000000E+00 0. -1.
         22    1    1    2    0    0 -0.38908751411E+03  0.32374086802E+03  0.58391160426E+03  0.77275481548E+03  0.00000000000E+00 0.  1.
<mgrwt>
<rscale>  0 0.18377595E+04</rscale>
<asrwt>0</asrwt>
<pdfrwt beam="1">  1        2 0.17515130E+00 0.18377595E+04</pdfrwt>
<pdfrwt beam="2">  1       -2 0.11409781E+00 0.18377595E+04</pdfrwt>
<totfact> 0.11675243E+01</totfact>
</mgrwt>
</event>
<event>
 6    1  0.2236204E-005  0.2467277E+04  0.7818608E-02  0.8414737E-01
         -4   -1    0    0    0  501 -0.00000000000E+00  0.00000000000E+00  0.90489277601E+03  0.90489277601E+03  0.00000000000E+00 0.  1.
          4   -1    0    0  501    0  0.00000000000E+00 -0.00000000000E+00 -0.16818167611E+04  0.16818167611E+04  0.00000000000E+00 0. -1.
         23    2    1    2    0    0  0.35353622285E+03 -0.23012597969E+03 -0.16024941257E+04  0.16596108992E+04  0.91515498140E+02 0.  0.
         11    1    3    3    0    0  0.17751177987E+03 -0.80422531125E+02 -0.60108281060E+03  0.63188508505E+03  0.00000000000E+00 0. -1.
        -11    1    3    3    0    0  0.17602444298E+03 -0.14970344856E+03 -0.10014113151E+04  0.10277258141E+04  0.00000000000E+00 0.  1.
         22    1    1    2    0    0 -0.35353622285E+03  0.23012597969E+03  0.82557014060E+03  0.92709863793E+03  0.00000000000E+00 0.  1.
<mgrwt>
<rscale>  0 0.24672769E+04</rscale>
<asrwt>0</asrwt>
<pdfrwt beam="1">  1        4 0.25874104E+00 0.24672769E+04</pdfrwt>
<pdfrwt beam="2">  1       -4 0.13921427E+00 0.24672769E+04</pdfrwt>
<totfact> 0.36063102E-02</totfact>
</mgrwt>
</event>
<event>
 6    1  0.2236204E-005  0.1712980E+04  0.7818608E-02  0.8753996E-01
          2   -1    0    0  501    0  0.00000000000E+00  0.00000000000E+00  0.19847206588E+04  0.19847206588E+04  0.00000000000E+00 0. -1.
         -2   -1    0    0    0  501 -0.00000000000E+00 -0.00000000000E+00 -0.36961132626E+03  0.36961132626E+03  0.00000000000E+00 0.  1.
         23    2    1    2    0    0 -0.39484732760E+03  0.37484358376E+03  0.17144690048E+04  0.18009022525E+04  0.86213862548E+02 0.  0.
         11    1    3    3    0    0 -0.93390317771E+02  0.46268211809E+02  0.28258225206E+03  0.30118968783E+03  0.00000000000E+00 0.  1.
        -11    1    3    3    0    0 -0.30145700983E+03  0.32857537195E+03  0.14318867528E+04  0.14997125646E+04  0.00000000000E+00 0. -1.
         22    1    1    2    0    0  0.39484732760E+03 -0.37484358376E+03 -0.99359672309E+02  0.55342973256E+03  0.00000000000E+00 0.  1.
<mgrwt>
<rscale>  0 0.17129801E+04</rscale>
<asrwt>0</asrwt>
<pdfrwt beam="1">  1        2 0.30534163E+00 0.17129801E+04</pdfrwt>
<pdfrwt beam="2">  1       -2 0.56863282E-01 0.17129801E+04</pdfrwt>
<totfact> 0.18783453E+01</totfact>
</mgrwt>
</event>
<event>
 6    1  0.2236204E-005  0.1795745E+04  0.7818608E-02  0.8708565E-01
         -2   -1    0    0    0  501 -0.00000000000E+00  0.00000000000E+00  0.36134054026E+03  0.36134054026E+03  0.00000000000E+00 0.  1.
          2   -1    0    0  501    0  0.00000000000E+00 -0.00000000000E+00 -0.22310675645E+04  0.22310675645E+04  0.00000000000E+00 0. -1.
         23    2    1    2    0    0  0.35727347998E+03  0.19305343607E+02  0.24683593070E+03  0.44581643934E+03  0.99031737950E+02 0.  0.
         13    1    3    3    0    0  0.36032832314E+03  0.90600748308E+01  0.23780380603E+03  0.43182083735E+03  0.00000000000E+00 0.  1.
        -13    1    3    3    0    0 -0.30548431624E+01  0.10245268777E+02  0.90321246711E+01  0.13995601992E+02  0.00000000000E+00 0. -1.
         22    1    1    2    0    0 -0.35727347998E+03 -0.19305343607E+02 -0.21165629549E+04  0.21465916654E+04  0.00000000000E+00 0. -1.
<mgrwt>
<rscale>  0 0.17957451E+04</rscale>
<asrwt>0</asrwt>
<pdfrwt beam="1">  1        2 0.34324117E+00 0.17957451E+04</pdfrwt>
<pdfrwt beam="2">  1       -2 0.55590851E-01 0.17957451E+04</pdfrwt>
<totfact> 0.14246832E+01</totfact>
</mgrwt>
</event>
<event>
 6    1  0.2236204E-005  0.2035592E+04  0.7818608E-02  0.8590159E-01
          2   -1    0    0  501    0  0.00000000000E+00  0.00000000000E+00  0.26656209698E+04  0.26656209698E+04  0.00000000000E+00 0. -1.
         -2   -1    0    0    0  501 -0.00000000000E+00 -0.00000000000E+00 -0.38861816258E+03  0.38861816258E+03  0.00000000000E+00 0.  1.
         23    2    1    2    0    0 -0.46200418268E+03  0.76193545819E+03  0.18725524168E+04  0.20756822227E+04  0.89502114966E+02 0.  0.
         11    1    3    3    0    0 -0.39797925851E+03  0.62819128810E+03  0.14865671357E+04  0.16621954258E+04  0.00000000000E+00 0. -1.
        -11    1    3    3    0    0 -0.64024924165E+02  0.13374417009E+03  0.38598528114E+03  0.41348679689E+03  0.00000000000E+00 0.  1.
         22    1    1    2    0    0  0.46200418268E+03 -0.76193545819E+03  0.40445039042E+03  0.97855690973E+03  0.00000000000E+00 0. -1.
<mgrwt>
<rscale>  0 0.20355920E+04</rscale>
<asrwt>0</asrwt>
<pdfrwt beam="1">  1        2 0.41009552E+00 0.20355920E+04</pdfrwt>
<pdfrwt beam="2">  1       -2 0.59787411E-01 0.20355920E+04</pdfrwt>
<totfact> 0.67348080E+00</totfact>
</mgrwt>
</event>
<event>
 6    1  0.2613902E-005  0.2747108E+04  0.7818608E-02  0.8319880E-01
         -2   -1    0    0    0  501 -0.00000000000E+00  0.00000000000E+00  0.17006456269E+04  0.17006456269E+04  0.00000000000E+00 0.  1.
          2   -1    0    0  501    0  0.00000000000E+00 -0.00000000000E+00 -0.11093733939E+04  0.11093733939E+04  0.00000000000E+00 0. -1.
         23    2    1    2    0    0  0.81590735175E+03 -0.10566818161E+04 -0.27813718700E+02  0.13384386856E+04  0.91450778786E+02 0.  0.
         13    1    3    3    0    0  0.51002513263E+03 -0.64205610186E+03  0.26010120671E+02  0.82038905418E+03  0.00000000000E+00 0.  1.
        -13    1    3    3    0    0  0.30588221912E+03 -0.41462571427E+03 -0.53823839371E+02  0.51804963140E+03  0.00000000000E+00 0. -1.
         22    1    1    2    0    0 -0.81590735175E+03  0.10566818161E+04  0.61908595170E+03  0.14715803351E+04  0.00000000000E+00 0.  1.
<mgrwt>
<rscale>  0 0.27471083E+04</rscale>
<asrwt>0</asrwt>
<pdfrwt beam="1">  1        2 0.17067283E+00 0.27471083E+04</pdfrwt>
<pdfrwt beam="2">  1       -2 0.26163779E+00 0.27471083E+04</pdfrwt>
<totfact> 0.10242683E+00</totfact>
</mgrwt>
</event>
<event>
 6    1  0.2236204E-005  0.4653332E+04  0.7818608E-02  0.7884329E-01
         -2   -1    0    0    0  501 -0.00000000000E+00  0.00000000000E+00  0.22092779144E+04  0.22092779144E+04  0.00000000000E+00 0.  1.
          2   -1    0    0  501    0  0.00000000000E+00 -0.00000000000E+00 -0.24502909647E+04  0.24502909647E+04  0.00000000000E+00 0. -1.
         23    2    1    2    0    0  0.75187593112E+02  0.11938661919E+04 -0.21177716124E+04  0.24339920193E+04  0.91601799763E+02 0.  0.
         13    1    3    3    0    0  0.81566044771E+02  0.98037790828E+03 -0.16784914238E+04  0.19455403677E+04  0.00000000000E+00 0.  1.
        -13    1    3    3    0    0 -0.63784516589E+01  0.21348828364E+03 -0.43928018855E+03  0.48845165160E+03  0.00000000000E+00 0. -1.
         22    1    1    2    0    0 -0.75187593112E+02 -0.11938661919E+04  0.18767585620E+04  0.22255768597E+04  0.00000000000E+00 0.  1.
<mgrwt>
<rscale>  0 0.46533316E+04</rscale>
<asrwt>0</asrwt>
<pdfrwt beam="1">  1        2 0.37696784E+00 0.46533316E+04</pdfrwt>
<pdfrwt beam="2">  1       -2 0.33988891E+00 0.46533316E+04</pdfrwt>
<totfact> 0.50131838E-02</totfact>
</mgrwt>
</event>
<event>
 6    1  0.2236204E-005  0.2875088E+04  0.7818608E-02  0.8280328E-01
         -2   -1    0    0    0  501 -0.00000000000E+00  0.00000000000E+00  0.10429441887E+04  0.10429441887E+04  0.00000000000E+00 0.  1.
          2   -1    0    0  501    0  0.00000000000E+00 -0.00000000000E+00 -0.19814412965E+04  0.19814412965E+04  0.00000000000E+00 0. -1.
         23    2    1    2    0    0 -0.31639743323E+03 -0.86972873627E+03  0.68543584813E+03  0.11552429931E+04  0.90711965410E+02 0.  0.
         11    1    3    3    0    0 -0.19626712433E+03 -0.40804537446E+03  0.32633817972E+03  0.55813835136E+03  0.00000000000E+00 0.  1.
        -11    1    3    3    0    0 -0.12013030889E+03 -0.46168336181E+03  0.35909766841E+03  0.59710464170E+03  0.00000000000E+00 0. -1.
         22    1    1    2    0    0  0.31639743323E+03  0.86972873627E+03 -0.16239329560E+04  0.18691424922E+04  0.00000000000E+00 0. -1.
<mgrwt>
<rscale>  0 0.28750880E+04</rscale>
<asrwt>0</asrwt>
<pdfrwt beam="1">  1        2 0.30483712E+00 0.28750880E+04</pdfrwt>
<pdfrwt beam="2">  1       -2 0.16045295E+00 0.28750880E+04</pdfrwt>
<totfact> 0.14791584E+00</totfact>
</mgrwt>
</event>
<event>
 6    1  0.2236204E-005  0.1758025E+04  0.7818608E-02  0.8728945E-01
         -2   -1    0    0    0  501 -0.00000000000E+00  0.00000000000E+00  0.21053271238E+03  0.21053271238E+03  0.00000000000E+00 0. -1.
          2   -1    0    0  501    0  0.00000000000E+00 -0.00000000000E+00 -0.36700374807E+04  0.36700374807E+04  0.00000000000E+00 0.  1.
         23    2    1    2    0    0 -0.14338129422E+03 -0.53308173715E+03 -0.23129612413E+03  0.60550295950E+03  0.91660258095E+02 0.  0.
         13    1    3    3    0    0 -0.88482370955E+02 -0.44046603430E+03 -0.20924617392E+03  0.49560409466E+03  0.00000000000E+00 0. -1.
        -13    1    3    3    0    0 -0.54898923262E+02 -0.92615702848E+02 -0.22049950211E+02  0.10989886484E+03  0.00000000000E+00 0.  1.
         22    1    1    2    0    0  0.14338129422E+03  0.53308173715E+03 -0.32282086442E+04  0.32750672336E+04  0.00000000000E+00 0.  1.
<mgrwt>
<rscale>  0 0.17580250E+04</rscale>
<asrwt>0</asrwt>
<pdfrwt beam="1">  1        2 0.56462113E+00 0.17580250E+04</pdfrwt>
<pdfrwt beam="2">  1       -2 0.32389649E-01 0.17580250E+04</pdfrwt>
<totfact> 0.52218030E+00</totfact>
</mgrwt>
</event>
<event>
 6    1  0.2236204E-005  0.3943453E+04  0.7818608E-02  0.8016052E-01
         -2   -1    0    0    0  501 -0.00000000000E+00  0.00000000000E+00  0.11750698789E+04  0.11750698789E+04  0.00000000000E+00 0.  1.
          2   -1    0    0  501    0  0.00000000000E+00 -0.00000000000E+00 -0.33084884446E+04  0.33084884446E+04  0.00000000000E+00 0. -1.
         23    2    1    2    0    0  0.14885432153E+04 -0.18824121457E+03  0.38535858199E+03  0.15517612673E+04  0.90918289386E+02 0.  0.
         11    1    3    3    0    0  0.97136885451E+03 -0.16130742550E+03  0.23158329106E+03  0.10115376205E+04  0.00000000000E+00 0.  1.
        -11    1    3    3    0    0  0.51717436083E+03 -0.26933789065E+02  0.15377529093E+03  0.54022364683E+03  0.00000000000E+00 0. -1.
         22    1    1    2    0    0 -0.14885432153E+04  0.18824121457E+03 -0.25187771477E+04  0.29317970562E+04  0.00000000000E+00 0. -1.
<mgrwt>
<rscale>  0 0.39434529E+04</rscale>
<asrwt>0</asrwt>
<pdfrwt beam="1">  1        2 0.50899821E+00 0.39434529E+04</pdfrwt>
<pdfrwt beam="2">  1       -2 0.18077998E+00 0.39434529E+04</pdfrwt>
<totfact> 0.15583476E-01</totfact>
</mgrwt>
</event>
<event>
 6    1  0.2236204E-005  0.2267551E+04  0.7818608E-02  0.8490826E-01
         -2   -1    0    0    0  501 -0.00000000000E+00  0.00000000000E+00  0.82599460713E+03  0.82599460713E+03  0.00000000000E+00 0.  1.
          2   -1    0    0  501    0  0.00000000000E+00 -0.00000000000E+00 -0.15562408519E+04  0.15562408519E+04  0.00000000000E+00 0. -1.
         23    2    1    2    0    0  0.80796603841E+03 -0.52825210153E+03 -0.98671878166E+03  0.13834173754E+04  0.91489225790E+02 0.  0.
         13    1    3    3    0    0  0.52511843522E+03 -0.36153051763E+03 -0.59216341546E+03  0.87012136900E+03  0.00000000000E+00 0.  1.
        -13    1    3    3    0    0  0.28284760320E+03 -0.16672158390E+03 -0.39455536620E+03  0.51329600639E+03  0.00000000000E+00 0. -1.
         22    1    1    2    0    0 -0.80796603841E+03  0.52825210153E+03  0.25647253690E+03  0.99881808363E+03  0.00000000000E+00 0.  1.
<mgrwt>
<rscale>  0 0.22675507E+04</rscale>
<asrwt>0</asrwt>
<pdfrwt beam="1">  1        2 0.23942166E+00 0.22675507E+04</pdfrwt>
<pdfrwt beam="2">  1       -2 0.12707610E+00 0.22675507E+04</pdfrwt>
<totfact> 0.49352126E+00</totfact>
</mgrwt>
</event>
<event>
 6    1  0.2236204E-005  0.1039124E+04  0.7818608E-02  0.9266645E-01
         -2   -1    0    0    0  501 -0.00000000000E+00  0.00000000000E+00  0.28392368063E+03  0.28392368063E+03  0.00000000000E+00 0. -1.
          2   -1    0    0  501    0  0.00000000000E+00 -0.00000000000E+00 -0.95076485003E+03  0.95076485003E+03  0.00000000000E+00 0.  1.
         23    2    1    2    0    0  0.45927789296E+03 -0.81079542545E+02 -0.59656060335E+03  0.76304307786E+03  0.94021859273E+02 0.  0.
         11    1    3    3    0    0  0.37055768285E+03 -0.92360231891E+02 -0.43894273613E+03  0.58181967512E+03  0.00000000000E+00 0. -1.
        -11    1    3    3    0    0  0.88720210105E+02  0.11280689346E+02 -0.15761786722E+03  0.18122340274E+03  0.00000000000E+00 0.  1.
         22    1    1    2    0    0 -0.45927789296E+03  0.81079542545E+02 -0.70280566051E+02  0.47164545279E+03  0.00000000000E+00 0. -1.
<mgrwt>
<rscale>  0 0.10391240E+04</rscale>
<asrwt>0</asrwt>
<pdfrwt beam="1">  1        2 0.14627151E+00 0.10391240E+04</pdfrwt>
<pdfrwt beam="2">  1       -2 0.43680567E-01 0.10391240E+04</pdfrwt>
<totfact> 0.13420784E+02</totfact>
</mgrwt>
</event>
<event>
 6    1  0.2236204E-005  0.1226135E+04  0.7818608E-02  0.9090283E-01
          2   -1    0    0  501    0  0.00000000000E+00  0.00000000000E+00  0.16833195899E+04  0.16833195899E+04  0.00000000000E+00 0. -1.
         -2   -1    0    0    0  501 -0.00000000000E+00 -0.00000000000E+00 -0.22328002894E+03  0.22328002894E+03  0.00000000000E+00 0.  1.
         23    2    1    2    0    0  0.22919347768E+03  0.17259729753E+03 -0.10302783497E+03  0.31741770303E+03  0.88429554399E+02 0.  0.
         13    1    3    3    0    0  0.80370425253E+02  0.10566283247E+03 -0.72976203491E+02  0.15149114065E+03  0.00000000000E+00 0. -1.
        -13    1    3    3    0    0  0.14882305243E+03  0.66934465064E+02 -0.30051631482E+02  0.16592656238E+03  0.00000000000E+00 0.  1.
         22    1    1    2    0    0 -0.22919347768E+03 -0.17259729753E+03  0.15630673960E+04  0.15891819159E+04  0.00000000000E+00 0. -1.
<mgrwt>
<rscale>  0 0.12261348E+04</rscale>
<asrwt>0</asrwt>
<pdfrwt beam="1">  1        2 0.25897224E+00 0.12261348E+04</pdfrwt>
<pdfrwt beam="2">  1       -2 0.34350775E-01 0.12261348E+04</pdfrwt>
<totfact> 0.78346991E+01</totfact>
</mgrwt>
</event>
<event>
 6    1  0.2236204E-005  0.1043696E+04  0.7818608E-02  0.9261876E-01
          2   -1    0    0  501    0  0.00000000000E+00  0.00000000000E+00  0.15815731713E+04  0.15815731713E+04  0.00000000000E+00 0. -1.
         -2   -1    0    0    0  501 -0.00000000000E+00 -0.00000000000E+00 -0.17218649194E+03  0.17218649194E+03  0.00000000000E+00 0.  1.
         23    2    1    2    0    0  0.30201085783E+02 -0.34564154803E+03  0.64640352560E+02  0.36497498996E+03  0.92995606426E+02 0.  0.
         13    1    3    3    0    0  0.57775231040E+02 -0.14952388359E+03  0.41487908331E+02  0.16557963529E+03  0.00000000000E+00 0.  1.
        -13    1    3    3    0    0 -0.27574145257E+02 -0.19611766444E+03  0.23152444229E+02  0.19939535467E+03  0.00000000000E+00 0. -1.
         22    1    1    2    0    0 -0.30201085783E+02  0.34564154803E+03  0.13447463268E+04  0.13887846732E+04  0.00000000000E+00 0. -1.
<mgrwt>
<rscale>  0 0.10436964E+04</rscale>
<asrwt>0</asrwt>
<pdfrwt beam="1">  1        2 0.24331894E+00 0.10436964E+04</pdfrwt>
<pdfrwt beam="2">  1       -2 0.26490231E-01 0.10436964E+04</pdfrwt>
<totfact> 0.14676140E+02</totfact>
</mgrwt>
</event>
<event>
 6    1  0.2236204E-005  0.1611125E+04  0.7818608E-02  0.8813743E-01
         -2   -1    0    0    0  501 -0.00000000000E+00  0.00000000000E+00  0.11831841650E+04  0.11831841650E+04  0.00000000000E+00 0.  1.
          2   -1    0    0  501    0  0.00000000000E+00 -0.00000000000E+00 -0.54846120024E+03  0.54846120024E+03  0.00000000000E+00 0. -1.
         23    2    1    2    0    0  0.42009373452E+03  0.49222816939E+03  0.82928615225E+03  0.10559071390E+04  0.91962206057E+02 0.  0.
         11    1    3    3    0    0  0.20634406057E+03  0.17537140818E+03  0.36649974821E+03  0.45569185595E+03  0.00000000000E+00 0.  1.
        -11    1    3    3    0    0  0.21374967395E+03  0.31685676121E+03  0.46278640404E+03  0.60021528304E+03  0.00000000000E+00 0. -1.
         22    1    1    2    0    0 -0.42009373452E+03 -0.49222816939E+03 -0.19456318747E+03  0.67573822627E+03  0.00000000000E+00 0. -1.
<mgrwt>
<rscale>  0 0.16111246E+04</rscale>
<asrwt>0</asrwt>
<pdfrwt beam="1">  1        2 0.84378646E-01 0.16111246E+04</pdfrwt>
<pdfrwt beam="2">  1       -2 0.18202833E+00 0.16111246E+04</pdfrwt>
<totfact> 0.92827568E+00</totfact>
</mgrwt>
</event>
<event>
 6    1  0.2236204E-005  0.4570347E+03  0.7818608E-02  0.1025645E+00
         -2   -1    0    0    0  501 -0.00000000000E+00  0.00000000000E+00  0.13733076386E+04  0.13733076386E+04  0.00000000000E+00 0.  1.
          2   -1    0    0  501    0  0.00000000000E+00 -0.00000000000E+00 -0.38025109126E+02  0.38025109126E+02  0.00000000000E+00 0. -1.
         23    2    1    2    0    0  0.12845391460E+03  0.42906711218E+02  0.12267452014E+04  0.12377765734E+04  0.94051382872E+02 0.  0.
         13    1    3    3    0    0  0.19680123046E+02  0.50118914596E+02  0.50186147784E+03  0.50474167233E+03  0.00000000000E+00 0.  1.
        -13    1    3    3    0    0  0.10877379155E+03 -0.72122033772E+01  0.72488372353E+03  0.73303490111E+03  0.00000000000E+00 0. -1.
         22    1    1    2    0    0 -0.12845391460E+03 -0.42906711218E+02  0.10853732811E+03  0.17355617430E+03  0.00000000000E+00 0. -1.
<mgrwt>
<rscale>  0 0.45703467E+03</rscale>
<asrwt>0</asrwt>
<pdfrwt beam="1">  1        2 0.58500178E-02 0.45703467E+03</pdfrwt>
<pdfrwt beam="2">  1       -2 0.21127806E+00 0.45703467E+03</pdfrwt>
<totfact> 0.15544088E+02</totfact>
</mgrwt>
</event>
<event>
 6    1  0.2236204E-005  0.4329519E+04  0.7818608E-02  0.7941182E-01
         -2   -1    0    0    0  501 -0.00000000000E+00  0.00000000000E+00  0.29949323242E+04  0.29949323242E+04  0.00000000000E+00 0.  1.
          2   -1    0    0  501    0  0.00000000000E+00 -0.00000000000E+00 -0.15647043062E+04  0.15647043062E+04  0.00000000000E+00 0. -1.
         23    2    1    2    0    0  0.86378881596E+03 -0.19580099065E+04  0.10521230714E+04  0.23864138477E+04  0.89856456111E+02 0.  0.
         13    1    3    3    0    0  0.23174870742E+03 -0.51411700507E+03  0.32150073978E+03  0.64914288409E+03  0.00000000000E+00 0. -1.
        -13    1    3    3    0    0  0.63204010854E+03 -0.14438929014E+04  0.73062233163E+03  0.17372709636E+04  0.00000000000E+00 0.  1.
         22    1    1    2    0    0 -0.86378881596E+03  0.19580099065E+04  0.37810494663E+03  0.21732227827E+04  0.00000000000E+00 0.  1.
<mgrwt>
<rscale>  0 0.43295189E+04</rscale>
<asrwt>0</asrwt>
<pdfrwt beam="1">  1        2 0.24072374E+00 0.43295189E+04</pdfrwt>
<pdfrwt beam="2">  1       -2 0.46075882E+00 0.43295189E+04</pdfrwt>
<totfact> 0.26461592E-02</totfact>
</mgrwt>
</event>
<event>
 6    1  0.2236204E-005  0.4655048E+04  0.7818608E-02  0.7884041E-01
          2   -1    0    0  501    0  0.00000000000E+00  0.00000000000E+00  0.42627716275E+04  0.42627716275E+04  0.00000000000E+00 0. -1.
         -2   -1    0    0    0  501 -0.00000000000E+00 -0.00000000000E+00 -0.12708557093E+04  0.12708557093E+04  0.00000000000E+00 0.  1.
         23    2    1    2    0    0  0.17690514895E+04  0.11589432859E+04  0.34372037801E+03  0.21445814044E+04  0.91613260081E+02 0.  0.
         11    1    3    3    0    0  0.48242201040E+02  0.44186077454E+02 -0.12389465550E+01  0.65431295192E+02  0.00000000000E+00 0. -1.
        -11    1    3    3    0    0  0.17208092885E+04  0.11147572084E+04  0.34495932457E+03  0.20791501092E+04  0.00000000000E+00 0.  1.
         22    1    1    2    0    0 -0.17690514895E+04 -0.11589432859E+04  0.26481955402E+04  0.33890459323E+04  0.00000000000E+00 0. -1.
<mgrwt>
<rscale>  0 0.46550479E+04</rscale>
<asrwt>0</asrwt>
<pdfrwt beam="1">  1        2 0.65581101E+00 0.46550479E+04</pdfrwt>
<pdfrwt beam="2">  1       -2 0.19551626E+00 0.46550479E+04</pdfrwt>
<totfact> 0.21680161E-02</totfact>
</mgrwt>
</event>
<event>
 6    1  0.2236204E-005  0.2351021E+04  0.7818608E-02  0.8458072E-01
          2   -1    0    0  501    0  0.00000000000E+00  0.00000000000E+00  0.13307693607E+04  0.13307693607E+04  0.00000000000E+00 0. -1.
         -2   -1    0    0    0  501 -0.00000000000E+00 -0.00000000000E+00 -0.10383652732E+04  0.10383652732E+04  0.00000000000E+00 0.  1.
         23    2    1    2    0    0  0.18663557414E+03 -0.90540471779E+03  0.87485151289E+03  0.12765068181E+04  0.97539461449E+02 0.  0.
         13    1    3    3    0    0  0.20960954826E+02 -0.28681339862E+03  0.23704921214E+03  0.37268433859E+03  0.00000000000E+00 0. -1.
        -13    1    3    3    0    0  0.16567461932E+03 -0.61859131917E+03  0.63780230075E+03  0.90382247952E+03  0.00000000000E+00 0.  1.
         22    1    1    2    0    0 -0.18663557414E+03  0.90540471779E+03 -0.58244742540E+03  0.10926278158E+04  0.00000000000E+00 0.  1.
<mgrwt>
<rscale>  0 0.23510208E+04</rscale>
<asrwt>0</asrwt>
<pdfrwt beam="1">  1        2 0.20473375E+00 0.23510208E+04</pdfrwt>
<pdfrwt beam="2">  1       -2 0.15974850E+00 0.23510208E+04</pdfrwt>
<totfact> 0.36236130E+00</totfact>
</mgrwt>
</event>
<event>
 6    1  0.2236204E-005  0.9162537E+03  0.7818608E-02  0.9405489E-01
         -2   -1    0    0    0  501 -0.00000000000E+00  0.00000000000E+00  0.14796862776E+03  0.14796862776E+03  0.00000000000E+00 0.  1.
          2   -1    0    0  501    0  0.00000000000E+00 -0.00000000000E+00 -0.14184100763E+04  0.14184100763E+04  0.00000000000E+00 0. -1.
         23    2    1    2    0    0 -0.26684591312E+03  0.13726206941E+03 -0.12227485808E+04  0.12625329756E+04  0.93956402983E+02 0.  0.
         11    1    3    3    0    0 -0.21296167206E+03  0.14716356233E+03 -0.97301031844E+03  0.10068559319E+04  0.00000000000E+00 0. -1.
        -11    1    3    3    0    0 -0.53884241058E+02 -0.99014929196E+01 -0.24973826234E+03  0.25567704370E+03  0.00000000000E+00 0.  1.
         22    1    1    2    0    0  0.26684591312E+03 -0.13726206941E+03 -0.47692867729E+02  0.30384572842E+03  0.00000000000E+00 0.  1.
<mgrwt>
<rscale>  0 0.91625366E+03</rscale>
<asrwt>0</asrwt>
<pdfrwt beam="1">  1        2 0.21821693E+00 0.91625366E+03</pdfrwt>
<pdfrwt beam="2">  1       -2 0.22764405E-01 0.91625366E+03</pdfrwt>
<totfact> 0.24021411E+02</totfact>
</mgrwt>
</event>
<event>
 6    1  0.2236204E-005  0.1519092E+04  0.7818608E-02  0.8871855E-01
         -2   -1    0    0    0  501 -0.00000000000E+00  0.00000000000E+00  0.64658049774E+03  0.64658049774E+03  0.00000000000E+00 0.  1.
          2   -1    0    0  501    0  0.00000000000E+00 -0.00000000000E+00 -0.89224802581E+03  0.89224802581E+03  0.00000000000E+00 0. -1.
         23    2    1    2    0    0 -0.26779393928E+03  0.65536757397E+03  0.14785815427E+03  0.72883919424E+03  0.90134823166E+02 0.  0.
         11    1    3    3    0    0 -0.20224286640E+03  0.56632577316E+03  0.10606872420E+03  0.61063707111E+03  0.00000000000E+00 0. -1.
        -11    1    3    3    0    0 -0.65551072884E+02  0.89041800807E+02  0.41789430069E+02  0.11820212313E+03  0.00000000000E+00 0.  1.
         22    1    1    2    0    0  0.26779393928E+03 -0.65536757397E+03 -0.39352568235E+03  0.80998932931E+03  0.00000000000E+00 0.  1.
<mgrwt>
<rscale>  0 0.15190921E+04</rscale>
<asrwt>0</asrwt>
<pdfrwt beam="1">  1        2 0.13726893E+00 0.15190921E+04</pdfrwt>
<pdfrwt beam="2">  1       -2 0.99473923E-01 0.15190921E+04</pdfrwt>
<totfact> 0.23955160E+01</totfact>
</mgrwt>
</event>
<event>
 6    1  0.2236204E-005  0.1246199E+04  0.7818608E-02  0.9073353E-01
         -2   -1    0    0    0  501 -0.00000000000E+00  0.00000000000E+00  0.15837231673E+03  0.15837231673E+03  0.00000000000E+00 0.  1.
          2   -1    0    0  501    0  0.00000000000E+00 -0.00000000000E+00 -0.24515192660E+04  0.24515192660E+04  0.00000000000E+00 0. -1.
         23    2    1    2    0    0 -0.43508787465E+03  0.44117939713E+03 -0.11513885185E+04  0.13108330647E+04  0.92989697087E+02 0.  0.
         11    1    3    3    0    0 -0.11379759705E+03  0.64047823820E+02 -0.21843868780E+03  0.25449455231E+03  0.00000000000E+00 0.  1.
        -11    1    3    3    0    0 -0.32129027760E+03  0.37713157331E+03 -0.93294983075E+03  0.10563385124E+04  0.00000000000E+00 0. -1.
         22    1    1    2    0    0  0.43508787465E+03 -0.44117939713E+03 -0.11417584307E+04  0.12990585180E+04  0.00000000000E+00 0.  1.
<mgrwt>
<rscale>  0 0.12461987E+04</rscale>
<asrwt>0</asrwt>
<pdfrwt beam="1">  1        2 0.37715681E+00 0.12461987E+04</pdfrwt>
<pdfrwt beam="2">  1       -2 0.24364972E-01 0.12461987E+04</pdfrwt>
<totfact> 0.55182676E+01</totfact>
</mgrwt>
</event>
<event>
 6    1  0.2236204E-005  0.6573942E+04  0.7818608E-02  0.7623046E-01
          2   -1    0    0  501    0  0.00000000000E+00  0.00000000000E+00  0.35756347658E+04  0.35756347658E+04  0.00000000000E+00 0.  1.
         -2   -1    0    0    0  501 -0.00000000000E+00 -0.00000000000E+00 -0.30216112228E+04  0.30216112228E+04  0.00000000000E+00 0. -1.
         23    2    1    2    0    0  0.10829154532E+04  0.30670836792E+04 -0.19430280227E+03  0.32596270030E+04  0.87786363725E+02 0.  0.
         13    1    3    3    0    0  0.51754212421E+03  0.13753788268E+04 -0.56058862205E+02  0.14705983012E+04  0.00000000000E+00 0. -1.
        -13    1    3    3    0    0  0.56537332904E+03  0.16917048524E+04 -0.13824394007E+03  0.17890287018E+04  0.00000000000E+00 0.  1.
         22    1    1    2    0    0 -0.10829154532E+04 -0.30670836792E+04  0.74832634528E+03  0.33376189856E+04  0.00000000000E+00 0.  1.
<mgrwt>
<rscale>  0 0.65739419E+04</rscale>
<asrwt>0</asrwt>
<pdfrwt beam="1">  1        2 0.55009766E+00 0.65739419E+04</pdfrwt>
<pdfrwt beam="2">  1       -2 0.46486326E+00 0.65739419E+04</pdfrwt>
<totfact> 0.12889353E-03</totfact>
</mgrwt>
</event>
<event>
 6    1  0.2236204E-005  0.8891417E+03  0.7818608E-02  0.9439258E-01
         -2   -1    0    0    0  501 -0.00000000000E+00  0.00000000000E+00  0.17502752563E+03  0.17502752563E+03  0.00000000000E+00 0. -1.
          2   -1    0    0  501    0  0.00000000000E+00 -0.00000000000E+00 -0.11292123875E+04  0.11292123875E+04  0.00000000000E+00 0.  1.
         23    2    1    2    0    0  0.31726480813E+03  0.27151038711E+03 -0.68408397471E+03  0.80691774588E+03  0.93651029735E+02 0.  0.
         13    1    3    3    0    0  0.22322077510E+03  0.16167714502E+03 -0.37215764974E+03  0.46310725531E+03  0.00000000000E+00 0.  1.
        -13    1    3    3    0    0  0.94044033029E+02  0.10983324209E+03 -0.31192632497E+03  0.34381049057E+03  0.00000000000E+00 0. -1.
         22    1    1    2    0    0 -0.31726480813E+03 -0.27151038711E+03 -0.27010088713E+03  0.49732216723E+03  0.00000000000E+00 0. -1.
<mgrwt>
<rscale>  0 0.88914172E+03</rscale>
<asrwt>0</asrwt>
<pdfrwt beam="1">  1        2 0.17372499E+00 0.88914172E+03</pdfrwt>
<pdfrwt beam="2">  1       -2 0.26927311E-01 0.88914172E+03</pdfrwt>
<totfact> 0.26222195E+02</totfact>
</mgrwt>
</event>
<event>
 6    1  0.2236204E-005  0.3730707E+04  0.7818608E-02  0.8061191E-01
          4   -1    0    0  501    0  0.00000000000E+00  0.00000000000E+00  0.25086463669E+04  0.25086463669E+04  0.00000000000E+00 0. -1.
         -4   -1    0    0    0  501 -0.00000000000E+00 -0.00000000000E+00 -0.13870201094E+04  0.13870201094E+04  0.00000000000E+00 0.  1.
         23    2    1    2    0    0  0.47752140619E+03 -0.13833160160E+04  0.17671141008E+04  0.22962151801E+04  0.91225076761E+02 0.  0.
         11    1    3    3    0    0  0.19189250934E+03 -0.42629875236E+03  0.57014328004E+03  0.73730368315E+03  0.00000000000E+00 0.  1.
        -11    1    3    3    0    0  0.28562889685E+03 -0.95701726361E+03  0.11969708207E+04  0.15589114969E+04  0.00000000000E+00 0. -1.
         22    1    1    2    0    0 -0.47752140619E+03  0.13833160160E+04 -0.64548784327E+03  0.15994512963E+04  0.00000000000E+00 0.  1.
<mgrwt>
<rscale>  0 0.37307066E+04</rscale>
<asrwt>0</asrwt>
<pdfrwt beam="1">  1        4 0.38594559E+00 0.37307066E+04</pdfrwt>
<pdfrwt beam="2">  1       -4 0.21338771E+00 0.37307066E+04</pdfrwt>
<totfact> 0.14524766E-03</totfact>
</mgrwt>
</event>
<event>
 6    1  0.2236204E-005  0.4797432E+04  0.7818608E-02  0.7860538E-01
         -2   -1    0    0    0  501 -0.00000000000E+00  0.00000000000E+00  0.16042421337E+04  0.16042421337E+04  0.00000000000E+00 0.  1.
          2   -1    0    0  501    0  0.00000000000E+00 -0.00000000000E+00 -0.35866393101E+04  0.35866393101E+04  0.00000000000E+00 0. -1.
         23    2    1    2    0    0  0.21461194441E+04 -0.68896531738E+03 -0.18766734281E+04  0.29344064521E+04  0.91302757265E+02 0.  0.
         11    1    3    3    0    0  0.16919675958E+04 -0.55304533487E+03 -0.15280107304E+04  0.23459391041E+04  0.00000000000E+00 0. -1.
        -11    1    3    3    0    0  0.45415184831E+03 -0.13591998251E+03 -0.34866269770E+03  0.58846734806E+03  0.00000000000E+00 0.  1.
         22    1    1    2    0    0 -0.21461194441E+04  0.68896531738E+03 -0.10572374828E+03  0.22564749916E+04  0.00000000000E+00 0.  1.
<mgrwt>
<rscale>  0 0.47974318E+04</rscale>
<asrwt>0</asrwt>
<pdfrwt beam="1">  1        2 0.55179066E+00 0.47974318E+04</pdfrwt>
<pdfrwt beam="2">  1       -2 0.24680648E+00 0.47974318E+04</pdfrwt>
<totfact> 0.35030061E-02</totfact>
</mgrwt>
</event>
<event>
 6    1  0.2236204E-005  0.3516785E+04  0.7818608E-02  0.8109824E-01
          2   -1    0    0  501    0  0.00000000000E+00  0.00000000000E+00  0.29600473992E+04  0.29600473992E+04  0.00000000000E+00 0. -1.
         -2   -1    0    0    0  501 -0.00000000000E+00 -0.00000000000E+00 -0.10445589692E+04  0.10445589692E+04  0.00000000000E+00 0.  1.
         23    2    1    2    0    0 -0.16808488396E+04 -0.22160046905E+03  0.43242306122E+03  0.17520872281E+04  0.91980223188E+02 0.  0.
         13    1    3    3    0    0 -0.13455466275E+04 -0.20984057843E+03  0.36490403185E+03  0.14098523850E+04  0.00000000000E+00 0. -1.
        -13    1    3    3    0    0 -0.33530221206E+03 -0.11759890620E+02  0.67519029374E+02  0.34223484301E+03  0.00000000000E+00 0.  1.
         22    1    1    2    0    0  0.16808488396E+04  0.22160046905E+03  0.14830653688E+04  0.22525191403E+04  0.00000000000E+00 0.  1.
<mgrwt>
<rscale>  0 0.35167849E+04</rscale>
<asrwt>0</asrwt>
<pdfrwt beam="1">  1        2 0.45539190E+00 0.35167849E+04</pdfrwt>
<pdfrwt beam="2">  1       -2 0.16070138E+00 0.35167849E+04</pdfrwt>
<totfact> 0.37642848E-01</totfact>
</mgrwt>
</event>
<event>
 6    1  0.2236204E-005  0.1874681E+04  0.7818608E-02  0.8667563E-01
          2   -1    0    0  501    0  0.00000000000E+00  0.00000000000E+00  0.11340898989E+04  0.11340898989E+04  0.00000000000E+00 0.  1.
         -2   -1    0    0    0  501 -0.00000000000E+00 -0.00000000000E+00 -0.77472441226E+03  0.77472441226E+03  0.00000000000E+00 0. -1.
         23    2    1    2    0    0  0.24786955460E+03 -0.80721444831E+03  0.58907942486E+03  0.10337126170E+04  0.92264424909E+02 0.  0.
         11    1    3    3    0    0  0.88311881693E+02 -0.18686562673E+03  0.11241263094E+03  0.23527505285E+03  0.00000000000E+00 0.  1.
        -11    1    3    3    0    0  0.15955767291E+03 -0.62034882158E+03  0.47666679392E+03  0.79843756415E+03  0.00000000000E+00 0. -1.
         22    1    1    2    0    0 -0.24786955460E+03  0.80721444831E+03 -0.22971393823E+03  0.87510169414E+03  0.00000000000E+00 0. -1.
<mgrwt>
<rscale>  0 0.18746809E+04</rscale>
<asrwt>0</asrwt>
<pdfrwt beam="1">  1        2 0.17447537E+00 0.18746809E+04</pdfrwt>
<pdfrwt beam="2">  1       -2 0.11918837E+00 0.18746809E+04</pdfrwt>
<totfact> 0.10522964E+01</totfact>
</mgrwt>
</event>
<event>
 6    1  0.2236204E-005  0.2562033E+04  0.7818608E-02  0.8381213E-01
         -2   -1    0    0    0  501 -0.00000000000E+00  0.00000000000E+00  0.14006127257E+04  0.14006127257E+04  0.00000000000E+00 0. -1.
          2   -1    0    0  501    0  0.00000000000E+00 -0.00000000000E+00 -0.11716328502E+04  0.11716328502E+04  0.00000000000E+00 0.  1.
         23    2    1    2    0    0 -0.75380733987E+03  0.71329794000E+03 -0.63657504092E+03  0.12208741354E+04  0.91029747760E+02 0.  0.
         13    1    3    3    0    0 -0.37720837211E+03  0.35417048738E+03 -0.26409813224E+03  0.58092229564E+03  0.00000000000E+00 0. -1.
        -13    1    3    3    0    0 -0.37659896777E+03  0.35912745262E+03 -0.37247690868E+03  0.63995183978E+03  0.00000000000E+00 0.  1.
         22    1    1    2    0    0  0.75380733987E+03 -0.71329794000E+03  0.86555491643E+03  0.13513714405E+04  0.00000000000E+00 0. -1.
<mgrwt>
<rscale>  0 0.25620335E+04</rscale>
<asrwt>0</asrwt>
<pdfrwt beam="1">  1        2 0.18025121E+00 0.25620335E+04</pdfrwt>
<pdfrwt beam="2">  1       -2 0.21547888E+00 0.25620335E+04</pdfrwt>
<totfact> 0.18458365E+00</totfact>
</mgrwt>
</event>
<event>
 6    1  0.2236204E-005  0.6799601E+03  0.7818608E-02  0.9752130E-01
         -1   -1    0    0    0  501 -0.00000000000E+00  0.00000000000E+00  0.86295485534E+02  0.86295485534E+02  0.00000000000E+00 0.  1.
          1   -1    0    0  501    0  0.00000000000E+00 -0.00000000000E+00 -0.13394261454E+04  0.13394261454E+04  0.00000000000E+00 0. -1.
         23    2    1    2    0    0  0.28746830985E+03  0.12260709071E+03 -0.38993604873E+03  0.50769360056E+03  0.89622218693E+02 0.  0.
         11    1    3    3    0    0  0.54063330873E+02 -0.11084475805E+02 -0.52528786665E+02  0.76190437572E+02  0.00000000000E+00 0. -1.
        -11    1    3    3    0    0  0.23340497898E+03  0.13369156652E+03 -0.33740726207E+03  0.43150316299E+03  0.00000000000E+00 0.  1.
         22    1    1    2    0    0 -0.28746830985E+03 -0.12260709071E+03 -0.86319461109E+03  0.91802803033E+03  0.00000000000E+00 0. -1.
<mgrwt>
<rscale>  0 0.67996009E+03</rscale>
<asrwt>0</asrwt>
<pdfrwt beam="1">  1        1 0.20606556E+00 0.67996009E+03</pdfrwt>
<pdfrwt beam="2">  1       -1 0.13276229E-01 0.67996009E+03</pdfrwt>
<totfact> 0.34649561E+02</totfact>
</mgrwt>
</event>
<event>
 6    1  0.2236204E-005  0.1087142E+04  0.7818608E-02  0.9217815E-01
          2   -1    0    0  501    0  0.00000000000E+00  0.00000000000E+00  0.11279686974E+04  0.11279686974E+04  0.00000000000E+00 0. -1.
         -2   -1    0    0    0  501 -0.00000000000E+00 -0.00000000000E+00 -0.26194837780E+03  0.26194837780E+03  0.00000000000E+00 0.  1.
         23    2    1    2    0    0  0.18075094395E+03 -0.28717439457E+02 -0.21319563259E+03  0.29529263434E+03  0.90828228389E+02 0.  0.
         13    1    3    3    0    0  0.13790043168E+03 -0.33511497484E+02 -0.98466537565E+02  0.17272871371E+03  0.00000000000E+00 0.  1.
        -13    1    3    3    0    0  0.42850512270E+02  0.47940580274E+01 -0.11472909503E+03  0.12256392063E+03  0.00000000000E+00 0. -1.
         22    1    1    2    0    0 -0.18075094395E+03  0.28717439457E+02  0.10792159522E+04  0.10946244409E+04  0.00000000000E+00 0. -1.
<mgrwt>
<rscale>  0 0.10871423E+04</rscale>
<asrwt>0</asrwt>
<pdfrwt beam="1">  1        2 0.17353364E+00 0.10871423E+04</pdfrwt>
<pdfrwt beam="2">  1       -2 0.40299751E-01 0.10871423E+04</pdfrwt>
<totfact> 0.12116984E+02</totfact>
</mgrwt>
</event>
<event>
 6    1  0.2236204E-005  0.1922738E+04  0.7818608E-02  0.8643620E-01
          2   -1    0    0  501    0  0.00000000000E+00  0.00000000000E+00  0.15725104391E+04  0.15725104391E+04  0.00000000000E+00 0. -1.
         -2   -1    0    0    0  501 -0.00000000000E+00 -0.00000000000E+00 -0.58774182258E+03  0.58774182258E+03  0.00000000000E+00 0.  1.
         23    2    1    2    0    0  0.34279922986E+03  0.30060764900E+03  0.14414667368E+04  0.15149233195E+04  0.96384852713E+02 0.  0.
         11    1    3    3    0    0  0.17704173277E+03  0.94354674604E+02  0.57825203738E+03  0.61206372094E+03  0.00000000000E+00 0. -1.
        -11    1    3    3    0    0  0.16575749709E+03  0.20625297439E+03  0.86321469946E+03  0.90285959852E+03  0.00000000000E+00 0.  1.
         22    1    1    2    0    0 -0.34279922986E+03 -0.30060764900E+03 -0.45669812028E+03  0.64532894224E+03  0.00000000000E+00 0.  1.
<mgrwt>
<rscale>  0 0.19227378E+04</rscale>
<asrwt>0</asrwt>
<pdfrwt beam="1">  1        2 0.24192468E+00 0.19227378E+04</pdfrwt>
<pdfrwt beam="2">  1       -2 0.90421819E-01 0.19227378E+04</pdfrwt>
<totfact> 0.11293366E+01</totfact>
</mgrwt>
</event>
<event>
 6    1  0.2236204E-005  0.2289453E+04  0.7818608E-02  0.8482091E-01
         -2   -1    0    0    0  501 -0.00000000000E+00  0.00000000000E+00  0.10056902202E+04  0.10056902202E+04  0.00000000000E+00 0.  1.
          2   -1    0    0  501    0  0.00000000000E+00 -0.00000000000E+00 -0.13029843495E+04  0.13029843495E+04  0.00000000000E+00 0. -1.
         23    2    1    2    0    0  0.99401240742E+03  0.31178114551E+03 -0.62298804922E+03  0.12171871999E+04  0.90346120010E+02 0.  0.
         11    1    3    3    0    0  0.46634835500E+03  0.19163083569E+03 -0.31543656180E+03  0.59472967802E+03  0.00000000000E+00 0. -1.
        -11    1    3    3    0    0  0.52766405242E+03  0.12015030982E+03 -0.30755148742E+03  0.62245752191E+03  0.00000000000E+00 0.  1.
         22    1    1    2    0    0 -0.99401240742E+03 -0.31178114551E+03  0.32569391999E+03  0.10914873697E+04  0.00000000000E+00 0.  1.
<mgrwt>
<rscale>  0 0.22894529E+04</rscale>
<asrwt>0</asrwt>
<pdfrwt beam="1">  1        2 0.20045913E+00 0.22894529E+04</pdfrwt>
<pdfrwt beam="2">  1       -2 0.15472157E+00 0.22894529E+04</pdfrwt>
<totfact> 0.41218428E+00</totfact>
</mgrwt>
</event>
<event>
 6    1  0.2236204E-005  0.2373637E+04  0.7818608E-02  0.8449440E-01
         -2   -1    0    0    0  501 -0.00000000000E+00  0.00000000000E+00  0.13478041861E+04  0.13478041861E+04  0.00000000000E+00 0.  1.
          2   -1    0    0  501    0  0.00000000000E+00 -0.00000000000E+00 -0.10450616145E+04  0.10450616145E+04  0.00000000000E+00 0. -1.
         23    2    1    2    0    0 -0.10520756199E+04 -0.21401845061E+03  0.65730213566E+03  0.12622113478E+04  0.92002074559E+02 0.  0.
         13    1    3    3    0    0 -0.72118747952E+03 -0.16800770404E+03  0.49576215120E+03  0.89113303148E+03  0.00000000000E+00 0.  1.
        -13    1    3    3    0    0 -0.33088814041E+03 -0.46010746562E+02  0.16153998446E+03  0.37107831632E+03  0.00000000000E+00 0. -1.
         22    1    1    2    0    0  0.10520756199E+04  0.21401845061E+03 -0.35455956407E+03  0.11306544528E+04  0.00000000000E+00 0.  1.
<mgrwt>
<rscale>  0 0.23736372E+04</rscale>
<asrwt>0</asrwt>
<pdfrwt beam="1">  1        2 0.16077871E+00 0.23736372E+04</pdfrwt>
<pdfrwt beam="2">  1       -2 0.20735449E+00 0.23736372E+04</pdfrwt>
<totfact> 0.25300345E+00</totfact>
</mgrwt>
</event>
<event>
 6    1  0.2236204E-005  0.2669758E+04  0.7818608E-02  0.8344885E-01
         -2   -1    0    0    0  501 -0.00000000000E+00  0.00000000000E+00  0.10869276951E+04  0.10869276951E+04  0.00000000000E+00 0.  1.
          2   -1    0    0  501    0  0.00000000000E+00 -0.00000000000E+00 -0.16393934593E+04  0.16393934593E+04  0.00000000000E+00 0. -1.
         23    2    1    2    0    0  0.38163019302E+03  0.50124523937E+03  0.92347580861E+03  0.11215495443E+04  0.90429072153E+02 0.  0.
         11    1    3    3    0    0  0.18702090473E+03  0.17264483419E+03  0.37348363740E+03  0.45196580068E+03  0.00000000000E+00 0. -1.
        -11    1    3    3    0    0  0.19460928829E+03  0.32860040517E+03  0.54999217120E+03  0.66958374365E+03  0.00000000000E+00 0.  1.
         22    1    1    2    0    0 -0.38163019302E+03 -0.50124523937E+03 -0.14759415728E+04  0.16047716101E+04  0.00000000000E+00 0. -1.
<mgrwt>
<rscale>  0 0.26697582E+04</rscale>
<asrwt>0</asrwt>
<pdfrwt beam="1">  1        2 0.25221438E+00 0.26697582E+04</pdfrwt>
<pdfrwt beam="2">  1       -2 0.16721965E+00 0.26697582E+04</pdfrwt>
<totfact> 0.20805070E+00</totfact>
</mgrwt>
</event>
<event>
 6    1  0.2236204E-005  0.2849102E+04  0.7818608E-02  0.8288184E-01
          2   -1    0    0  501    0  0.00000000000E+00  0.00000000000E+00  0.36151800029E+04  0.36151800029E+04  0.00000000000E+00 0. -1.
         -2   -1    0    0    0  501 -0.00000000000E+00 -0.00000000000E+00 -0.56134000621E+03  0.56134000621E+03  0.00000000000E+00 0.  1.
         23    2    1    2    0    0  0.86787201562E+03  0.46198128316E+03  0.20182384592E+02  0.98752219648E+03  0.90356064528E+02 0.  0.
         13    1    3    3    0    0  0.36952272089E+03  0.19303688552E+03  0.53120569509E+02  0.42027618934E+03  0.00000000000E+00 0. -1.
        -13    1    3    3    0    0  0.49834929473E+03  0.26894439765E+03 -0.32938184917E+02  0.56724600713E+03  0.00000000000E+00 0.  1.
         22    1    1    2    0    0 -0.86787201562E+03 -0.46198128316E+03  0.30336576121E+04  0.31889978126E+04  0.00000000000E+00 0. -1.
<mgrwt>
<rscale>  0 0.28491017E+04</rscale>
<asrwt>0</asrwt>
<pdfrwt beam="1">  1        2 0.55618153E+00 0.28491017E+04</pdfrwt>
<pdfrwt beam="2">  1       -2 0.86360003E-01 0.28491017E+04</pdfrwt>
<totfact> 0.67783520E-01</totfact>
</mgrwt>
</event>
<event>
 6    1  0.2236204E-005  0.5028151E+04  0.7818608E-02  0.7824179E-01
         -2   -1    0    0    0  501 -0.00000000000E+00  0.00000000000E+00  0.22526441753E+04  0.22526441753E+04  0.00000000000E+00 0.  1.
          2   -1    0    0  501    0  0.00000000000E+00 -0.00000000000E+00 -0.28058475110E+04  0.28058475110E+04  0.00000000000E+00 0. -1.
         23    2    1    2    0    0  0.20818561025E+04  0.13193822205E+04 -0.77151532243E+03  0.25841120876E+04  0.86632057346E+02 0.  0.
         13    1    3    3    0    0  0.14281650571E+04  0.86203039368E+03 -0.50317291447E+03  0.17423934148E+04  0.00000000000E+00 0.  1.
        -13    1    3    3    0    0  0.65369104538E+03  0.45735182678E+03 -0.26834240796E+03  0.84171867282E+03  0.00000000000E+00 0. -1.
         22    1    1    2    0    0 -0.20818561025E+04 -0.13193822205E+04  0.21831198668E+03  0.24743795987E+04  0.00000000000E+00 0.  1.
<mgrwt>
<rscale>  0 0.50281512E+04</rscale>
<asrwt>0</asrwt>
<pdfrwt beam="1">  1        2 0.43166885E+00 0.50281512E+04</pdfrwt>
<pdfrwt beam="2">  1       -2 0.34656064E+00 0.50281512E+04</pdfrwt>
<totfact> 0.27244263E-02</totfact>
</mgrwt>
</event>
<event>
 6    1  0.2236204E-005  0.2894909E+04  0.7818608E-02  0.8274394E-01
         -2   -1    0    0    0  501 -0.00000000000E+00  0.00000000000E+00  0.66959890769E+03  0.66959890769E+03  0.00000000000E+00 0. -1.
          2   -1    0    0  501    0  0.00000000000E+00 -0.00000000000E+00 -0.31289237297E+04  0.31289237297E+04  0.00000000000E+00 0.  1.
         23    2    1    2    0    0 -0.12730832130E+04  0.44742587085E+03 -0.19122265855E+04  0.23424157534E+04  0.96800157037E+02 0.  0.
         13    1    3    3    0    0 -0.26146870717E+03  0.11560634695E+03 -0.46319943987E+03  0.54432015706E+03  0.00000000000E+00 0. -1.
        -13    1    3    3    0    0 -0.10116145058E+04  0.33181952391E+03 -0.14490271456E+04  0.17980955964E+04  0.00000000000E+00 0.  1.
         22    1    1    2    0    0  0.12730832130E+04 -0.44742587085E+03 -0.54709823651E+03  0.14561068840E+04  0.00000000000E+00 0. -1.
<mgrwt>
<rscale>  0 0.28949086E+04</rscale>
<asrwt>0</asrwt>
<pdfrwt beam="1">  1        2 0.48137288E+00 0.28949086E+04</pdfrwt>
<pdfrwt beam="2">  1       -2 0.10301522E+00 0.28949086E+04</pdfrwt>
<totfact> 0.95748993E-01</totfact>
</mgrwt>
</event>
<event>
 6    1  0.2236204E-005  0.6512005E+03  0.7818608E-02  0.9804529E-01
          2   -1    0    0  501    0  0.00000000000E+00  0.00000000000E+00  0.47581344098E+03  0.47581344098E+03  0.00000000000E+00 0. -1.
         -2   -1    0    0    0  501 -0.00000000000E+00 -0.00000000000E+00 -0.22280899199E+03  0.22280899199E+03  0.00000000000E+00 0.  1.
         23    2    1    2    0    0 -0.65170276856E+02 -0.24953475740E+03  0.33105038047E+03  0.42916756187E+03  0.89864796311E+02 0.  0.
         11    1    3    3    0    0 -0.66597247849E+02 -0.99504966715E+02  0.18064038212E+03  0.21671958720E+03  0.00000000000E+00 0.  1.
        -11    1    3    3    0    0  0.14269709932E+01 -0.15002979069E+03  0.15040999835E+03  0.21244797467E+03  0.00000000000E+00 0. -1.
         22    1    1    2    0    0  0.65170276856E+02  0.24953475740E+03 -0.78045931480E+02  0.26945487110E+03  0.00000000000E+00 0. -1.
<mgrwt>
<rscale>  0 0.65120047E+03</rscale>
<asrwt>0</asrwt>
<pdfrwt beam="1">  1        2 0.73202067E-01 0.65120047E+03</pdfrwt>
<pdfrwt beam="2">  1       -2 0.34278307E-01 0.65120047E+03</pdfrwt>
<totfact> 0.52363723E+02</totfact>
</mgrwt>
</event>
<event>
 6    1  0.2236204E-005  0.1151386E+04  0.7818608E-02  0.9156506E-01
         -2   -1    0    0    0  501 -0.00000000000E+00  0.00000000000E+00  0.64720485570E+03  0.64720485570E+03  0.00000000000E+00 0.  1.
          2   -1    0    0  501    0  0.00000000000E+00 -0.00000000000E+00 -0.51208266102E+03  0.51208266102E+03  0.00000000000E+00 0. -1.
         23    2    1    2    0    0 -0.28406567134E+03 -0.47978938981E+03 -0.61201444215E+02  0.56815797474E+03  0.90369813972E+02 0.  0.
         11    1    3    3    0    0 -0.11589474390E+03 -0.13340229351E+03 -0.46938094325E+02  0.18284131994E+03  0.00000000000E+00 0. -1.
        -11    1    3    3    0    0 -0.16817092745E+03 -0.34638709630E+03 -0.14263349890E+02  0.38531665480E+03  0.00000000000E+00 0.  1.
         22    1    1    2    0    0  0.28406567134E+03  0.47978938981E+03  0.19632363889E+03  0.59112954198E+03  0.00000000000E+00 0.  1.
<mgrwt>
<rscale>  0 0.11513859E+04</rscale>
<asrwt>0</asrwt>
<pdfrwt beam="1">  1        2 0.78781948E-01 0.11513859E+04</pdfrwt>
<pdfrwt beam="2">  1       -2 0.99569978E-01 0.11513859E+04</pdfrwt>
<totfact> 0.49476472E+01</totfact>
</mgrwt>
</event>
<event>
 6    1  0.2236204E-005  0.2847583E+04  0.7818608E-02  0.8288646E-01
         -2   -1    0    0    0  501 -0.00000000000E+00  0.00000000000E+00  0.55877084078E+03  0.55877084078E+03  0.00000000000E+00 0. -1.
          2   -1    0    0  501    0  0.00000000000E+00 -0.00000000000E+00 -0.36279319503E+04  0.36279319503E+04  0.00000000000E+00 0.  1.
         23    2    1    2    0    0  0.58106780571E+03  0.65261196557E+03 -0.31862144936E+04  0.33050885517E+04  0.90029789512E+02 0.  0.
         11    1    3    3    0    0  0.12716438655E+03  0.92606238366E+02 -0.60263360991E+03  0.62282739534E+03  0.00000000000E+00 0.  1.
        -11    1    3    3    0    0  0.45390341915E+03  0.56000572720E+03 -0.25835808837E+04  0.26822611564E+04  0.00000000000E+00 0. -1.
         22    1    1    2    0    0 -0.58106780571E+03 -0.65261196557E+03  0.11705338403E+03  0.88161423942E+03  0.00000000000E+00 0. -1.
<mgrwt>
<rscale>  0 0.28475832E+04</rscale>
<asrwt>0</asrwt>
<pdfrwt beam="1">  1        2 0.55814340E+00 0.28475832E+04</pdfrwt>
<pdfrwt beam="2">  1       -2 0.85964741E-01 0.28475832E+04</pdfrwt>
<totfact> 0.67068381E-01</totfact>
</mgrwt>
</event>
<event>
 6    1  0.2236204E-005  0.2540431E+04  0.7818608E-02  0.8388722E-01
         -2   -1    0    0    0  501 -0.00000000000E+00  0.00000000000E+00  0.14545960664E+04  0.14545960664E+04  0.00000000000E+00 0.  1.
          2   -1    0    0  501    0  0.00000000000E+00 -0.00000000000E+00 -0.11092068547E+04  0.11092068547E+04  0.00000000000E+00 0. -1.
         23    2    1    2    0    0  0.83536187199E+03 -0.79927273277E+03 -0.35417767320E+03  0.12124849774E+04  0.89507751531E+02 0.  0.
         13    1    3    3    0    0  0.85949690230E+02 -0.81875503338E+02 -0.65753797905E+02  0.13570007088E+03  0.00000000000E+00 0. -1.
        -13    1    3    3    0    0  0.74941218176E+03 -0.71739722943E+03 -0.28842387530E+03  0.10767849065E+04  0.00000000000E+00 0.  1.
         22    1    1    2    0    0 -0.83536187199E+03  0.79927273277E+03  0.69956688495E+03  0.13513179437E+04  0.00000000000E+00 0.  1.
<mgrwt>
<rscale>  0 0.25404314E+04</rscale>
<asrwt>0</asrwt>
<pdfrwt beam="1">  1        2 0.17064721E+00 0.25404314E+04</pdfrwt>
<pdfrwt beam="2">  1       -2 0.22378401E+00 0.25404314E+04</pdfrwt>
<totfact> 0.17877682E+00</totfact>
</mgrwt>
</event>
<event>
 6    1  0.2236204E-005  0.7871608E+03  0.7818608E-02  0.9578790E-01
         -2   -1    0    0    0  501 -0.00000000000E+00  0.00000000000E+00  0.62116020959E+02  0.62116020959E+02  0.00000000000E+00 0.  1.
          2   -1    0    0  501    0  0.00000000000E+00 -0.00000000000E+00 -0.24938096610E+04  0.24938096610E+04  0.00000000000E+00 0. -1.
         23    2    1    2    0    0 -0.17504086383E+03  0.31482052877E+03 -0.17022698414E+04  0.17424084127E+04  0.92266973516E+02 0.  0.
         11    1    3    3    0    0 -0.16405041506E+03  0.28880454947E+03 -0.16489668901E+04  0.16820857324E+04  0.00000000000E+00 0. -1.
        -11    1    3    3    0    0 -0.10990448769E+02  0.26015979299E+02 -0.53302951268E+02  0.60322680286E+02  0.00000000000E+00 0.  1.
         22    1    1    2    0    0  0.17504086383E+03 -0.31482052877E+03 -0.72942379866E+03  0.81351726927E+03  0.00000000000E+00 0. -1.
<mgrwt>
<rscale>  0 0.78716080E+03</rscale>
<asrwt>0</asrwt>
<pdfrwt beam="1">  1        2 0.38366300E+00 0.78716080E+03</pdfrwt>
<pdfrwt beam="2">  1       -2 0.95563116E-02 0.78716080E+03</pdfrwt>
<totfact> 0.26822623E+02</totfact>
</mgrwt>
</event>
<event>
 6    1  0.2236204E-005  0.1778661E+04  0.7818608E-02  0.8717731E-01
          2   -1    0    0  501    0  0.00000000000E+00  0.00000000000E+00  0.14187576453E+04  0.14187576453E+04  0.00000000000E+00 0. -1.
         -2   -1    0    0    0  501 -0.00000000000E+00 -0.00000000000E+00 -0.55746545674E+03  0.55746545674E+03  0.00000000000E+00 0.  1.
         23    2    1    2    0    0 -0.49451600438E+03  0.63874325069E+03  0.27876162016E+02  0.81556755788E+03  0.10878576276E+03 0.  0.
         11    1    3    3    0    0 -0.35268035665E+03  0.44232129323E+03 -0.29872972094E+02  0.56650150474E+03  0.00000000000E+00 0.  1.
        -11    1    3    3    0    0 -0.14183564772E+03  0.19642195746E+03  0.57749134111E+02  0.24906605314E+03  0.00000000000E+00 0. -1.
         22    1    1    2    0    0  0.49451600438E+03 -0.63874325069E+03  0.83341602652E+03  0.11606555441E+04  0.00000000000E+00 0.  1.
<mgrwt>
<rscale>  0 0.17786606E+04</rscale>
<asrwt>0</asrwt>
<pdfrwt beam="1">  1        2 0.21827041E+00 0.17786606E+04</pdfrwt>
<pdfrwt beam="2">  1       -2 0.85763917E-01 0.17786606E+04</pdfrwt>
<totfact> 0.15761809E+01</totfact>
</mgrwt>
</event>
<event>
 6    1  0.2236204E-005  0.4927855E+04  0.7818608E-02  0.7839734E-01
         -2   -1    0    0    0  501 -0.00000000000E+00  0.00000000000E+00  0.16555733203E+04  0.16555733203E+04  0.00000000000E+00 0.  1.
          2   -1    0    0  501    0  0.00000000000E+00 -0.00000000000E+00 -0.36669698769E+04  0.36669698769E+04  0.00000000000E+00 0. -1.
         23    2    1    2    0    0 -0.16089752774E+04 -0.10725405456E+04  0.64185068057E+03  0.20394249284E+04  0.90205749736E+02 0.  0.
         13    1    3    3    0    0 -0.11682715179E+04 -0.75543410153E+03  0.42395137868E+03  0.14543980861E+04  0.00000000000E+00 0.  1.
        -13    1    3    3    0    0 -0.44070375954E+03 -0.31710644403E+03  0.21789930188E+03  0.58502684236E+03  0.00000000000E+00 0. -1.
         22    1    1    2    0    0  0.16089752774E+04  0.10725405456E+04 -0.26532472371E+04  0.32831182688E+04  0.00000000000E+00 0. -1.
<mgrwt>
<rscale>  0 0.49278545E+04</rscale>
<asrwt>0</asrwt>
<pdfrwt beam="1">  1        2 0.56414920E+00 0.49278545E+04</pdfrwt>
<pdfrwt beam="2">  1       -2 0.25470359E+00 0.49278545E+04</pdfrwt>
<totfact> 0.27101334E-02</totfact>
</mgrwt>
</event>
<event>
 6    1  0.2236204E-005  0.3274611E+04  0.7818608E-02  0.8169386E-01
         -2   -1    0    0    0  501 -0.00000000000E+00  0.00000000000E+00  0.29228024588E+04  0.29228024588E+04  0.00000000000E+00 0. -1.
          2   -1    0    0  501    0  0.00000000000E+00 -0.00000000000E+00 -0.91719150153E+03  0.91719150153E+03  0.00000000000E+00 0.  1.
         23    2    1    2    0    0  0.98212853606E+03 -0.78575592038E+03 -0.22336409366E+03  0.12806349380E+04  0.90252413918E+02 0.  0.
         13    1    3    3    0    0  0.67749442908E+03 -0.54050635963E+03 -0.11126909693E+03  0.87380011339E+03  0.00000000000E+00 0. -1.
        -13    1    3    3    0    0  0.30463410698E+03 -0.24524956075E+03 -0.11209499673E+03  0.40683482456E+03  0.00000000000E+00 0.  1.
         22    1    1    2    0    0 -0.98212853606E+03  0.78575592038E+03  0.22289750509E+04  0.25593590224E+04  0.00000000000E+00 0. -1.
<mgrwt>
<rscale>  0 0.32746112E+04</rscale>
<asrwt>0</asrwt>
<pdfrwt beam="1">  1        2 0.14110639E+00 0.32746112E+04</pdfrwt>
<pdfrwt beam="2">  1       -2 0.44966191E+00 0.32746112E+04</pdfrwt>
<totfact> 0.83243388E-02</totfact>
</mgrwt>
</event>
<event>
 6    1  0.2236204E-005  0.2460130E+04  0.7818608E-02  0.8417329E-01
          2   -1    0    0  501    0  0.00000000000E+00  0.00000000000E+00  0.71860142830E+03  0.71860142830E+03  0.00000000000E+00 0.  1.
         -2   -1    0    0    0  501 -0.00000000000E+00 -0.00000000000E+00 -0.21055619606E+04  0.21055619606E+04  0.00000000000E+00 0. -1.
         23    2    1    2    0    0  0.10780200100E+04  0.12297506236E+03 -0.13566917233E+04  0.17387297388E+04  0.72929175519E+02 0.  0.
         13    1    3    3    0    0  0.61550785025E+03  0.44674686364E+02 -0.72947226834E+03  0.95549753093E+03  0.00000000000E+00 0. -1.
        -13    1    3    3    0    0  0.46251215974E+03  0.78300376001E+02 -0.62721945496E+03  0.78323220789E+03  0.00000000000E+00 0.  1.
         22    1    1    2    0    0 -0.10780200100E+04 -0.12297506236E+03 -0.30268808982E+02  0.10854336501E+04  0.00000000000E+00 0.  1.
<mgrwt>
<rscale>  0 0.24601299E+04</rscale>
<asrwt>0</asrwt>
<pdfrwt beam="1">  1        2 0.11055406E+00 0.24601299E+04</pdfrwt>
<pdfrwt beam="2">  1       -2 0.32393261E+00 0.24601299E+04</pdfrwt>
<totfact> 0.80308051E-01</totfact>
</mgrwt>
</event>
<event>
 6    1  0.2236204E-005  0.5540380E+04  0.7818608E-02  0.7750157E-01
          2   -1    0    0  501    0  0.00000000000E+00  0.00000000000E+00  0.29116161823E+04  0.29116161823E+04  0.00000000000E+00 0. -1.
         -2   -1    0    0    0  501 -0.00000000000E+00 -0.00000000000E+00 -0.26356334265E+04  0.26356334265E+04  0.00000000000E+00 0.  1.
         23    2    1    2    0    0 -0.10517008816E+04 -0.22303535203E+03  0.26934194296E+04  0.29015323933E+04  0.92533740363E+02 0.  0.
         13    1    3    3    0    0 -0.43101998501E+03 -0.13707031564E+03  0.11545535449E+04  0.12399840269E+04  0.00000000000E+00 0.  1.
        -13    1    3    3    0    0 -0.62068089655E+03 -0.85965036384E+02  0.15388658847E+04  0.16615483664E+04  0.00000000000E+00 0. -1.
         22    1    1    2    0    0  0.10517008816E+04  0.22303535203E+03 -0.24174366738E+04  0.26457172155E+04  0.00000000000E+00 0.  1.
<mgrwt>
<rscale>  0 0.55403801E+04</rscale>
<asrwt>0</asrwt>
<pdfrwt beam="1">  1        2 0.44794095E+00 0.55403801E+04</pdfrwt>
<pdfrwt beam="2">  1       -2 0.40548207E+00 0.55403801E+04</pdfrwt>
<totfact> 0.94289999E-03</totfact>
</mgrwt>
</event>
<event>
 6    1  0.2236204E-005  0.3207929E+04  0.7818608E-02  0.8186726E-01
         -2   -1    0    0    0  501 -0.00000000000E+00  0.00000000000E+00  0.77254628527E+03  0.77254628527E+03  0.00000000000E+00 0.  1.
          2   -1    0    0  501    0  0.00000000000E+00 -0.00000000000E+00 -0.33301602016E+04  0.33301602016E+04  0.00000000000E+00 0. -1.
         23    2    1    2    0    0 -0.10608725037E+04 -0.32932130397E+03  0.19730601748E+03  0.11322710252E+04  0.95942792661E+02 0.  0.
         13    1    3    3    0    0 -0.17810174629E+03 -0.19029674491E+02  0.25724228676E+02  0.18095329918E+03  0.00000000000E+00 0. -1.
        -13    1    3    3    0    0 -0.88277075744E+03 -0.31029162948E+03  0.17158178880E+03  0.95131772598E+03  0.00000000000E+00 0.  1.
         22    1    1    2    0    0  0.10608725037E+04  0.32932130397E+03 -0.27549199338E+04  0.29704354617E+04  0.00000000000E+00 0. -1.
<mgrwt>
<rscale>  0 0.32079295E+04</rscale>
<asrwt>0</asrwt>
<pdfrwt beam="1">  1        2 0.51233233E+00 0.32079295E+04</pdfrwt>
<pdfrwt beam="2">  1       -2 0.11885328E+00 0.32079295E+04</pdfrwt>
<totfact> 0.48602994E-01</totfact>
</mgrwt>
</event>
<event>
 6    1  0.2236204E-005  0.4734768E+03  0.7818608E-02  0.1020943E+00
          2   -1    0    0  501    0  0.00000000000E+00  0.00000000000E+00  0.28502443706E+04  0.28502443706E+04  0.00000000000E+00 0. -1.
         -2   -1    0    0    0  501 -0.00000000000E+00 -0.00000000000E+00 -0.19663254395E+02  0.19663254395E+02  0.00000000000E+00 0.  1.
         23    2    1    2    0    0 -0.51436901695E+02  0.14119786200E+03  0.25070505414E+04  0.25131799643E+04  0.90490466855E+02 0.  0.
         13    1    3    3    0    0  0.22590093574E+02  0.58252593967E+02  0.73834835100E+03  0.74098715539E+03  0.00000000000E+00 0.  1.
        -13    1    3    3    0    0 -0.74026995270E+02  0.82945268031E+02  0.17687021904E+04  0.17721928089E+04  0.00000000000E+00 0. -1.
         22    1    1    2    0    0  0.51436901695E+02 -0.14119786200E+03  0.32353057476E+03  0.35672766068E+03  0.00000000000E+00 0.  1.
<mgrwt>
<rscale>  0 0.47347684E+03</rscale>
<asrwt>0</asrwt>
<pdfrwt beam="1">  1        2 0.43849881E+00 0.47347684E+03</pdfrwt>
<pdfrwt beam="2">  1       -2 0.30251183E-02 0.47347684E+03</pdfrwt>
<totfact> 0.10376898E+03</totfact>
</mgrwt>
</event>
<event>
 6    1  0.2236204E-005  0.2850052E+04  0.7818608E-02  0.8287896E-01
         -2   -1    0    0    0  501 -0.00000000000E+00  0.00000000000E+00  0.16168646428E+04  0.16168646428E+04  0.00000000000E+00 0. -1.
          2   -1    0    0  501    0  0.00000000000E+00 -0.00000000000E+00 -0.12559486130E+04  0.12559486130E+04  0.00000000000E+00 0.  1.
         23    2    1    2    0    0  0.10946967451E+04  0.77951584732E+03  0.65396073912E+03  0.14973565602E+04  0.91684786214E+02 0.  0.
         13    1    3    3    0    0  0.72953765620E+03  0.47685873026E+03  0.39367146453E+03  0.95634547232E+03  0.00000000000E+00 0.  1.
        -13    1    3    3    0    0  0.36515908890E+03  0.30265711706E+03  0.26028927459E+03  0.54101108785E+03  0.00000000000E+00 0. -1.
         22    1    1    2    0    0 -0.10946967451E+04 -0.77951584732E+03 -0.29304470932E+03  0.13754566956E+04  0.00000000000E+00 0.  1.
<mgrwt>
<rscale>  0 0.28500519E+04</rscale>
<asrwt>0</asrwt>
<pdfrwt beam="1">  1        2 0.19322286E+00 0.28500519E+04</pdfrwt>
<pdfrwt beam="2">  1       -2 0.24874841E+00 0.28500519E+04</pdfrwt>
<totfact> 0.99457286E-01</totfact>
</mgrwt>
</event>
<event>
 6    1  0.2236204E-005  0.1225514E+04  0.7818608E-02  0.9090813E-01
         -2   -1    0    0    0  501 -0.00000000000E+00  0.00000000000E+00  0.18968862675E+03  0.18968862675E+03  0.00000000000E+00 0.  1.
          2   -1    0    0  501    0  0.00000000000E+00 -0.00000000000E+00 -0.19794074013E+04  0.19794074013E+04  0.00000000000E+00 0. -1.
         23    2    1    2    0    0 -0.28822204445E+03 -0.42750528543E+03 -0.14745355335E+04  0.15648004122E+04  0.92263612854E+02 0.  0.
         13    1    3    3    0    0 -0.14229867700E+03 -0.22121497904E+03 -0.61486081418E+03  0.66875915040E+03  0.00000000000E+00 0.  1.
        -13    1    3    3    0    0 -0.14592336745E+03 -0.20629030639E+03 -0.85967471936E+03  0.89604126176E+03  0.00000000000E+00 0. -1.
         22    1    1    2    0    0  0.28822204445E+03  0.42750528543E+03 -0.31518324105E+03  0.60429561592E+03  0.00000000000E+00 0.  1.
<mgrwt>
<rscale>  0 0.12255139E+04</rscale>
<asrwt>0</asrwt>
<pdfrwt beam="1">  1        2 0.30452421E+00 0.12255139E+04</pdfrwt>
<pdfrwt beam="2">  1       -2 0.29182867E-01 0.12255139E+04</pdfrwt>
<totfact> 0.73035952E+01</totfact>
</mgrwt>
</event>
<event>
 6    1  0.2236204E-005  0.1905603E+04  0.7818608E-02  0.8652073E-01
         -2   -1    0    0    0  501 -0.00000000000E+00  0.00000000000E+00  0.49036345714E+03  0.49036345714E+03  0.00000000000E+00 0.  1.
          2   -1    0    0  501    0  0.00000000000E+00 -0.00000000000E+00 -0.18513421197E+04  0.18513421197E+04  0.00000000000E+00 0. -1.
         23    2    1    2    0    0 -0.50496290444E+03 -0.38574146777E+03  0.18660548356E+03  0.66874392034E+03  0.92805224359E+02 0.  0.
         11    1    3    3    0    0 -0.13122201392E+03 -0.14835513570E+03  0.77947486581E+02  0.21284800655E+03  0.00000000000E+00 0. -1.
        -11    1    3    3    0    0 -0.37374089052E+03 -0.23738633207E+03  0.10865799698E+03  0.45589591379E+03  0.00000000000E+00 0.  1.
         22    1    1    2    0    0  0.50496290444E+03  0.38574146777E+03 -0.15475841461E+04  0.16729616565E+04  0.00000000000E+00 0. -1.
<mgrwt>
<rscale>  0 0.19056028E+04</rscale>
<asrwt>0</asrwt>
<pdfrwt beam="1">  1        2 0.28482186E+00 0.19056028E+04</pdfrwt>
<pdfrwt beam="2">  1       -2 0.75440532E-01 0.19056028E+04</pdfrwt>
<totfact> 0.11922152E+01</totfact>
</mgrwt>
</event>
<event>
 6    1  0.2236204E-005  0.1067933E+04  0.7818608E-02  0.9237023E-01
          1   -1    0    0  501    0  0.00000000000E+00  0.00000000000E+00  0.66452145261E+03  0.66452145261E+03  0.00000000000E+00 0. -1.
         -1   -1    0    0    0  501 -0.00000000000E+00 -0.00000000000E+00 -0.42906077464E+03  0.42906077464E+03  0.00000000000E+00 0.  1.
         23    2    1    2    0    0  0.48723510688E+02  0.10719977587E+03  0.64792299048E+03  0.66464058591E+03  0.89872879190E+02 0.  0.
         13    1    3    3    0    0 -0.58561382091E+01  0.90964169585E+02  0.39166424512E+03  0.40213139073E+03  0.00000000000E+00 0.  1.
        -13    1    3    3    0    0  0.54579648897E+02  0.16235606287E+02  0.25625874536E+03  0.26250919519E+03  0.00000000000E+00 0. -1.
         22    1    1    2    0    0 -0.48723510688E+02 -0.10719977587E+03 -0.41246231250E+03  0.42894164134E+03  0.00000000000E+00 0.  1.
<mgrwt>
<rscale>  0 0.10679327E+04</rscale>
<asrwt>0</asrwt>
<pdfrwt beam="1">  1        1 0.10223407E+00 0.10679327E+04</pdfrwt>
<pdfrwt beam="2">  1       -1 0.66009350E-01 0.10679327E+04</pdfrwt>
<totfact> 0.68466984E+01</totfact>
</mgrwt>
</event>
<event>
 6    1  0.2236204E-005  0.1178073E+04  0.7818608E-02  0.9132269E-01
         -2   -1    0    0    0  501 -0.00000000000E+00  0.00000000000E+00  0.82747502873E+02  0.82747502873E+02  0.00000000000E+00 0.  1.
          2   -1    0    0  501    0  0.00000000000E+00 -0.00000000000E+00 -0.41930440935E+04  0.41930440935E+04  0.00000000000E+00 0. -1.
         23    2    1    2    0    0 -0.20402679674E+03  0.46793121970E+02 -0.40521717564E+04  0.40585474333E+04  0.88852655419E+02 0.  0.
         13    1    3    3    0    0 -0.13450520618E+03  0.71229532857E+02 -0.25019446596E+04  0.25065698427E+04  0.00000000000E+00 0. -1.
        -13    1    3    3    0    0 -0.69521590565E+02 -0.24436410887E+02 -0.15502270968E+04  0.15519775905E+04  0.00000000000E+00 0.  1.
         22    1    1    2    0    0  0.20402679674E+03 -0.46793121970E+02 -0.58124834190E+02  0.21724416310E+03  0.00000000000E+00 0.  1.
<mgrwt>
<rscale>  0 0.11780729E+04</rscale>
<asrwt>0</asrwt>
<pdfrwt beam="1">  1        2 0.64508351E+00 0.11780729E+04</pdfrwt>
<pdfrwt beam="2">  1       -2 0.12730389E-01 0.11780729E+04</pdfrwt>
<totfact> 0.11309940E+01</totfact>
</mgrwt>
</event>
<event>
 6    1  0.2236204E-005  0.2803311E+04  0.7818608E-02  0.8302241E-01
          2   -1    0    0  501    0  0.00000000000E+00  0.00000000000E+00  0.12232061820E+04  0.12232061820E+04  0.00000000000E+00 0. -1.
         -2   -1    0    0    0  501 -0.00000000000E+00 -0.00000000000E+00 -0.16061386212E+04  0.16061386212E+04  0.00000000000E+00 0.  1.
         23    2    1    2    0    0  0.19093451505E+03  0.63670960258E+03 -0.14354638195E+04  0.15844844040E+04  0.90439715695E+02 0.  0.
         11    1    3    3    0    0  0.92234839872E+02  0.34633754804E+03 -0.87578256287E+03  0.94628328755E+03  0.00000000000E+00 0. -1.
        -11    1    3    3    0    0  0.98699675179E+02  0.29037205454E+03 -0.55968125666E+03  0.63820111642E+03  0.00000000000E+00 0.  1.
         22    1    1    2    0    0 -0.19093451505E+03 -0.63670960258E+03  0.10525313803E+04  0.12448603992E+04  0.00000000000E+00 0. -1.
<mgrwt>
<rscale>  0 0.28033114E+04</rscale>
<asrwt>0</asrwt>
<pdfrwt beam="1">  1        2 0.18818557E+00 0.28033114E+04</pdfrwt>
<pdfrwt beam="2">  1       -2 0.24709825E+00 0.28033114E+04</pdfrwt>
<totfact> 0.10687079E+00</totfact>
</mgrwt>
</event>
<event>
 6    1  0.2236204E-005  0.8922966E+03  0.7818608E-02  0.9435263E-01
         -1   -1    0    0    0  501 -0.00000000000E+00  0.00000000000E+00  0.55451545736E+02  0.55451545736E+02  0.00000000000E+00 0.  1.
          1   -1    0    0  501    0  0.00000000000E+00 -0.00000000000E+00 -0.35895898623E+04  0.35895898623E+04  0.00000000000E+00 0. -1.
         23    2    1    2    0    0  0.18136488262E+03  0.14744227772E+03 -0.33154231099E+04  0.33249339456E+04  0.92319546285E+02 0.  0.
         13    1    3    3    0    0  0.39473243564E+02  0.36949551840E+02 -0.14117771227E+04  0.14128121073E+04  0.00000000000E+00 0.  1.
        -13    1    3    3    0    0  0.14189163905E+03  0.11049272588E+03 -0.19036459872E+04  0.19121218383E+04  0.00000000000E+00 0. -1.
         22    1    1    2    0    0 -0.18136488262E+03 -0.14744227772E+03 -0.21871520659E+03  0.32010746243E+03  0.00000000000E+00 0.  1.
<mgrwt>
<rscale>  0 0.89229660E+03</rscale>
<asrwt>0</asrwt>
<pdfrwt beam="1">  1        1 0.55224472E+00 0.89229660E+03</pdfrwt>
<pdfrwt beam="2">  1       -1 0.85310051E-02 0.89229660E+03</pdfrwt>
<totfact> 0.18173492E+01</totfact>
</mgrwt>
</event>
<event>
 6    1  0.2236204E-005  0.4033008E+04  0.7818608E-02  0.7997921E-01
          2   -1    0    0  501    0  0.00000000000E+00  0.00000000000E+00  0.28323907718E+04  0.28323907718E+04  0.00000000000E+00 0. -1.
         -2   -1    0    0    0  501 -0.00000000000E+00 -0.00000000000E+00 -0.14356379666E+04  0.14356379666E+04  0.00000000000E+00 0.  1.
         23    2    1    2    0    0  0.48656467979E+03 -0.23224679903E+03  0.27539520740E+04  0.28076611071E+04  0.89582940234E+02 0.  0.
         11    1    3    3    0    0  0.47114337072E+02 -0.25469871459E+02  0.44305782067E+03  0.44628321453E+03  0.00000000000E+00 0.  1.
        -11    1    3    3    0    0  0.43945034271E+03 -0.20677692757E+03  0.23108942533E+04  0.23613778926E+04  0.00000000000E+00 0. -1.
         22    1    1    2    0    0 -0.48656467979E+03  0.23224679903E+03 -0.13571992688E+04  0.14603676313E+04  0.00000000000E+00 0.  1.
<mgrwt>
<rscale>  0 0.40330077E+04</rscale>
<asrwt>0</asrwt>
<pdfrwt beam="1">  1        2 0.43575242E+00 0.40330077E+04</pdfrwt>
<pdfrwt beam="2">  1       -2 0.22086738E+00 0.40330077E+04</pdfrwt>
<totfact> 0.16964095E-01</totfact>
</mgrwt>
</event>
<event>
 6    1  0.2236204E-005  0.2931650E+04  0.7818608E-02  0.8263522E-01
          2   -1    0    0  501    0  0.00000000000E+00  0.00000000000E+00  0.34071706406E+04  0.34071706406E+04  0.00000000000E+00 0. -1.
         -2   -1    0    0    0  501 -0.00000000000E+00 -0.00000000000E+00 -0.63062391011E+03  0.63062391011E+03  0.00000000000E+00 0.  1.
         23    2    1    2    0    0 -0.31008897593E+03 -0.11381983334E+04  0.25845204453E+04  0.28425854840E+04  0.94316926976E+02 0.  0.
         11    1    3    3    0    0 -0.16064603301E+03 -0.59102179432E+03  0.12283253040E+04  0.13725512601E+04  0.00000000000E+00 0. -1.
        -11    1    3    3    0    0 -0.14944294292E+03 -0.54717653904E+03  0.13561951413E+04  0.14700342239E+04  0.00000000000E+00 0.  1.
         22    1    1    2    0    0  0.31008897593E+03  0.11381983334E+04  0.19202628526E+03  0.11952090668E+04  0.00000000000E+00 0.  1.
<mgrwt>
<rscale>  0 0.29316502E+04</rscale>
<asrwt>0</asrwt>
<pdfrwt beam="1">  1        2 0.52418009E+00 0.29316502E+04</pdfrwt>
<pdfrwt beam="2">  1       -2 0.97019065E-01 0.29316502E+04</pdfrwt>
<totfact> 0.71948101E-01</totfact>
</mgrwt>
</event>
<event>
 6    1  0.2236204E-005  0.3699040E+04  0.7818608E-02  0.8068175E-01
          1   -1    0    0  501    0  0.00000000000E+00  0.00000000000E+00  0.19994605276E+04  0.19994605276E+04  0.00000000000E+00 0. -1.
         -1   -1    0    0    0  501 -0.00000000000E+00 -0.00000000000E+00 -0.17108235455E+04  0.17108235455E+04  0.00000000000E+00 0.  1.
         23    2    1    2    0    0  0.15633156457E+04  0.80800959806E+03 -0.42268743748E+03  0.18121750802E+04  0.92078948805E+02 0.  0.
         11    1    3    3    0    0  0.12222103781E+04  0.61674297452E+03 -0.36542279019E+03  0.14169346917E+04  0.00000000000E+00 0.  1.
        -11    1    3    3    0    0  0.34110526765E+03  0.19126662354E+03 -0.57264647298E+02  0.39524038854E+03  0.00000000000E+00 0. -1.
         22    1    1    2    0    0 -0.15633156457E+04 -0.80800959806E+03  0.71132441963E+03  0.18981089928E+04  0.00000000000E+00 0. -1.
<mgrwt>
<rscale>  0 0.36990400E+04</rscale>
<asrwt>0</asrwt>
<pdfrwt beam="1">  1        1 0.30760931E+00 0.36990400E+04</pdfrwt>
<pdfrwt beam="2">  1       -1 0.26320362E+00 0.36990400E+04</pdfrwt>
<totfact> 0.13688084E-01</totfact>
</mgrwt>
</event>
<event>
 6    1  0.2236204E-005  0.1678150E+04  0.7818608E-02  0.8773925E-01
         -2   -1    0    0    0  501 -0.00000000000E+00  0.00000000000E+00  0.43240373978E+03  0.43240373978E+03  0.00000000000E+00 0.  1.
          2   -1    0    0  501    0  0.00000000000E+00 -0.00000000000E+00 -0.16282165540E+04  0.16282165540E+04  0.00000000000E+00 0. -1.
         23    2    1    2    0    0  0.20692940564E+03 -0.20868082745E+03 -0.15614279984E+04  0.15915340229E+04  0.92496947685E+02 0.  0.
         11    1    3    3    0    0  0.61522515907E+02 -0.68358644022E+02 -0.73636079900E+03  0.74208163330E+03  0.00000000000E+00 0.  1.
        -11    1    3    3    0    0  0.14540688973E+03 -0.14032218343E+03 -0.82506719937E+03  0.84945238962E+03  0.00000000000E+00 0. -1.
         22    1    1    2    0    0 -0.20692940564E+03  0.20868082745E+03  0.36561518413E+03  0.46908627088E+03  0.00000000000E+00 0.  1.
<mgrwt>
<rscale>  0 0.16781501E+04</rscale>
<asrwt>0</asrwt>
<pdfrwt beam="1">  1        2 0.25049485E+00 0.16781501E+04</pdfrwt>
<pdfrwt beam="2">  1       -2 0.66523652E-01 0.16781501E+04</pdfrwt>
<totfact> 0.21284388E+01</totfact>
</mgrwt>
</event>
<event>
 6    1  0.2236204E-005  0.2287508E+04  0.7818608E-02  0.8482863E-01
          2   -1    0    0  501    0  0.00000000000E+00  0.00000000000E+00  0.13688103669E+04  0.13688103669E+04  0.00000000000E+00 0. -1.
         -2   -1    0    0    0  501 -0.00000000000E+00 -0.00000000000E+00 -0.95570106788E+03  0.95570106788E+03  0.00000000000E+00 0.  1.
         23    2    1    2    0    0 -0.14213957682E+02  0.44372485620E+03 -0.86215958884E+03  0.97417646857E+03  0.92773114062E+02 0.  0.
         11    1    3    3    0    0  0.16514486841E+02  0.14700811422E+03 -0.20830865261E+03  0.25549287402E+03  0.00000000000E+00 0. -1.
        -11    1    3    3    0    0 -0.30728444523E+02  0.29671674198E+03 -0.65385093623E+03  0.71868359456E+03  0.00000000000E+00 0.  1.
         22    1    1    2    0    0  0.14213957682E+02 -0.44372485620E+03  0.12752688879E+04  0.13503349662E+04  0.00000000000E+00 0. -1.
<mgrwt>
<rscale>  0 0.22875083E+04</rscale>
<asrwt>0</asrwt>
<pdfrwt beam="1">  1        2 0.21058621E+00 0.22875083E+04</pdfrwt>
<pdfrwt beam="2">  1       -2 0.14703093E+00 0.22875083E+04</pdfrwt>
<totfact> 0.43239722E+00</totfact>
</mgrwt>
</event>
<event>
 6    1  0.2236204E-005  0.2781989E+04  0.7818608E-02  0.8308882E-01
         -1   -1    0    0    0  501 -0.00000000000E+00  0.00000000000E+00  0.88285949584E+03  0.88285949584E+03  0.00000000000E+00 0.  1.
          1   -1    0    0  501    0  0.00000000000E+00 -0.00000000000E+00 -0.21915901765E+04  0.21915901765E+04  0.00000000000E+00 0. -1.
         23    2    1    2    0    0  0.48936101028E+03  0.25001906665E+03 -0.20656036945E+04  0.21391205906E+04  0.84466242761E+02 0.  0.
         13    1    3    3    0    0  0.20650979657E+03  0.61352514183E+02 -0.75513324555E+03  0.78526215089E+03  0.00000000000E+00 0. -1.
        -13    1    3    3    0    0  0.28285121370E+03  0.18866655247E+03 -0.13104704490E+04  0.13538584397E+04  0.00000000000E+00 0.  1.
         22    1    1    2    0    0 -0.48936101028E+03 -0.25001906665E+03  0.75687301386E+03  0.93532908175E+03  0.00000000000E+00 0.  1.
<mgrwt>
<rscale>  0 0.27819894E+04</rscale>
<asrwt>0</asrwt>
<pdfrwt beam="1">  1        1 0.33716772E+00 0.27819894E+04</pdfrwt>
<pdfrwt beam="2">  1       -1 0.13582454E+00 0.27819894E+04</pdfrwt>
<totfact> 0.86779496E-01</totfact>
</mgrwt>
</event>
<event>
 6    1  0.2236204E-005  0.3119383E+04  0.7818608E-02  0.8210439E-01
          2   -1    0    0  501    0  0.00000000000E+00  0.00000000000E+00  0.23742044081E+04  0.23742044081E+04  0.00000000000E+00 0.  1.
         -2   -1    0    0    0  501 -0.00000000000E+00 -0.00000000000E+00 -0.10246115772E+04  0.10246115772E+04  0.00000000000E+00 0. -1.
         23    2    1    2    0    0 -0.12884180877E+04 -0.82538107916E+03  0.99715294332E+03  0.18286284268E+04  0.91065013168E+02 0.  0.
         11    1    3    3    0    0 -0.82262737308E+03 -0.48157667031E+03  0.59393648911E+03  0.11231172857E+04  0.00000000000E+00 0. -1.
        -11    1    3    3    0    0 -0.46579071459E+03 -0.34380440885E+03  0.40321645421E+03  0.70551114115E+03  0.00000000000E+00 0.  1.
         22    1    1    2    0    0  0.12884180877E+04  0.82538107916E+03  0.35243988751E+03  0.15701875585E+04  0.00000000000E+00 0. -1.
<mgrwt>
<rscale>  0 0.31193828E+04</rscale>
<asrwt>0</asrwt>
<pdfrwt beam="1">  1        2 0.36526222E+00 0.31193828E+04</pdfrwt>
<pdfrwt beam="2">  1       -2 0.15763255E+00 0.31193828E+04</pdfrwt>
<totfact> 0.91443921E-01</totfact>
</mgrwt>
</event>
<event>
 6    1  0.2236204E-005  0.3406749E+04  0.7818608E-02  0.8136252E-01
         -2   -1    0    0    0  501 -0.00000000000E+00  0.00000000000E+00  0.11022095235E+04  0.11022095235E+04  0.00000000000E+00 0.  1.
          2   -1    0    0  501    0  0.00000000000E+00 -0.00000000000E+00 -0.26324259362E+04  0.26324259362E+04  0.00000000000E+00 0. -1.
         23    2    1    2    0    0 -0.12446022126E+04  0.11174830564E+04 -0.41996463870E+03  0.17270343911E+04  0.92056729274E+02 0.  0.
         13    1    3    3    0    0 -0.11219933943E+04  0.99310526531E+03 -0.34876871523E+03  0.15384299989E+04  0.00000000000E+00 0. -1.
        -13    1    3    3    0    0 -0.12260881834E+03  0.12437779108E+03 -0.71195923473E+02  0.18860439222E+03  0.00000000000E+00 0.  1.
         22    1    1    2    0    0  0.12446022126E+04 -0.11174830564E+04 -0.11102517740E+04  0.20076010686E+04  0.00000000000E+00 0. -1.
<mgrwt>
<rscale>  0 0.34067491E+04</rscale>
<asrwt>0</asrwt>
<pdfrwt beam="1">  1        2 0.40498860E+00 0.34067491E+04</pdfrwt>
<pdfrwt beam="2">  1       -2 0.16957070E+00 0.34067491E+04</pdfrwt>
<totfact> 0.51743272E-01</totfact>
</mgrwt>
</event>
<event>
 6    1  0.2236204E-005  0.6092347E+04  0.7818608E-02  0.7679056E-01
          2   -1    0    0  501    0  0.00000000000E+00  0.00000000000E+00  0.22229855292E+04  0.22229855292E+04  0.00000000000E+00 0. -1.
         -2   -1    0    0    0  501 -0.00000000000E+00 -0.00000000000E+00 -0.41741933878E+04  0.41741933878E+04  0.00000000000E+00 0.  1.
         23    2    1    2    0    0  0.10828865551E+04  0.27770213424E+04 -0.16321165642E+04  0.33994614384E+04  0.89681461160E+02 0.  0.
         13    1    3    3    0    0  0.53052386578E+03  0.14298188429E+04 -0.79266228382E+03  0.17187643794E+04  0.00000000000E+00 0.  1.
        -13    1    3    3    0    0  0.55236268935E+03  0.13472024995E+04 -0.83945428038E+03  0.16806970590E+04  0.00000000000E+00 0. -1.
         22    1    1    2    0    0 -0.10828865551E+04 -0.27770213424E+04 -0.31909129440E+03  0.29977174786E+04  0.00000000000E+00 0.  1.
<mgrwt>
<rscale>  0 0.60923465E+04</rscale>
<asrwt>0</asrwt>
<pdfrwt beam="1">  1        2 0.34199778E+00 0.60923465E+04</pdfrwt>
<pdfrwt beam="2">  1       -2 0.64218359E+00 0.60923465E+04</pdfrwt>
<totfact> 0.12224752E-03</totfact>
</mgrwt>
</event>
<event>
 6    1  0.2236204E-005  0.2146983E+04  0.7818608E-02  0.8540825E-01
         -1   -1    0    0    0  501 -0.00000000000E+00  0.00000000000E+00  0.10581649113E+04  0.10581649113E+04  0.00000000000E+00 0.  1.
          1   -1    0    0  501    0  0.00000000000E+00 -0.00000000000E+00 -0.10890405748E+04  0.10890405748E+04  0.00000000000E+00 0. -1.
         23    2    1    2    0    0 -0.17163253672E+03  0.62951039640E+03  0.83458378526E+03  0.10633415074E+04  0.91782350981E+02 0.  0.
         11    1    3    3    0    0 -0.10704355642E+03  0.45299462173E+03  0.52951320052E+03  0.70501537558E+03  0.00000000000E+00 0. -1.
        -11    1    3    3    0    0 -0.64588980296E+02  0.17651577467E+03  0.30507058474E+03  0.35832613184E+03  0.00000000000E+00 0.  1.
         22    1    1    2    0    0  0.17163253672E+03 -0.62951039640E+03 -0.86545944879E+03  0.10838639787E+04  0.00000000000E+00 0. -1.
<mgrwt>
<rscale>  0 0.21469835E+04</rscale>
<asrwt>0</asrwt>
<pdfrwt beam="1">  1        1 0.16754470E+00 0.21469835E+04</pdfrwt>
<pdfrwt beam="2">  1       -1 0.16279460E+00 0.21469835E+04</pdfrwt>
<totfact> 0.32952367E+00</totfact>
</mgrwt>
</event>
<event>
 6    1  0.2236204E-005  0.2245744E+04  0.7818608E-02  0.8499626E-01
          2   -1    0    0  501    0  0.00000000000E+00  0.00000000000E+00  0.35864446885E+04  0.35864446885E+04  0.00000000000E+00 0. -1.
         -2   -1    0    0    0  501 -0.00000000000E+00 -0.00000000000E+00 -0.35155765576E+03  0.35155765576E+03  0.00000000000E+00 0.  1.
         23    2    1    2    0    0 -0.16002932439E+03 -0.10657264249E+04  0.10799533891E+04  0.15286204306E+04  0.94862537335E+02 0.  0.
         13    1    3    3    0    0 -0.10772079645E+02 -0.23926664806E+03  0.19780546575E+03  0.31063092064E+03  0.00000000000E+00 0. -1.
        -13    1    3    3    0    0 -0.14925724475E+03 -0.82645977679E+03  0.88214792336E+03  0.12179895100E+04  0.00000000000E+00 0.  1.
         22    1    1    2    0    0  0.16002932439E+03  0.10657264249E+04  0.21549336437E+04  0.24093819137E+04  0.00000000000E+00 0. -1.
<mgrwt>
<rscale>  0 0.22457445E+04</rscale>
<asrwt>0</asrwt>
<pdfrwt beam="1">  1        2 0.55176070E+00 0.22457445E+04</pdfrwt>
<pdfrwt beam="2">  1       -2 0.54085796E-01 0.22457445E+04</pdfrwt>
<totfact> 0.20772173E+00</totfact>
</mgrwt>
</event>
<event>
 6    1  0.2236204E-005  0.1201740E+04  0.7818608E-02  0.9111335E-01
          2   -1    0    0  501    0  0.00000000000E+00  0.00000000000E+00  0.17788414097E+03  0.17788414097E+03  0.00000000000E+00 0. -1.
         -2   -1    0    0    0  501 -0.00000000000E+00 -0.00000000000E+00 -0.20296628811E+04  0.20296628811E+04  0.00000000000E+00 0.  1.
         23    2    1    2    0    0  0.34674651488E+03  0.11296273714E+03 -0.18004606831E+04  0.18392709455E+04  0.90913223394E+02 0.  0.
         11    1    3    3    0    0  0.13201173675E+03  0.57631952731E+02 -0.51238564914E+03  0.53224768112E+03  0.00000000000E+00 0.  1.
        -11    1    3    3    0    0  0.21473477813E+03  0.55330784405E+02 -0.12880750339E+04  0.13070232644E+04  0.00000000000E+00 0. -1.
         22    1    1    2    0    0 -0.34674651488E+03 -0.11296273714E+03 -0.51318057028E+02  0.36827607652E+03  0.00000000000E+00 0.  1.
<mgrwt>
<rscale>  0 0.12017401E+04</rscale>
<asrwt>0</asrwt>
<pdfrwt beam="1">  1        2 0.27366791E-01 0.12017401E+04</pdfrwt>
<pdfrwt beam="2">  1       -2 0.31225583E+00 0.12017401E+04</pdfrwt>
<totfact> 0.52658530E+00</totfact>
</mgrwt>
</event>
<event>
 6    1  0.2236204E-005  0.5204874E+04  0.7818608E-02  0.7797658E-01
          1   -1    0    0  501    0  0.00000000000E+00  0.00000000000E+00  0.24371170893E+04  0.24371170893E+04  0.00000000000E+00 0. -1.
         -1   -1    0    0    0  501 -0.00000000000E+00 -0.00000000000E+00 -0.27789707700E+04  0.27789707700E+04  0.00000000000E+00 0.  1.
         23    2    1    2    0    0  0.35865719268E+03  0.63811973113E+03  0.23309295358E+04  0.24448783949E+04  0.91466343136E+02 0.  0.
         13    1    3    3    0    0  0.10618071806E+03  0.11315009698E+03  0.48781855106E+03  0.51190255723E+03  0.00000000000E+00 0. -1.
        -13    1    3    3    0    0  0.25247647461E+03  0.52496963416E+03  0.18431109847E+04  0.19329758376E+04  0.00000000000E+00 0.  1.
         22    1    1    2    0    0 -0.35865719268E+03 -0.63811973113E+03 -0.26727832165E+04  0.27712094644E+04  0.00000000000E+00 0.  1.
<mgrwt>
<rscale>  0 0.52048735E+04</rscale>
<asrwt>0</asrwt>
<pdfrwt beam="1">  1        1 0.37494109E+00 0.52048735E+04</pdfrwt>
<pdfrwt beam="2">  1       -1 0.42753397E+00 0.52048735E+04</pdfrwt>
<totfact> 0.49288394E-03</totfact>
</mgrwt>
</event>
<event>
 6    1  0.2236204E-005  0.2542716E+04  0.7818608E-02  0.8387924E-01
         -2   -1    0    0    0  501 -0.00000000000E+00  0.00000000000E+00  0.13364955423E+04  0.13364955423E+04  0.00000000000E+00 0.  1.
          2   -1    0    0  501    0  0.00000000000E+00 -0.00000000000E+00 -0.12093955304E+04  0.12093955304E+04  0.00000000000E+00 0. -1.
         23    2    1    2    0    0  0.20739283227E+03  0.22474645906E+03 -0.11702127445E+04  0.12130208069E+04  0.92189223828E+02 0.  0.
         11    1    3    3    0    0  0.91252579684E+02  0.40025534161E+02 -0.42468974314E+03  0.43622294141E+03  0.00000000000E+00 0. -1.
        -11    1    3    3    0    0  0.11614025259E+03  0.18472092489E+03 -0.74552300131E+03  0.77679786550E+03  0.00000000000E+00 0.  1.
         22    1    1    2    0    0 -0.20739283227E+03 -0.22474645906E+03  0.12973127563E+04  0.13328702658E+04  0.00000000000E+00 0.  1.
<mgrwt>
<rscale>  0 0.25427164E+04</rscale>
<asrwt>0</asrwt>
<pdfrwt beam="1">  1        2 0.18606085E+00 0.25427164E+04</pdfrwt>
<pdfrwt beam="2">  1       -2 0.20561470E+00 0.25427164E+04</pdfrwt>
<totfact> 0.20311035E+00</totfact>
</mgrwt>
</event>
<event>
 6    1  0.2236204E-005  0.4906876E+04  0.7818608E-02  0.7843035E-01
          2   -1    0    0  501    0  0.00000000000E+00  0.00000000000E+00  0.15399017944E+04  0.15399017944E+04  0.00000000000E+00 0. -1.
         -2   -1    0    0    0  501 -0.00000000000E+00 -0.00000000000E+00 -0.39089237722E+04  0.39089237722E+04  0.00000000000E+00 0.  1.
         23    2    1    2    0    0 -0.14679735245E+04 -0.14502760514E+04 -0.26564564320E+04  0.33653511945E+04  0.10286395781E+03 0.  0.
         11    1    3    3    0    0 -0.54456979331E+03 -0.47113728011E+03 -0.90673724848E+03  0.11578855877E+04  0.00000000000E+00 0. -1.
        -11    1    3    3    0    0 -0.92340373115E+03 -0.97913877124E+03 -0.17497191835E+04  0.22074656068E+04  0.00000000000E+00 0.  1.
         22    1    1    2    0    0  0.14679735245E+04  0.14502760514E+04  0.28743445416E+03  0.20834743721E+04  0.00000000000E+00 0. -1.
<mgrwt>
<rscale>  0 0.49068763E+04</rscale>
<asrwt>0</asrwt>
<pdfrwt beam="1">  1        2 0.23690797E+00 0.49068763E+04</pdfrwt>
<pdfrwt beam="2">  1       -2 0.60137289E+00 0.49068763E+04</pdfrwt>
<totfact> 0.44739421E-03</totfact>
</mgrwt>
</event>
<event>
 6    1  0.2236204E-005  0.2684907E+04  0.7818608E-02  0.8339919E-01
         -1   -1    0    0    0  501 -0.00000000000E+00  0.00000000000E+00  0.51186189269E+03  0.51186189269E+03  0.00000000000E+00 0.  1.
          1   -1    0    0  501    0  0.00000000000E+00 -0.00000000000E+00 -0.35208349740E+04  0.35208349740E+04  0.00000000000E+00 0. -1.
         23    2    1    2    0    0 -0.70148656656E+03  0.11089419279E+04 -0.19203192303E+04  0.23277033741E+04  0.93495717480E+02 0.  0.
         13    1    3    3    0    0 -0.55469691991E+03  0.90386082962E+03 -0.14887996143E+04  0.18278887723E+04  0.00000000000E+00 0.  1.
        -13    1    3    3    0    0 -0.14678964665E+03  0.20508109824E+03 -0.43151961601E+03  0.49981460185E+03  0.00000000000E+00 0. -1.
         22    1    1    2    0    0  0.70148656656E+03 -0.11089419279E+04 -0.10886538510E+04  0.17049934926E+04  0.00000000000E+00 0.  1.
<mgrwt>
<rscale>  0 0.26849069E+04</rscale>
<asrwt>0</asrwt>
<pdfrwt beam="1">  1        1 0.54166690E+00 0.26849069E+04</pdfrwt>
<pdfrwt beam="2">  1       -1 0.78747986E-01 0.26849069E+04</pdfrwt>
<totfact> 0.33935074E-01</totfact>
</mgrwt>
</event>
<event>
 6    1  0.2236204E-005  0.1013850E+04  0.7818608E-02  0.9293483E-01
          1   -1    0    0  501    0  0.00000000000E+00  0.00000000000E+00  0.85530454507E+03  0.85530454507E+03  0.00000000000E+00 0. -1.
         -1   -1    0    0    0  501 -0.00000000000E+00 -0.00000000000E+00 -0.30044633402E+03  0.30044633402E+03  0.00000000000E+00 0.  1.
         23    2    1    2    0    0 -0.11813977890E+03 -0.22458068390E+03 -0.21536172476E+03  0.34480560322E+03  0.90092955225E+02 0.  0.
         13    1    3    3    0    0 -0.32009406165E+02 -0.53834888898E+02 -0.10969250905E+03  0.12631406845E+03  0.00000000000E+00 0. -1.
        -13    1    3    3    0    0 -0.86130372740E+02 -0.17074579500E+03 -0.10566921570E+03  0.21849153477E+03  0.00000000000E+00 0.  1.
         22    1    1    2    0    0  0.11813977890E+03  0.22458068390E+03  0.77021993581E+03  0.81094527587E+03  0.00000000000E+00 0. -1.
<mgrwt>
<rscale>  0 0.10138503E+04</rscale>
<asrwt>0</asrwt>
<pdfrwt beam="1">  1        1 0.13158531E+00 0.10138503E+04</pdfrwt>
<pdfrwt beam="2">  1       -1 0.46222514E-01 0.10138503E+04</pdfrwt>
<totfact> 0.92435331E+01</totfact>
</mgrwt>
</event>
<event>
 6    1  0.2236204E-005  0.3810162E+04  0.7818608E-02  0.8043978E-01
          2   -1    0    0  501    0  0.00000000000E+00  0.00000000000E+00  0.12592789820E+04  0.12592789820E+04  0.00000000000E+00 0. -1.
         -2   -1    0    0    0  501 -0.00000000000E+00 -0.00000000000E+00 -0.28820721382E+04  0.28820721382E+04  0.00000000000E+00 0.  1.
         23    2    1    2    0    0  0.21726956154E+03 -0.18828415728E+04 -0.61576521462E+03  0.19950977042E+04  0.94602320682E+02 0.  0.
         11    1    3    3    0    0  0.42567158227E+02 -0.46392516744E+03 -0.11042537328E+03  0.47878208718E+03  0.00000000000E+00 0.  1.
        -11    1    3    3    0    0  0.17470240331E+03 -0.14189164054E+04 -0.50533984134E+03  0.15163156170E+04  0.00000000000E+00 0. -1.
         22    1    1    2    0    0 -0.21726956154E+03  0.18828415728E+04 -0.10070279416E+04  0.21462534161E+04  0.00000000000E+00 0.  1.
<mgrwt>
<rscale>  0 0.38101616E+04</rscale>
<asrwt>0</asrwt>
<pdfrwt beam="1">  1        2 0.19373523E+00 0.38101616E+04</pdfrwt>
<pdfrwt beam="2">  1       -2 0.44339571E+00 0.38101616E+04</pdfrwt>
<totfact> 0.53679604E-02</totfact>
</mgrwt>
</event>
<event>
 6    1  0.2236204E-005  0.5564157E+04  0.7818608E-02  0.7746922E-01
          2   -1    0    0  501    0  0.00000000000E+00  0.00000000000E+00  0.41531130328E+04  0.41531130328E+04  0.00000000000E+00 0. -1.
         -2   -1    0    0    0  501 -0.00000000000E+00 -0.00000000000E+00 -0.18636526208E+04  0.18636526208E+04  0.00000000000E+00 0.  1.
         23    2    1    2    0    0 -0.17632413823E+04 -0.15120263420E+04 -0.50928041316E+03  0.23797072216E+04  0.91630180814E+02 0.  0.
         11    1    3    3    0    0 -0.56629339012E+03 -0.53671396934E+03 -0.15136814433E+03  0.79477191929E+03  0.00000000000E+00 0.  1.
        -11    1    3    3    0    0 -0.11969479922E+04 -0.97531237270E+03 -0.35791226883E+03  0.15849353023E+04  0.00000000000E+00 0. -1.
         22    1    1    2    0    0  0.17632413823E+04  0.15120263420E+04  0.27987408251E+04  0.36370584320E+04  0.00000000000E+00 0. -1.
<mgrwt>
<rscale>  0 0.55641567E+04</rscale>
<asrwt>0</asrwt>
<pdfrwt beam="1">  1        2 0.63894046E+00 0.55641567E+04</pdfrwt>
<pdfrwt beam="2">  1       -2 0.28671579E+00 0.55641567E+04</pdfrwt>
<totfact> 0.67639864E-03</totfact>
</mgrwt>
</event>
<event>
 6    1  0.2418459E-005  0.3207664E+04  0.7818608E-02  0.8186796E-01
         -2   -1    0    0    0  501 -0.00000000000E+00  0.00000000000E+00  0.10823748148E+04  0.10823748148E+04  0.00000000000E+00 0. -1.
          2   -1    0    0  501    0  0.00000000000E+00 -0.00000000000E+00 -0.23765124140E+04  0.23765124140E+04  0.00000000000E+00 0.  1.
         23    2    1    2    0    0  0.14882769640E+04 -0.23751821357E+03 -0.12355096212E+04  0.19506364329E+04  0.84351917916E+02 0.  0.
         13    1    3    3    0    0  0.54383243126E+03 -0.63691601537E+02 -0.49236257482E+03  0.73636352332E+03  0.00000000000E+00 0. -1.
        -13    1    3    3    0    0  0.94444453271E+03 -0.17382661204E+03 -0.74314704642E+03  0.12142729096E+04  0.00000000000E+00 0.  1.
         22    1    1    2    0    0 -0.14882769640E+04  0.23751821357E+03 -0.58627977963E+02  0.15082507958E+04  0.00000000000E+00 0. -1.
<mgrwt>
<rscale>  0 0.32076641E+04</rscale>
<asrwt>0</asrwt>
<pdfrwt beam="1">  1        2 0.36561729E+00 0.32076641E+04</pdfrwt>
<pdfrwt beam="2">  1       -2 0.16651920E+00 0.32076641E+04</pdfrwt>
<totfact> 0.77887136E-01</totfact>
</mgrwt>
</event>
<event>
 6    1  0.2236204E-005  0.4159482E+04  0.7818608E-02  0.7973125E-01
         -2   -1    0    0    0  501 -0.00000000000E+00  0.00000000000E+00  0.37369573403E+04  0.37369573403E+04  0.00000000000E+00 0.  1.
          2   -1    0    0  501    0  0.00000000000E+00 -0.00000000000E+00 -0.11574451713E+04  0.11574451713E+04  0.00000000000E+00 0. -1.
         23    2    1    2    0    0 -0.17569726894E+04  0.74466312755E+03  0.22603787244E+04  0.29596357659E+04  0.93035929408E+02 0.  0.
         13    1    3    3    0    0 -0.25028363400E+03  0.10208484531E+03  0.27207778881E+03  0.38352253683E+03  0.00000000000E+00 0. -1.
        -13    1    3    3    0    0 -0.15066890554E+04  0.64257828224E+03  0.19883009356E+04  0.25761132290E+04  0.00000000000E+00 0.  1.
         22    1    1    2    0    0  0.17569726894E+04 -0.74466312755E+03  0.31913344460E+03  0.19347667457E+04  0.00000000000E+00 0. -1.
<mgrwt>
<rscale>  0 0.41594823E+04</rscale>
<asrwt>0</asrwt>
<pdfrwt beam="1">  1        2 0.17806849E+00 0.41594823E+04</pdfrwt>
<pdfrwt beam="2">  1       -2 0.57491651E+00 0.41594823E+04</pdfrwt>
<totfact> 0.10145736E-02</totfact>
</mgrwt>
</event>
<event>
 6    1  0.2236204E-005  0.2209056E+04  0.7818608E-02  0.8514668E-01
         -2   -1    0    0    0  501 -0.00000000000E+00  0.00000000000E+00  0.23992477275E+03  0.23992477275E+03  0.00000000000E+00 0.  1.
          2   -1    0    0  501    0  0.00000000000E+00 -0.00000000000E+00 -0.50848532062E+04  0.50848532062E+04  0.00000000000E+00 0. -1.
         23    2    1    2    0    0 -0.84335860643E+03  0.97624830744E+02 -0.73165640413E+03  0.11248028440E+04  0.95268030614E+02 0.  0.
         13    1    3    3    0    0 -0.51222902139E+03  0.10550125342E+03 -0.43895990093E+03  0.68278465087E+03  0.00000000000E+00 0. -1.
        -13    1    3    3    0    0 -0.33112958504E+03 -0.78764226749E+01 -0.29269650319E+03  0.44201819318E+03  0.00000000000E+00 0.  1.
         22    1    1    2    0    0  0.84335860643E+03 -0.97624830744E+02 -0.41132720293E+04  0.41999751349E+04  0.00000000000E+00 0. -1.
<mgrwt>
<rscale>  0 0.22090561E+04</rscale>
<asrwt>0</asrwt>
<pdfrwt beam="1">  1        2 0.78228514E+00 0.22090561E+04</pdfrwt>
<pdfrwt beam="2">  1       -2 0.36911502E-01 0.22090561E+04</pdfrwt>
<totfact> 0.17150291E-01</totfact>
</mgrwt>
</event>
<event>
 6    1  0.2236204E-005  0.2332730E+04  0.7818608E-02  0.8465127E-01
          1   -1    0    0  501    0  0.00000000000E+00  0.00000000000E+00  0.50335316616E+03  0.50335316616E+03  0.00000000000E+00 0. -1.
         -1   -1    0    0    0  501 -0.00000000000E+00 -0.00000000000E+00 -0.27026887355E+04  0.27026887355E+04  0.00000000000E+00 0.  1.
         23    2    1    2    0    0 -0.12003269584E+03 -0.10761785970E+04 -0.16903775583E+04  0.20095443138E+04  0.91235073538E+02 0.  0.
         11    1    3    3    0    0 -0.74771875950E+02 -0.35782774371E+03 -0.52258086575E+03  0.63774782544E+03  0.00000000000E+00 0.  1.
        -11    1    3    3    0    0 -0.45260819886E+02 -0.71835085330E+03 -0.11677966926E+04  0.13717964884E+04  0.00000000000E+00 0. -1.
         22    1    1    2    0    0  0.12003269584E+03  0.10761785970E+04 -0.50895801098E+03  0.11964975878E+04  0.00000000000E+00 0. -1.
<mgrwt>
<rscale>  0 0.23327297E+04</rscale>
<asrwt>0</asrwt>
<pdfrwt beam="1">  1        1 0.77438949E-01 0.23327297E+04</pdfrwt>
<pdfrwt beam="2">  1       -1 0.41579826E+00 0.23327297E+04</pdfrwt>
<totfact> 0.22066530E-01</totfact>
</mgrwt>
</event>
<event>
 6    1  0.2236204E-005  0.1458709E+04  0.7818608E-02  0.8912385E-01
         -2   -1    0    0    0  501 -0.00000000000E+00  0.00000000000E+00  0.32782093280E+03  0.32782093280E+03  0.00000000000E+00 0.  1.
          2   -1    0    0  501    0  0.00000000000E+00 -0.00000000000E+00 -0.16227091334E+04  0.16227091334E+04  0.00000000000E+00 0. -1.
         23    2    1    2    0    0 -0.13180913559E+03 -0.71404367421E+03 -0.68150795568E+03  0.10000210753E+04  0.91416850284E+02 0.  0.
         13    1    3    3    0    0 -0.75752644406E+02 -0.33036741391E+03 -0.25911320755E+03  0.42663889372E+03  0.00000000000E+00 0.  1.
        -13    1    3    3    0    0 -0.56056491181E+02 -0.38367626030E+03 -0.42239474814E+03  0.57338218160E+03  0.00000000000E+00 0. -1.
         22    1    1    2    0    0  0.13180913559E+03  0.71404367421E+03 -0.61338024493E+03  0.95050899089E+03  0.00000000000E+00 0. -1.
<mgrwt>
<rscale>  0 0.14587090E+04</rscale>
<asrwt>0</asrwt>
<pdfrwt beam="1">  1        2 0.24964756E+00 0.14587090E+04</pdfrwt>
<pdfrwt beam="2">  1       -2 0.50433990E-01 0.14587090E+04</pdfrwt>
<totfact> 0.39018305E+01</totfact>
</mgrwt>
</event>
<event>
 6    1  0.2236204E-005  0.2929287E+04  0.7818608E-02  0.8264217E-01
         -2   -1    0    0    0  501 -0.00000000000E+00  0.00000000000E+00  0.11198015753E+04  0.11198015753E+04  0.00000000000E+00 0.  1.
          2   -1    0    0  501    0  0.00000000000E+00 -0.00000000000E+00 -0.19156788045E+04  0.19156788045E+04  0.00000000000E+00 0. -1.
         23    2    1    2    0    0 -0.51097001076E+03 -0.11557409689E+04  0.36632709507E+03  0.13186383864E+04  0.88227627929E+02 0.  0.
         13    1    3    3    0    0 -0.28692969537E+03 -0.58379678501E+03  0.15159970332E+03  0.66792949203E+03  0.00000000000E+00 0. -1.
        -13    1    3    3    0    0 -0.22404031539E+03 -0.57194418392E+03  0.21472739175E+03  0.65070889436E+03  0.00000000000E+00 0.  1.
         22    1    1    2    0    0  0.51097001076E+03  0.11557409689E+04 -0.11622043242E+04  0.17168419934E+04  0.00000000000E+00 0.  1.
<mgrwt>
<rscale>  0 0.29292867E+04</rscale>
<asrwt>0</asrwt>
<pdfrwt beam="1">  1        2 0.29471981E+00 0.29292867E+04</pdfrwt>
<pdfrwt beam="2">  1       -2 0.17227717E+00 0.29292867E+04</pdfrwt>
<totfact> 0.13160818E+00</totfact>
</mgrwt>
</event>
<event>
 6    1  0.2236204E-005  0.1693333E+04  0.7818608E-02  0.8765176E-01
         -2   -1    0    0    0  501 -0.00000000000E+00  0.00000000000E+00  0.28433769910E+03  0.28433769910E+03  0.00000000000E+00 0.  1.
          2   -1    0    0  501    0  0.00000000000E+00 -0.00000000000E+00 -0.25211026980E+04  0.25211026980E+04  0.00000000000E+00 0. -1.
         23    2    1    2    0    0  0.73182936436E+03  0.39783008078E+03 -0.89588109906E+03  0.12268927657E+04  0.93914446067E+02 0.  0.
         13    1    3    3    0    0  0.31972755318E+03  0.22104773802E+03 -0.44783791805E+03  0.59299798616E+03  0.00000000000E+00 0.  1.
        -13    1    3    3    0    0  0.41210181118E+03  0.17678234276E+03 -0.44804318101E+03  0.63389477955E+03  0.00000000000E+00 0. -1.
         22    1    1    2    0    0 -0.73182936436E+03 -0.39783008078E+03 -0.13408838999E+04  0.15785476314E+04  0.00000000000E+00 0. -1.
<mgrwt>
<rscale>  0 0.16933334E+04</rscale>
<asrwt>0</asrwt>
<pdfrwt beam="1">  1        2 0.38786195E+00 0.16933334E+04</pdfrwt>
<pdfrwt beam="2">  1       -2 0.43744262E-01 0.16933334E+04</pdfrwt>
<totfact> 0.15994914E+01</totfact>
</mgrwt>
</event>
<event>
 6    1  0.2236204E-005  0.1677802E+04  0.7818608E-02  0.8774127E-01
          2   -1    0    0  501    0  0.00000000000E+00  0.00000000000E+00  0.51409304523E+03  0.51409304523E+03  0.00000000000E+00 0.  1.
         -2   -1    0    0    0  501 -0.00000000000E+00 -0.00000000000E+00 -0.13689251252E+04  0.13689251252E+04  0.00000000000E+00 0. -1.
         23    2    1    2    0    0 -0.38402088758E+03  0.12034729143E+03  0.39432321520E+03  0.57063695138E+03  0.90444566352E+02 0.  0.
         11    1    3    3    0    0 -0.17816813864E+03  0.97399294760E+01  0.18249467917E+03  0.25523138478E+03  0.00000000000E+00 0. -1.
        -11    1    3    3    0    0 -0.20585274894E+03  0.11060736195E+03  0.21182853603E+03  0.31540556660E+03  0.00000000000E+00 0.  1.
         22    1    1    2    0    0  0.38402088758E+03 -0.12034729143E+03 -0.12491552952E+04  0.13123812190E+04  0.00000000000E+00 0. -1.
<mgrwt>
<rscale>  0 0.16778020E+04</rscale>
<asrwt>0</asrwt>
<pdfrwt beam="1">  1        2 0.79091239E-01 0.16778020E+04</pdfrwt>
<pdfrwt beam="2">  1       -2 0.21060386E+00 0.16778020E+04</pdfrwt>
<totfact> 0.64432807E+00</totfact>
</mgrwt>
</event>
<event>
 6    1  0.2236204E-005  0.2544512E+04  0.7818608E-02  0.8387297E-01
         -2   -1    0    0    0  501 -0.00000000000E+00  0.00000000000E+00  0.72523354468E+03  0.72523354468E+03  0.00000000000E+00 0.  1.
          2   -1    0    0  501    0  0.00000000000E+00 -0.00000000000E+00 -0.22318815667E+04  0.22318815667E+04  0.00000000000E+00 0. -1.
         23    2    1    2    0    0 -0.51337704468E+03  0.11599883611E+04 -0.83960458575E+03  0.15239103340E+04  0.90762646339E+02 0.  0.
         13    1    3    3    0    0 -0.47711653016E+03  0.10044719613E+04 -0.73828941141E+03  0.13347941262E+04  0.00000000000E+00 0. -1.
        -13    1    3    3    0    0 -0.36260514519E+02  0.15551639975E+03 -0.10131517434E+03  0.18911620781E+03  0.00000000000E+00 0.  1.
         22    1    1    2    0    0  0.51337704468E+03 -0.11599883611E+04 -0.66704343625E+03  0.14332047773E+04  0.00000000000E+00 0. -1.
<mgrwt>
<rscale>  0 0.25445120E+04</rscale>
<asrwt>0</asrwt>
<pdfrwt beam="1">  1        2 0.34336639E+00 0.25445120E+04</pdfrwt>
<pdfrwt beam="2">  1       -2 0.11157439E+00 0.25445120E+04</pdfrwt>
<totfact> 0.27942049E+00</totfact>
</mgrwt>
</event>
<event>
 6    1  0.2236204E-005  0.2394053E+04  0.7818608E-02  0.8441733E-01
         -2   -1    0    0    0  501 -0.00000000000E+00  0.00000000000E+00  0.91354941854E+03  0.91354941854E+03  0.00000000000E+00 0.  1.
          2   -1    0    0  501    0  0.00000000000E+00 -0.00000000000E+00 -0.15684676810E+04  0.15684676810E+04  0.00000000000E+00 0. -1.
         23    2    1    2    0    0  0.51695096612E+03  0.39776225285E+03  0.71055075907E+03  0.96875613067E+03  0.90293678214E+02 0.  0.
         11    1    3    3    0    0  0.14891080602E+03  0.16796998980E+03  0.25133380028E+03  0.33698223215E+03  0.00000000000E+00 0. -1.
        -11    1    3    3    0    0  0.36804016010E+03  0.22979226305E+03  0.45921695879E+03  0.63177389851E+03  0.00000000000E+00 0.  1.
         22    1    1    2    0    0 -0.51695096612E+03 -0.39776225285E+03 -0.13654690215E+04  0.15132609689E+04  0.00000000000E+00 0. -1.
<mgrwt>
<rscale>  0 0.23940532E+04</rscale>
<asrwt>0</asrwt>
<pdfrwt beam="1">  1        2 0.24130272E+00 0.23940532E+04</pdfrwt>
<pdfrwt beam="2">  1       -2 0.14054606E+00 0.23940532E+04</pdfrwt>
<totfact> 0.37159888E+00</totfact>
</mgrwt>
</event>
<event>
 6    1  0.2236204E-005  0.9574799E+03  0.7818608E-02  0.9356450E-01
          2   -1    0    0  501    0  0.00000000000E+00  0.00000000000E+00  0.18704171726E+04  0.18704171726E+04  0.00000000000E+00 0. -1.
         -2   -1    0    0    0  501 -0.00000000000E+00 -0.00000000000E+00 -0.12253520884E+03  0.12253520884E+03  0.00000000000E+00 0.  1.
         23    2    1    2    0    0 -0.32502518257E+03  0.32375298894E+03  0.11226328884E+04  0.12174565572E+04  0.10695092060E+03 0.  0.
         13    1    3    3    0    0 -0.26682970183E+03  0.22750783842E+03  0.74437769461E+03  0.82283416224E+03  0.00000000000E+00 0. -1.
        -13    1    3    3    0    0 -0.58195480739E+02  0.96245150524E+02  0.37825519383E+03  0.39462239500E+03  0.00000000000E+00 0.  1.
         22    1    1    2    0    0  0.32502518257E+03 -0.32375298894E+03  0.62524907535E+03  0.77549582422E+03  0.00000000000E+00 0.  1.
<mgrwt>
<rscale>  0 0.95747994E+03</rscale>
<asrwt>0</asrwt>
<pdfrwt beam="1">  1        2 0.28775647E+00 0.95747994E+03</pdfrwt>
<pdfrwt beam="2">  1       -2 0.18851572E-01 0.95747994E+03</pdfrwt>
<totfact> 0.18758946E+02</totfact>
</mgrwt>
</event>
<event>
 6    1  0.2236204E-005  0.3457926E+04  0.7818608E-02  0.8123834E-01
          2   -1    0    0  501    0  0.00000000000E+00  0.00000000000E+00  0.19177223614E+04  0.19177223614E+04  0.00000000000E+00 0.  1.
         -2   -1    0    0    0  501 -0.00000000000E+00 -0.00000000000E+00 -0.15587834381E+04  0.15587834381E+04  0.00000000000E+00 0. -1.
         23    2    1    2    0    0  0.22044961269E+03  0.72832193768E+03  0.17390694388E+04  0.19004946586E+04  0.92013899970E+02 0.  0.
         11    1    3    3    0    0  0.74127306481E+02  0.28338206076E+03  0.56428700371E+03  0.63578303884E+03  0.00000000000E+00 0. -1.
        -11    1    3    3    0    0  0.14632230621E+03  0.44493987692E+03  0.11747824351E+04  0.12647116198E+04  0.00000000000E+00 0.  1.
         22    1    1    2    0    0 -0.22044961269E+03 -0.72832193768E+03 -0.13801305155E+04  0.15760111410E+04  0.00000000000E+00 0. -1.
<mgrwt>
<rscale>  0 0.34579265E+04</rscale>
<asrwt>0</asrwt>
<pdfrwt beam="1">  1        2 0.29503421E+00 0.34579265E+04</pdfrwt>
<pdfrwt beam="2">  1       -2 0.23981284E+00 0.34579265E+04</pdfrwt>
<totfact> 0.45464208E-01</totfact>
</mgrwt>
</event>
<event>
 6    1  0.2236204E-005  0.2242204E+04  0.7818608E-02  0.8501064E-01
          1   -1    0    0  501    0  0.00000000000E+00  0.00000000000E+00  0.13189155553E+04  0.13189155553E+04  0.00000000000E+00 0. -1.
         -1   -1    0    0    0  501 -0.00000000000E+00 -0.00000000000E+00 -0.95295672602E+03  0.95295672602E+03  0.00000000000E+00 0.  1.
         23    2    1    2    0    0 -0.20347657074E+03 -0.11005488016E+04  0.19456944489E+03  0.11396246492E+04  0.90976329964E+02 0.  0.
         11    1    3    3    0    0 -0.15554412482E+03 -0.99204514993E+03  0.16914476966E+03  0.10183111054E+04  0.00000000000E+00 0. -1.
        -11    1    3    3    0    0 -0.47932445921E+02 -0.10850365166E+03  0.25424675228E+02  0.12131354379E+03  0.00000000000E+00 0.  1.
         22    1    1    2    0    0  0.20347657074E+03  0.11005488016E+04  0.17138938444E+03  0.11322476322E+04  0.00000000000E+00 0.  1.
<mgrwt>
<rscale>  0 0.22422038E+04</rscale>
<asrwt>0</asrwt>
<pdfrwt beam="1">  1        1 0.20291009E+00 0.22422038E+04</pdfrwt>
<pdfrwt beam="2">  1       -1 0.14660873E+00 0.22422038E+04</pdfrwt>
<totfact> 0.29553651E+00</totfact>
</mgrwt>
</event>
<event>
 6    1  0.2236204E-005  0.1486242E+04  0.7818608E-02  0.8893654E-01
         -2   -1    0    0    0  501 -0.00000000000E+00  0.00000000000E+00  0.16525991659E+04  0.16525991659E+04  0.00000000000E+00 0.  1.
          2   -1    0    0  501    0  0.00000000000E+00 -0.00000000000E+00 -0.33415754026E+03  0.33415754026E+03  0.00000000000E+00 0. -1.
         23    2    1    2    0    0  0.43589111812E+03  0.53651179144E+03  0.31404582572E+03  0.76747130391E+03  0.11198862651E+03 0.  0.
         13    1    3    3    0    0  0.31770639088E+03  0.32092970144E+03  0.23594012450E+03  0.50951051649E+03  0.00000000000E+00 0. -1.
        -13    1    3    3    0    0  0.11818472725E+03  0.21558209000E+03  0.78105701222E+02  0.25796078742E+03  0.00000000000E+00 0.  1.
         22    1    1    2    0    0 -0.43589111812E+03 -0.53651179144E+03  0.10043957999E+04  0.12192854022E+04  0.00000000000E+00 0.  1.
<mgrwt>
<rscale>  0 0.14862415E+04</rscale>
<asrwt>0</asrwt>
<pdfrwt beam="1">  1        2 0.51408853E-01 0.14862415E+04</pdfrwt>
<pdfrwt beam="2">  1       -2 0.25424602E+00 0.14862415E+04</pdfrwt>
<totfact> 0.57016319E+00</totfact>
</mgrwt>
</event>
<event>
 6    1  0.2236204E-005  0.2909513E+04  0.7818608E-02  0.8270053E-01
         -2   -1    0    0    0  501 -0.00000000000E+00  0.00000000000E+00  0.10886733336E+04  0.10886733336E+04  0.00000000000E+00 0.  1.
          2   -1    0    0  501    0  0.00000000000E+00 -0.00000000000E+00 -0.19439405783E+04  0.19439405783E+04  0.00000000000E+00 0. -1.
         23    2    1    2    0    0  0.96485566635E+03  0.10228094061E+04 -0.43263581091E+02  0.14089035042E+04  0.77793370283E+02 0.  0.
         13    1    3    3    0    0  0.28684087038E+03  0.30121681808E+03 -0.48303919390E+02  0.41873920886E+03  0.00000000000E+00 0.  1.
        -13    1    3    3    0    0  0.67801479598E+03  0.72159258806E+03  0.50403382992E+01  0.99016429531E+03  0.00000000000E+00 0. -1.
         22    1    1    2    0    0 -0.96485566635E+03 -0.10228094061E+04 -0.81200366365E+03  0.16237104077E+04  0.00000000000E+00 0.  1.
<mgrwt>
<rscale>  0 0.29095129E+04</rscale>
<asrwt>0</asrwt>
<pdfrwt beam="1">  1        2 0.29906778E+00 0.29095129E+04</pdfrwt>
<pdfrwt beam="2">  1       -2 0.16748821E+00 0.29095129E+04</pdfrwt>
<totfact> 0.13753065E+00</totfact>
</mgrwt>
</event>
<event>
 6    1  0.2236204E-005  0.5476383E+04  0.7818608E-02  0.7758947E-01
         -2   -1    0    0    0  501 -0.00000000000E+00  0.00000000000E+00  0.25631116567E+04  0.25631116567E+04  0.00000000000E+00 0.  1.
          2   -1    0    0  501    0  0.00000000000E+00 -0.00000000000E+00 -0.29252302681E+04  0.29252302681E+04  0.00000000000E+00 0. -1.
         23    2    1    2    0    0  0.19722600818E+04  0.13437918563E+04 -0.15249423829E+04  0.28335828949E+04  0.90312611083E+02 0.  0.
         11    1    3    3    0    0  0.10541000303E+04  0.75003602416E+03 -0.86970135469E+03  0.15588654072E+04  0.00000000000E+00 0. -1.
        -11    1    3    3    0    0  0.91816005148E+03  0.59375583213E+03 -0.65524102820E+03  0.12747174877E+04  0.00000000000E+00 0.  1.
         22    1    1    2    0    0 -0.19722600818E+04 -0.13437918563E+04  0.11628237714E+04  0.26547590299E+04  0.00000000000E+00 0.  1.
<mgrwt>
<rscale>  0 0.54763827E+04</rscale>
<asrwt>0</asrwt>
<pdfrwt beam="1">  1        2 0.45003543E+00 0.54763827E+04</pdfrwt>
<pdfrwt beam="2">  1       -2 0.39432487E+00 0.54763827E+04</pdfrwt>
<totfact> 0.10991205E-02</totfact>
</mgrwt>
</event>
<event>
 6    1  0.2236204E-005  0.2645048E+04  0.7818608E-02  0.8353058E-01
         -2   -1    0    0    0  501 -0.00000000000E+00  0.00000000000E+00  0.96881689476E+03  0.96881689476E+03  0.00000000000E+00 0.  1.
          2   -1    0    0  501    0  0.00000000000E+00 -0.00000000000E+00 -0.18053667535E+04  0.18053667535E+04  0.00000000000E+00 0. -1.
         23    2    1    2    0    0 -0.85736199249E+03  0.82868071638E+03  0.17749877770E+03  0.12089118019E+04  0.90446740842E+02 0.  0.
         11    1    3    3    0    0 -0.36749279456E+03  0.36852997073E+03  0.12182759962E+03  0.53451590940E+03  0.00000000000E+00 0.  1.
        -11    1    3    3    0    0 -0.48986919793E+03  0.46015074565E+03  0.55671178078E+02  0.67439589254E+03  0.00000000000E+00 0. -1.
         22    1    1    2    0    0  0.85736199249E+03 -0.82868071638E+03 -0.10140486365E+04  0.15652718464E+04  0.00000000000E+00 0.  1.
<mgrwt>
<rscale>  0 0.26450481E+04</rscale>
<asrwt>0</asrwt>
<pdfrwt beam="1">  1        2 0.27774873E+00 0.26450481E+04</pdfrwt>
<pdfrwt beam="2">  1       -2 0.14904875E+00 0.26450481E+04</pdfrwt>
<totfact> 0.23016312E+00</totfact>
</mgrwt>
</event>
<event>
 6    1  0.2236204E-005  0.1028397E+04  0.7818608E-02  0.9277937E-01
         -1   -1    0    0    0  501 -0.00000000000E+00  0.00000000000E+00  0.25408570535E+03  0.25408570535E+03  0.00000000000E+00 0.  1.
          1   -1    0    0  501    0  0.00000000000E+00 -0.00000000000E+00 -0.10405934251E+04  0.10405934251E+04  0.00000000000E+00 0. -1.
         23    2    1    2    0    0 -0.26196778930E+03  0.26704800346E+03  0.40934906377E+02  0.38660255971E+03  0.88567001932E+02 0.  0.
         11    1    3    3    0    0 -0.52294309386E+02  0.81446823296E+02  0.44572325535E+02  0.10655971107E+03  0.00000000000E+00 0.  1.
        -11    1    3    3    0    0 -0.20967347991E+03  0.18560118016E+03 -0.36374191584E+01  0.28004284864E+03  0.00000000000E+00 0. -1.
         22    1    1    2    0    0  0.26196778930E+03 -0.26704800346E+03 -0.82744262609E+03  0.90807657069E+03  0.00000000000E+00 0. -1.
<mgrwt>
<rscale>  0 0.10283966E+04</rscale>
<asrwt>0</asrwt>
<pdfrwt beam="1">  1        1 0.16009130E+00 0.10283966E+04</pdfrwt>
<pdfrwt beam="2">  1       -1 0.39090107E-01 0.10283966E+04</pdfrwt>
<totfact> 0.89396275E+01</totfact>
</mgrwt>
</event>
<event>
 6    1  0.2236204E-005  0.2950939E+04  0.7818608E-02  0.8257881E-01
          2   -1    0    0  501    0  0.00000000000E+00  0.00000000000E+00  0.14036708080E+04  0.14036708080E+04  0.00000000000E+00 0. -1.
         -2   -1    0    0    0  501 -0.00000000000E+00 -0.00000000000E+00 -0.15509410689E+04  0.15509410689E+04  0.00000000000E+00 0.  1.
         23    2    1    2    0    0  0.13588241120E+04  0.56217067650E+03 -0.17476275591E+03  0.14838315826E+04  0.93676611814E+02 0.  0.
         13    1    3    3    0    0  0.89438590869E+03  0.34341686900E+03 -0.76179439845E+02  0.96107471439E+03  0.00000000000E+00 0. -1.
        -13    1    3    3    0    0  0.46443820334E+03  0.21875380750E+03 -0.98583316064E+02  0.52275686818E+03  0.00000000000E+00 0.  1.
         22    1    1    2    0    0 -0.13588241120E+04 -0.56217067650E+03  0.27492495016E+02  0.14707802943E+04  0.00000000000E+00 0. -1.
<mgrwt>
<rscale>  0 0.29509393E+04</rscale>
<asrwt>0</asrwt>
<pdfrwt beam="1">  1        2 0.21594936E+00 0.29509393E+04</pdfrwt>
<pdfrwt beam="2">  1       -2 0.23860632E+00 0.29509393E+04</pdfrwt>
<totfact> 0.93528348E-01</totfact>
</mgrwt>
</event>
<event>
 6    1  0.2236204E-005  0.1208664E+04  0.7818608E-02  0.9105306E-01
          2   -1    0    0  501    0  0.00000000000E+00  0.00000000000E+00  0.22151405036E+04  0.22151405036E+04  0.00000000000E+00 0. -1.
         -2   -1    0    0    0  501 -0.00000000000E+00 -0.00000000000E+00 -0.16487324078E+03  0.16487324078E+03  0.00000000000E+00 0.  1.
         23    2    1    2    0    0  0.71427591671E+02 -0.56260677855E+03  0.14215390533E+04  0.15332980603E+04  0.92743591417E+02 0.  0.
         13    1    3    3    0    0  0.55445353810E+02 -0.37497603595E+03  0.10585468557E+04  0.11243676714E+04  0.00000000000E+00 0.  1.
        -13    1    3    3    0    0  0.15982237860E+02 -0.18763074260E+03  0.36299219757E+03  0.40893038894E+03  0.00000000000E+00 0. -1.
         22    1    1    2    0    0 -0.71427591671E+02  0.56260677855E+03  0.62872820956E+03  0.84671568405E+03  0.00000000000E+00 0.  1.
<mgrwt>
<rscale>  0 0.12086644E+04</rscale>
<asrwt>0</asrwt>
<pdfrwt beam="1">  1        2 0.34079082E+00 0.12086644E+04</pdfrwt>
<pdfrwt beam="2">  1       -2 0.25365116E-01 0.12086644E+04</pdfrwt>
<totfact> 0.69985834E+01</totfact>
</mgrwt>
</event>
<event>
 6    1  0.2236204E-005  0.3416438E+04  0.7818608E-02  0.8133884E-01
          2   -1    0    0  501    0  0.00000000000E+00  0.00000000000E+00  0.11724825185E+04  0.11724825185E+04  0.00000000000E+00 0. -1.
         -2   -1    0    0    0  501 -0.00000000000E+00 -0.00000000000E+00 -0.24887475276E+04  0.24887475276E+04  0.00000000000E+00 0.  1.
         23    2    1    2    0    0  0.13282638612E+04  0.35099209559E+03  0.42708681509E+03  0.14416003655E+04  0.91258590076E+02 0.  0.
         13    1    3    3    0    0  0.11557678048E+04  0.29896287422E+03  0.33875499603E+03  0.12409403556E+04  0.00000000000E+00 0. -1.
        -13    1    3    3    0    0  0.17249605632E+03  0.52029221370E+02  0.88331819060E+02  0.20066000992E+03  0.00000000000E+00 0.  1.
         22    1    1    2    0    0 -0.13282638612E+04 -0.35099209559E+03 -0.17433518242E+04  0.22196296806E+04  0.00000000000E+00 0.  1.
<mgrwt>
<rscale>  0 0.34164385E+04</rscale>
<asrwt>0</asrwt>
<pdfrwt beam="1">  1        2 0.18038193E+00 0.34164385E+04</pdfrwt>
<pdfrwt beam="2">  1       -2 0.38288423E+00 0.34164385E+04</pdfrwt>
<totfact> 0.15602332E-01</totfact>
</mgrwt>
</event>
<event>
 6    1  0.2236204E-005  0.2944397E+04  0.7818608E-02  0.8259789E-01
          2   -1    0    0  501    0  0.00000000000E+00  0.00000000000E+00  0.18657411089E+04  0.18657411089E+04  0.00000000000E+00 0. -1.
         -2   -1    0    0    0  501 -0.00000000000E+00 -0.00000000000E+00 -0.11616660306E+04  0.11616660306E+04  0.00000000000E+00 0.  1.
         23    2    1    2    0    0  0.68640727530E+03  0.12039092881E+04 -0.15410334983E+03  0.13973694908E+04  0.91329785941E+02 0.  0.
         11    1    3    3    0    0  0.23994290249E+03  0.41873883646E+03 -0.99919299015E+01  0.48271590846E+03  0.00000000000E+00 0.  1.
        -11    1    3    3    0    0  0.44646437281E+03  0.78517045168E+03 -0.14411141993E+03  0.91465358237E+03  0.00000000000E+00 0. -1.
         22    1    1    2    0    0 -0.68640727530E+03 -0.12039092881E+04  0.85817842809E+03  0.16300376487E+04  0.00000000000E+00 0. -1.
<mgrwt>
<rscale>  0 0.29443968E+04</rscale>
<asrwt>0</asrwt>
<pdfrwt beam="1">  1        2 0.28703709E+00 0.29443968E+04</pdfrwt>
<pdfrwt beam="2">  1       -2 0.17871785E+00 0.29443968E+04</pdfrwt>
<totfact> 0.12627617E+00</totfact>
</mgrwt>
</event>
<event>
 6    1  0.2236204E-005  0.5062152E+03  0.7818608E-02  0.1012169E+00
          2   -1    0    0  501    0  0.00000000000E+00  0.00000000000E+00  0.48512108963E+03  0.48512108963E+03  0.00000000000E+00 0.  1.
         -2   -1    0    0    0  501 -0.00000000000E+00 -0.00000000000E+00 -0.13205663175E+03  0.13205663175E+03  0.00000000000E+00 0. -1.
         23    2    1    2    0    0 -0.39699714229E+02  0.13812023084E+03 -0.59490067083E+02  0.18030874612E+03  0.91208060864E+02 0.  0.
         11    1    3    3    0    0 -0.89891528630E+01  0.12510140508E+03 -0.72074309862E+02  0.14465777741E+03  0.00000000000E+00 0. -1.
        -11    1    3    3    0    0 -0.30710561366E+02  0.13018825764E+02  0.12584242778E+02  0.35650968711E+02  0.00000000000E+00 0.  1.
         22    1    1    2    0    0  0.39699714229E+02 -0.13812023084E+03  0.41255452496E+03  0.43686897526E+03  0.00000000000E+00 0.  1.
<mgrwt>
<rscale>  0 0.50621520E+03</rscale>
<asrwt>0</asrwt>
<pdfrwt beam="1">  1        2 0.74634013E-01 0.50621520E+03</pdfrwt>
<pdfrwt beam="2">  1       -2 0.20316405E-01 0.50621520E+03</pdfrwt>
<totfact> 0.13238946E+03</totfact>
</mgrwt>
</event>
<event>
 6    1  0.2236204E-005  0.2075840E+04  0.7818608E-02  0.8571961E-01
          1   -1    0    0  501    0  0.00000000000E+00  0.00000000000E+00  0.95811177310E+03  0.95811177310E+03  0.00000000000E+00 0. -1.
         -1   -1    0    0    0  501 -0.00000000000E+00 -0.00000000000E+00 -0.11243757772E+04  0.11243757772E+04  0.00000000000E+00 0.  1.
         23    2    1    2    0    0  0.78237992952E+03  0.62860664051E+03 -0.34059860034E+03  0.10638329406E+04  0.92024215683E+02 0.  0.
         11    1    3    3    0    0  0.43328642331E+03  0.32266718224E+03 -0.22677082267E+03  0.58589780775E+03  0.00000000000E+00 0. -1.
        -11    1    3    3    0    0  0.34909350621E+03  0.30593945827E+03 -0.11382777767E+03  0.47793513281E+03  0.00000000000E+00 0.  1.
         22    1    1    2    0    0 -0.78237992952E+03 -0.62860664051E+03  0.17433459619E+03  0.10186546098E+04  0.00000000000E+00 0.  1.
<mgrwt>
<rscale>  0 0.20758398E+04</rscale>
<asrwt>0</asrwt>
<pdfrwt beam="1">  1        1 0.14740181E+00 0.20758398E+04</pdfrwt>
<pdfrwt beam="2">  1       -1 0.17298089E+00 0.20758398E+04</pdfrwt>
<totfact> 0.35213791E+00</totfact>
</mgrwt>
</event>
<event>
 6    1  0.2236204E-005  0.3876522E+04  0.7818608E-02  0.8029930E-01
         -2   -1    0    0    0  501 -0.00000000000E+00  0.00000000000E+00  0.15585392749E+04  0.15585392749E+04  0.00000000000E+00 0. -1.
          2   -1    0    0  501    0  0.00000000000E+00 -0.00000000000E+00 -0.24104979869E+04  0.24104979869E+04  0.00000000000E+00 0.  1.
         23    2    1    2    0    0  0.11397972393E+04  0.13722564971E+04 -0.11996478641E+04  0.21515903197E+04  0.89220320882E+02 0.  0.
         11    1    3    3    0    0  0.24962730491E+03  0.34916087906E+03 -0.31527903279E+03  0.53256734723E+03  0.00000000000E+00 0. -1.
        -11    1    3    3    0    0  0.89016993440E+03  0.10230956180E+04 -0.88436883131E+03  0.16190229725E+04  0.00000000000E+00 0.  1.
         22    1    1    2    0    0 -0.11397972393E+04 -0.13722564971E+04  0.34768915209E+03  0.18174469420E+04  0.00000000000E+00 0. -1.
<mgrwt>
<rscale>  0 0.38765220E+04</rscale>
<asrwt>0</asrwt>
<pdfrwt beam="1">  1        2 0.37084584E+00 0.38765220E+04</pdfrwt>
<pdfrwt beam="2">  1       -2 0.23977527E+00 0.38765220E+04</pdfrwt>
<totfact> 0.23216632E-01</totfact>
</mgrwt>
</event>
<event>
 6    1  0.2236204E-005  0.3296491E+04  0.7818608E-02  0.8163789E-01
          1   -1    0    0  501    0  0.00000000000E+00  0.00000000000E+00  0.30740055240E+04  0.30740055240E+04  0.00000000000E+00 0. -1.
         -1   -1    0    0    0  501 -0.00000000000E+00 -0.00000000000E+00 -0.88376971714E+03  0.88376971714E+03  0.00000000000E+00 0.  1.
         23    2    1    2    0    0  0.59631457552E+03 -0.63573297937E+03  0.27737102630E+04  0.29088758489E+04  0.91337762612E+02 0.  0.
         13    1    3    3    0    0  0.41491562375E+03 -0.42131587125E+03  0.20092284021E+04  0.20944356782E+04  0.00000000000E+00 0. -1.
        -13    1    3    3    0    0  0.18139895177E+03 -0.21441710812E+03  0.76448186092E+03  0.81444017069E+03  0.00000000000E+00 0.  1.
         22    1    1    2    0    0 -0.59631457552E+03  0.63573297937E+03 -0.58347445619E+03  0.10488993923E+04  0.00000000000E+00 0.  1.
<mgrwt>
<rscale>  0 0.32964909E+04</rscale>
<asrwt>0</asrwt>
<pdfrwt beam="1">  1        1 0.47292392E+00 0.32964909E+04</pdfrwt>
<pdfrwt beam="2">  1       -1 0.13596457E+00 0.32964909E+04</pdfrwt>
<totfact> 0.19780082E-01</totfact>
</mgrwt>
</event>
<event>
 6    1  0.2236204E-005  0.1028181E+04  0.7818608E-02  0.9278165E-01
         -2   -1    0    0    0  501 -0.00000000000E+00  0.00000000000E+00  0.64719578385E+03  0.64719578385E+03  0.00000000000E+00 0. -1.
          2   -1    0    0  501    0  0.00000000000E+00 -0.00000000000E+00 -0.40836017031E+03  0.40836017031E+03  0.00000000000E+00 0.  1.
         23    2    1    2    0    0  0.62102347086E+02  0.43017214510E+03 -0.15373491275E+03  0.46987993959E+03  0.90818270731E+02 0.  0.
         11    1    3    3    0    0  0.10004387413E+02  0.25196199662E+03 -0.49568541351E+02  0.25698633388E+03  0.00000000000E+00 0. -1.
        -11    1    3    3    0    0  0.52097959673E+02  0.17821014848E+03 -0.10416637140E+03  0.21289360571E+03  0.00000000000E+00 0.  1.
         22    1    1    2    0    0 -0.62102347086E+02 -0.43017214510E+03  0.39257052628E+03  0.58567601457E+03  0.00000000000E+00 0.  1.
<mgrwt>
<rscale>  0 0.10281809E+04</rscale>
<asrwt>0</asrwt>
<pdfrwt beam="1">  1        2 0.62824642E-01 0.10281809E+04</pdfrwt>
<pdfrwt beam="2">  1       -2 0.99568581E-01 0.10281809E+04</pdfrwt>
<totfact> 0.64641370E+01</totfact>
</mgrwt>
</event>
<event>
 6    1  0.2236204E-005  0.5778344E+03  0.7818608E-02  0.9952491E-01
         -3   -1    0    0    0  501 -0.00000000000E+00  0.00000000000E+00  0.36623219461E+03  0.36623219461E+03  0.00000000000E+00 0.  1.
          3   -1    0    0  501    0  0.00000000000E+00 -0.00000000000E+00 -0.22792411381E+03  0.22792411381E+03  0.00000000000E+00 0. -1.
         23    2    1    2    0    0 -0.26194863253E+02  0.14011160134E+03 -0.17910005614E+03  0.24621183427E+03  0.90697329259E+02 0.  0.
         13    1    3    3    0    0  0.10888281121E+02  0.11517423973E+03 -0.16040412704E+03  0.19777043291E+03  0.00000000000E+00 0. -1.
        -13    1    3    3    0    0 -0.37083144374E+02  0.24937361606E+02 -0.18695929105E+02  0.48441401359E+02  0.00000000000E+00 0.  1.
         22    1    1    2    0    0  0.26194863253E+02 -0.14011160134E+03  0.31740813694E+03  0.34794447415E+03  0.00000000000E+00 0.  1.
<mgrwt>
<rscale>  0 0.57783440E+03</rscale>
<asrwt>0</asrwt>
<pdfrwt beam="1">  1        3 0.35065248E-01 0.57783440E+03</pdfrwt>
<pdfrwt beam="2">  1       -3 0.56343414E-01 0.57783440E+03</pdfrwt>
<totfact> 0.65363230E+01</totfact>
</mgrwt>
</event>
<event>
 6    1  0.2236204E-005  0.4351749E+04  0.7818608E-02  0.7937118E-01
         -2   -1    0    0    0  501 -0.00000000000E+00  0.00000000000E+00  0.12285317234E+04  0.12285317234E+04  0.00000000000E+00 0.  1.
          2   -1    0    0  501    0  0.00000000000E+00 -0.00000000000E+00 -0.38537304243E+04  0.38537304243E+04  0.00000000000E+00 0. -1.
         23    2    1    2    0    0  0.20797782790E+04 -0.42627375303E+03 -0.18646038380E+04  0.28271143592E+04  0.92957652407E+02 0.  0.
         11    1    3    3    0    0  0.52192145301E+03 -0.67910219299E+02 -0.47795160655E+03  0.71095115106E+03  0.00000000000E+00 0. -1.
        -11    1    3    3    0    0  0.15578568260E+04 -0.35836353373E+03 -0.13866522314E+04  0.21161632081E+04  0.00000000000E+00 0.  1.
         22    1    1    2    0    0 -0.20797782790E+04  0.42627375303E+03 -0.76059486291E+03  0.22551477885E+04  0.00000000000E+00 0.  1.
<mgrwt>
<rscale>  0 0.43517491E+04</rscale>
<asrwt>0</asrwt>
<pdfrwt beam="1">  1        2 0.59288159E+00 0.43517491E+04</pdfrwt>
<pdfrwt beam="2">  1       -2 0.18900488E+00 0.43517491E+04</pdfrwt>
<totfact> 0.53733843E-02</totfact>
</mgrwt>
</event>
<event>
 6    1  0.2236204E-005  0.2526293E+04  0.7818608E-02  0.8393678E-01
         -2   -1    0    0    0  501 -0.00000000000E+00  0.00000000000E+00  0.10319769863E+04  0.10319769863E+04  0.00000000000E+00 0. -1.
          2   -1    0    0  501    0  0.00000000000E+00 -0.00000000000E+00 -0.15460995276E+04  0.15460995276E+04  0.00000000000E+00 0.  1.
         23    2    1    2    0    0 -0.18470078723E+03  0.12324154013E+04 -0.45702571512E+03  0.13305901815E+04  0.92928061891E+02 0.  0.
         13    1    3    3    0    0 -0.25075247842E+02  0.44139050908E+03 -0.14266010229E+03  0.46454951765E+03  0.00000000000E+00 0.  1.
        -13    1    3    3    0    0 -0.15962553938E+03  0.79102489220E+03 -0.31436561283E+03  0.86604066385E+03  0.00000000000E+00 0. -1.
         22    1    1    2    0    0  0.18470078723E+03 -0.12324154013E+04 -0.57096826201E+02  0.12474863325E+04  0.00000000000E+00 0. -1.
<mgrwt>
<rscale>  0 0.25262930E+04</rscale>
<asrwt>0</asrwt>
<pdfrwt beam="1">  1        2 0.23786147E+00 0.25262930E+04</pdfrwt>
<pdfrwt beam="2">  1       -2 0.15876569E+00 0.25262930E+04</pdfrwt>
<totfact> 0.27378284E+00</totfact>
</mgrwt>
</event>
<event>
 6    1  0.2236204E-005  0.3662747E+04  0.7818608E-02  0.8076268E-01
         -1   -1    0    0    0  501 -0.00000000000E+00  0.00000000000E+00  0.13131680269E+04  0.13131680269E+04  0.00000000000E+00 0.  1.
          1   -1    0    0  501    0  0.00000000000E+00 -0.00000000000E+00 -0.25540739936E+04  0.25540739936E+04  0.00000000000E+00 0. -1.
         23    2    1    2    0    0  0.12026174996E+04  0.13654397519E+04 -0.82943153894E+03  0.20017593025E+04  0.91482572719E+02 0.  0.
         13    1    3    3    0    0  0.76744756040E+03  0.85217197303E+03 -0.56895244424E+03  0.12801873743E+04  0.00000000000E+00 0. -1.
        -13    1    3    3    0    0  0.43516993916E+03  0.51326777890E+03 -0.26047909470E+03  0.72157192821E+03  0.00000000000E+00 0.  1.
         22    1    1    2    0    0 -0.12026174996E+04 -0.13654397519E+04 -0.41147442774E+03  0.18654827180E+04  0.00000000000E+00 0.  1.
<mgrwt>
<rscale>  0 0.36627467E+04</rscale>
<asrwt>0</asrwt>
<pdfrwt beam="1">  1        1 0.39293445E+00 0.36627467E+04</pdfrwt>
<pdfrwt beam="2">  1       -1 0.20202585E+00 0.36627467E+04</pdfrwt>
<totfact> 0.14570069E-01</totfact>
</mgrwt>
</event>
<event>
 6    1  0.2236204E-005  0.7502253E+03  0.7818608E-02  0.9634997E-01
         -2   -1    0    0    0  501 -0.00000000000E+00  0.00000000000E+00  0.25868269864E+03  0.25868269864E+03  0.00000000000E+00 0.  1.
          2   -1    0    0  501    0  0.00000000000E+00 -0.00000000000E+00 -0.54394632318E+03  0.54394632318E+03  0.00000000000E+00 0. -1.
         23    2    1    2    0    0 -0.23259368213E+03  0.20466925851E+03 -0.36035714758E+03  0.48383698374E+03  0.90838464710E+02 0.  0.
         11    1    3    3    0    0 -0.15525059070E+03  0.12933624548E+03 -0.29519330925E+03  0.35772852855E+03  0.00000000000E+00 0. -1.
        -11    1    3    3    0    0 -0.77343091431E+02  0.75333013036E+02 -0.65163838327E+02  0.12610845519E+03  0.00000000000E+00 0.  1.
         22    1    1    2    0    0  0.23259368213E+03 -0.20466925851E+03  0.75093523041E+02  0.31879203809E+03  0.00000000000E+00 0.  1.
<mgrwt>
<rscale>  0 0.75022531E+03</rscale>
<asrwt>0</asrwt>
<pdfrwt beam="1">  1        2 0.83684050E-01 0.75022531E+03</pdfrwt>
<pdfrwt beam="2">  1       -2 0.39797338E-01 0.75022531E+03</pdfrwt>
<totfact> 0.33557309E+02</totfact>
</mgrwt>
</event>
<event>
 6    1  0.2236204E-005  0.1991196E+04  0.7818608E-02  0.8610748E-01
          2   -1    0    0  501    0  0.00000000000E+00  0.00000000000E+00  0.14709531766E+04  0.14709531766E+04  0.00000000000E+00 0. -1.
         -2   -1    0    0    0  501 -0.00000000000E+00 -0.00000000000E+00 -0.67385925161E+03  0.67385925161E+03  0.00000000000E+00 0.  1.
         23    2    1    2    0    0  0.58277469307E+03 -0.75529833012E+03  0.69813247312E+03  0.11857007145E+04  0.91626000772E+02 0.  0.
         11    1    3    3    0    0  0.27979249860E+03 -0.31708569475E+03  0.26459930316E+03  0.49883862252E+03  0.00000000000E+00 0.  1.
        -11    1    3    3    0    0  0.30298219448E+03 -0.43821263538E+03  0.43353316996E+03  0.68686209200E+03  0.00000000000E+00 0. -1.
         22    1    1    2    0    0 -0.58277469307E+03  0.75529833012E+03  0.98961451861E+02  0.95911171369E+03  0.00000000000E+00 0.  1.
<mgrwt>
<rscale>  0 0.19911960E+04</rscale>
<asrwt>0</asrwt>
<pdfrwt beam="1">  1        2 0.22630049E+00 0.19911960E+04</pdfrwt>
<pdfrwt beam="2">  1       -2 0.10367065E+00 0.19911960E+04</pdfrwt>
<totfact> 0.92910484E+00</totfact>
</mgrwt>
</event>
<event>
 6    1  0.2236204E-005  0.1414408E+04  0.7818608E-02  0.8943455E-01
         -2   -1    0    0    0  501 -0.00000000000E+00  0.00000000000E+00  0.19901847974E+03  0.19901847974E+03  0.00000000000E+00 0.  1.
          2   -1    0    0  501    0  0.00000000000E+00 -0.00000000000E+00 -0.25130202272E+04  0.25130202272E+04  0.00000000000E+00 0. -1.
         23    2    1    2    0    0 -0.42321610658E+03  0.54648091846E+03 -0.14183209306E+04  0.15806690092E+04  0.95535268590E+02 0.  0.
         11    1    3    3    0    0 -0.17104076676E+03  0.29322829262E+03 -0.73127670457E+03  0.80622787978E+03  0.00000000000E+00 0. -1.
        -11    1    3    3    0    0 -0.25217533982E+03  0.25325262584E+03 -0.68704422599E+03  0.77444112945E+03  0.00000000000E+00 0.  1.
         22    1    1    2    0    0  0.42321610658E+03 -0.54648091846E+03 -0.89568081686E+03  0.11313696977E+04  0.00000000000E+00 0.  1.
<mgrwt>
<rscale>  0 0.14144080E+04</rscale>
<asrwt>0</asrwt>
<pdfrwt beam="1">  1        2 0.38661849E+00 0.14144080E+04</pdfrwt>
<pdfrwt beam="2">  1       -2 0.30618228E-01 0.14144080E+04</pdfrwt>
<totfact> 0.32951716E+01</totfact>
</mgrwt>
</event>
<event>
 6    1  0.2236204E-005  0.2562127E+04  0.7818608E-02  0.8381181E-01
         -2   -1    0    0    0  501 -0.00000000000E+00  0.00000000000E+00  0.15867856055E+04  0.15867856055E+04  0.00000000000E+00 0.  1.
          2   -1    0    0  501    0  0.00000000000E+00 -0.00000000000E+00 -0.10342444477E+04  0.10342444477E+04  0.00000000000E+00 0. -1.
         23    2    1    2    0    0  0.28484328653E+03 -0.21474647705E+03 -0.98014718959E+03  0.10473765596E+04  0.95170358435E+02 0.  0.
         11    1    3    3    0    0  0.17707236551E+03 -0.95539737212E+02 -0.43979385702E+03  0.48363322951E+03  0.00000000000E+00 0. -1.
        -11    1    3    3    0    0  0.10777092102E+03 -0.11920673984E+03 -0.54035333257E+03  0.56374333012E+03  0.00000000000E+00 0.  1.
         22    1    1    2    0    0 -0.28484328653E+03  0.21474647705E+03  0.15326883475E+04  0.15736534936E+04  0.00000000000E+00 0.  1.
<mgrwt>
<rscale>  0 0.25621274E+04</rscale>
<asrwt>0</asrwt>
<pdfrwt beam="1">  1        2 0.15911453E+00 0.25621274E+04</pdfrwt>
<pdfrwt beam="2">  1       -2 0.24412086E+00 0.25621274E+04</pdfrwt>
<totfact> 0.14844214E+00</totfact>
</mgrwt>
</event>
<event>
 6    1  0.2236204E-005  0.2268042E+04  0.7818608E-02  0.8490629E-01
          2   -1    0    0  501    0  0.00000000000E+00  0.00000000000E+00  0.29034992231E+04  0.29034992231E+04  0.00000000000E+00 0.  1.
         -2   -1    0    0    0  501 -0.00000000000E+00 -0.00000000000E+00 -0.44291511242E+03  0.44291511242E+03  0.00000000000E+00 0. -1.
         23    2    1    2    0    0 -0.47477448497E+02 -0.11260638614E+04  0.13915062271E+04  0.17929660908E+04  0.90354272105E+02 0.  0.
         11    1    3    3    0    0  0.27019243571E+02 -0.34272257379E+03  0.42783600902E+03  0.54884647464E+03  0.00000000000E+00 0.  1.
        -11    1    3    3    0    0 -0.74496692068E+02 -0.78334128760E+03  0.96367021810E+03  0.12441196161E+04  0.00000000000E+00 0. -1.
         22    1    1    2    0    0  0.47477448497E+02  0.11260638614E+04  0.10690778836E+04  0.15534482448E+04  0.00000000000E+00 0. -1.
<mgrwt>
<rscale>  0 0.22680420E+04</rscale>
<asrwt>0</asrwt>
<pdfrwt beam="1">  1        2 0.44669218E+00 0.22680420E+04</pdfrwt>
<pdfrwt beam="2">  1       -2 0.68140788E-01 0.22680420E+04</pdfrwt>
<totfact> 0.35845617E+00</totfact>
</mgrwt>
</event>
<event>
 6    1  0.2236204E-005  0.3437377E+04  0.7818608E-02  0.8128793E-01
          2   -1    0    0  501    0  0.00000000000E+00  0.00000000000E+00  0.26436810463E+04  0.26436810463E+04  0.00000000000E+00 0. -1.
         -2   -1    0    0    0  501 -0.00000000000E+00 -0.00000000000E+00 -0.11173399003E+04  0.11173399003E+04  0.00000000000E+00 0.  1.
         23    2    1    2    0    0  0.25626370771E+03  0.86372595671E+03 -0.83622658625E+03  0.12324996582E+04  0.89927123913E+02 0.  0.
         13    1    3    3    0    0  0.79487575602E+02  0.14974602673E+03 -0.14358832428E+03  0.22217055175E+03  0.00000000000E+00 0.  1.
        -13    1    3    3    0    0  0.17677613211E+03  0.71397992998E+03 -0.69263826198E+03  0.10103291064E+04  0.00000000000E+00 0. -1.
         22    1    1    2    0    0 -0.25626370771E+03 -0.86372595671E+03  0.23625677323E+04  0.25285212884E+04  0.00000000000E+00 0. -1.
<mgrwt>
<rscale>  0 0.34373771E+04</rscale>
<asrwt>0</asrwt>
<pdfrwt beam="1">  1        2 0.40672016E+00 0.34373771E+04</pdfrwt>
<pdfrwt beam="2">  1       -2 0.17189845E+00 0.34373771E+04</pdfrwt>
<totfact> 0.48931370E-01</totfact>
</mgrwt>
</event>
<event>
 6    1  0.2236204E-005  0.3075462E+04  0.7818608E-02  0.8222505E-01
         -2   -1    0    0    0  501 -0.00000000000E+00  0.00000000000E+00  0.18108578251E+04  0.18108578251E+04  0.00000000000E+00 0.  1.
          2   -1    0    0  501    0  0.00000000000E+00 -0.00000000000E+00 -0.13057990845E+04  0.13057990845E+04  0.00000000000E+00 0. -1.
         23    2    1    2    0    0  0.66184934158E+03 -0.60472158580E+03  0.15171268111E+04  0.17646160350E+04  0.91995883520E+02 0.  0.
         11    1    3    3    0    0  0.51744015507E+03 -0.48735362181E+03  0.12682250332E+04  0.14538406383E+04  0.00000000000E+00 0. -1.
        -11    1    3    3    0    0  0.14440918652E+03 -0.11736796399E+03  0.24890177795E+03  0.31077539669E+03  0.00000000000E+00 0.  1.
         22    1    1    2    0    0 -0.66184934158E+03  0.60472158580E+03 -0.10120680706E+04  0.13520408747E+04  0.00000000000E+00 0. -1.
<mgrwt>
<rscale>  0 0.30754619E+04</rscale>
<asrwt>0</asrwt>
<pdfrwt beam="1">  1        2 0.20089217E+00 0.30754619E+04</pdfrwt>
<pdfrwt beam="2">  1       -2 0.27859351E+00 0.30754619E+04</pdfrwt>
<totfact> 0.59936672E-01</totfact>
</mgrwt>
</event>
<event>
 6    1  0.2236204E-005  0.2600500E+04  0.7818608E-02  0.8368031E-01
          2   -1    0    0  501    0  0.00000000000E+00  0.00000000000E+00  0.15584516749E+04  0.15584516749E+04  0.00000000000E+00 0. -1.
         -2   -1    0    0    0  501 -0.00000000000E+00 -0.00000000000E+00 -0.10848267754E+04  0.10848267754E+04  0.00000000000E+00 0.  1.
         23    2    1    2    0    0  0.29738436274E+03  0.81883019881E+03  0.12158002493E+04  0.14988377120E+04  0.97076706614E+02 0.  0.
         13    1    3    3    0    0  0.83047711650E+02  0.32463802431E+03  0.40905717791E+03  0.52878591513E+03  0.00000000000E+00 0. -1.
        -13    1    3    3    0    0  0.21433665109E+03  0.49419217449E+03  0.80674307137E+03  0.97005179683E+03  0.00000000000E+00 0.  1.
         22    1    1    2    0    0 -0.29738436274E+03 -0.81883019881E+03 -0.74217534979E+03  0.11444407383E+04  0.00000000000E+00 0.  1.
<mgrwt>
<rscale>  0 0.26005000E+04</rscale>
<asrwt>0</asrwt>
<pdfrwt beam="1">  1        2 0.23976180E+00 0.26005000E+04</pdfrwt>
<pdfrwt beam="2">  1       -2 0.16689643E+00 0.26005000E+04</pdfrwt>
<totfact> 0.23351298E+00</totfact>
</mgrwt>
</event>
<event>
 6    1  0.2236204E-005  0.1632491E+04  0.7818608E-02  0.8800833E-01
         -2   -1    0    0    0  501 -0.00000000000E+00  0.00000000000E+00  0.12903958682E+04  0.12903958682E+04  0.00000000000E+00 0. -1.
          2   -1    0    0  501    0  0.00000000000E+00 -0.00000000000E+00 -0.51631959095E+03  0.51631959095E+03  0.00000000000E+00 0.  1.
         23    2    1    2    0    0  0.32750413875E+03 -0.70623005510E+03  0.65009240996E+03  0.10184313409E+04  0.92533253965E+02 0.  0.
         13    1    3    3    0    0  0.29592621367E+03 -0.68251539608E+03  0.60851213246E+03  0.96108615908E+03  0.00000000000E+00 0. -1.
        -13    1    3    3    0    0  0.31577925089E+02 -0.23714659014E+02  0.41580277503E+02  0.57345181858E+02  0.00000000000E+00 0.  1.
         22    1    1    2    0    0 -0.32750413875E+03  0.70623005510E+03  0.12398386724E+03  0.78828411817E+03  0.00000000000E+00 0.  1.
<mgrwt>
<rscale>  0 0.16324909E+04</rscale>
<asrwt>0</asrwt>
<pdfrwt beam="1">  1        2 0.79433784E-01 0.16324909E+04</pdfrwt>
<pdfrwt beam="2">  1       -2 0.19852244E+00 0.16324909E+04</pdfrwt>
<totfact> 0.77090483E+00</totfact>
</mgrwt>
</event>
<event>
 6    1  0.2236204E-005  0.4030401E+04  0.7818608E-02  0.7998442E-01
         -2   -1    0    0    0  501 -0.00000000000E+00  0.00000000000E+00  0.23346232629E+04  0.23346232629E+04  0.00000000000E+00 0.  1.
          2   -1    0    0  501    0  0.00000000000E+00 -0.00000000000E+00 -0.17394808823E+04  0.17394808823E+04  0.00000000000E+00 0. -1.
         23    2    1    2    0    0 -0.88738405477E+02  0.13993024002E+04 -0.11639191419E+04  0.18246110574E+04  0.92606857043E+02 0.  0.
         13    1    3    3    0    0 -0.87135416494E+02  0.67971193138E+03 -0.58664660776E+03  0.90208377264E+03  0.00000000000E+00 0. -1.
        -13    1    3    3    0    0 -0.16029889834E+01  0.71959046881E+03 -0.57727253419E+03  0.92252728475E+03  0.00000000000E+00 0.  1.
         22    1    1    2    0    0  0.88738405477E+02 -0.13993024002E+04  0.17590615226E+04  0.22494930878E+04  0.00000000000E+00 0.  1.
<mgrwt>
<rscale>  0 0.40304007E+04</rscale>
<asrwt>0</asrwt>
<pdfrwt beam="1">  1        2 0.26761244E+00 0.40304007E+04</pdfrwt>
<pdfrwt beam="2">  1       -2 0.35917281E+00 0.40304007E+04</pdfrwt>
<totfact> 0.99836505E-02</totfact>
</mgrwt>
</event>
<event>
 6    1  0.2236204E-005  0.1525566E+04  0.7818608E-02  0.8867628E-01
         -1   -1    0    0    0  501 -0.00000000000E+00  0.00000000000E+00  0.21299574484E+03  0.21299574484E+03  0.00000000000E+00 0.  1.
          1   -1    0    0  501    0  0.00000000000E+00 -0.00000000000E+00 -0.27316872916E+04  0.27316872916E+04  0.00000000000E+00 0. -1.
         23    2    1    2    0    0 -0.20388934470E+03  0.48284960837E+03 -0.20125986084E+03  0.56871918401E+03  0.90671767867E+02 0.  0.
         11    1    3    3    0    0 -0.11565126426E+03  0.29971123859E+03 -0.16866390213E+03  0.36283543562E+03  0.00000000000E+00 0. -1.
        -11    1    3    3    0    0 -0.88238080443E+02  0.18313836978E+03 -0.32595958718E+02  0.20588374839E+03  0.00000000000E+00 0.  1.
         22    1    1    2    0    0  0.20388934470E+03 -0.48284960837E+03 -0.23174316859E+04  0.23759638524E+04  0.00000000000E+00 0. -1.
<mgrwt>
<rscale>  0 0.15255658E+04</rscale>
<asrwt>0</asrwt>
<pdfrwt beam="1">  1        1 0.42025959E+00 0.15255658E+04</pdfrwt>
<pdfrwt beam="2">  1       -1 0.32768576E-01 0.15255658E+04</pdfrwt>
<totfact> 0.78839163E+00</totfact>
</mgrwt>
</event>
<event>
 6    1  0.2236204E-005  0.1753629E+04  0.7818608E-02  0.8731356E-01
          2   -1    0    0  501    0  0.00000000000E+00  0.00000000000E+00  0.46077412421E+03  0.46077412421E+03  0.00000000000E+00 0. -1.
         -2   -1    0    0    0  501 -0.00000000000E+00 -0.00000000000E+00 -0.16685036327E+04  0.16685036327E+04  0.00000000000E+00 0.  1.
         23    2    1    2    0    0 -0.56454803451E+03  0.30737853480E+03 -0.13250121861E+04  0.14758626718E+04  0.96526088221E+02 0.  0.
         13    1    3    3    0    0 -0.28003505242E+03  0.16204633221E+03 -0.77450141060E+03  0.83936349658E+03  0.00000000000E+00 0.  1.
        -13    1    3    3    0    0 -0.28451298209E+03  0.14533220260E+03 -0.55051077550E+03  0.63649917521E+03  0.00000000000E+00 0. -1.
         22    1    1    2    0    0  0.56454803451E+03 -0.30737853480E+03  0.11728267766E+03  0.65341508508E+03  0.00000000000E+00 0. -1.
<mgrwt>
<rscale>  0 0.17536286E+04</rscale>
<asrwt>0</asrwt>
<pdfrwt beam="1">  1        2 0.70888329E-01 0.17536286E+04</pdfrwt>
<pdfrwt beam="2">  1       -2 0.25669286E+00 0.17536286E+04</pdfrwt>
<totfact> 0.37498948E+00</totfact>
</mgrwt>
</event>
<event>
 6    1  0.2236204E-005  0.3533639E+03  0.7818608E-02  0.1061243E+00
          3   -1    0    0  501    0  0.00000000000E+00  0.00000000000E+00  0.26881424236E+02  0.26881424236E+02  0.00000000000E+00 0. -1.
         -3   -1    0    0    0  501 -0.00000000000E+00 -0.00000000000E+00 -0.11612670539E+04  0.11612670539E+04  0.00000000000E+00 0.  1.
         23    2    1    2    0    0 -0.60921884229E+02 -0.78551626736E+02 -0.10473969365E+04  0.10560543194E+04  0.91260883373E+02 0.  0.
         11    1    3    3    0    0 -0.32996462988E+02 -0.28566036578E+02 -0.83302780129E+03  0.83417030799E+03  0.00000000000E+00 0.  1.
        -11    1    3    3    0    0 -0.27925421241E+02 -0.49985590158E+02 -0.21436913522E+03  0.22188401139E+03  0.00000000000E+00 0. -1.
         22    1    1    2    0    0  0.60921884229E+02  0.78551626736E+02 -0.86988693161E+02  0.13209415876E+03  0.00000000000E+00 0. -1.
<mgrwt>
<rscale>  0 0.35336390E+03</rscale>
<asrwt>0</asrwt>
<pdfrwt beam="1">  1        3 0.41356045E-02 0.35336390E+03</pdfrwt>
<pdfrwt beam="2">  1       -3 0.17865644E+00 0.35336390E+03</pdfrwt>
<totfact> 0.17172281E+02</totfact>
</mgrwt>
</event>
<event>
 6    1  0.2236204E-005  0.1520077E+04  0.7818608E-02  0.8871211E-01
         -2   -1    0    0    0  501 -0.00000000000E+00  0.00000000000E+00  0.27374451129E+03  0.27374451129E+03  0.00000000000E+00 0.  1.
          2   -1    0    0  501    0  0.00000000000E+00 -0.00000000000E+00 -0.21102098937E+04  0.21102098937E+04  0.00000000000E+00 0. -1.
         23    2    1    2    0    0 -0.85299450684E+02 -0.62065972633E+03 -0.25404547554E+03  0.68202983152E+03  0.90172585996E+02 0.  0.
         13    1    3    3    0    0 -0.96211967419E+02 -0.60221967109E+03 -0.23569051553E+03  0.65381594813E+03  0.00000000000E+00 0.  1.
        -13    1    3    3    0    0  0.10912516735E+02 -0.18440055242E+02 -0.18354960014E+02  0.28213883390E+02  0.00000000000E+00 0. -1.
         22    1    1    2    0    0  0.85299450684E+02  0.62065972633E+03 -0.15824199069E+04  0.17019245735E+04  0.00000000000E+00 0. -1.
<mgrwt>
<rscale>  0 0.15200768E+04</rscale>
<asrwt>0</asrwt>
<pdfrwt beam="1">  1        2 0.32464769E+00 0.15200768E+04</pdfrwt>
<pdfrwt beam="2">  1       -2 0.42114538E-01 0.15200768E+04</pdfrwt>
<totfact> 0.29915484E+01</totfact>
</mgrwt>
</event>
<event>
 6    1  0.2236204E-005  0.3524748E+04  0.7818608E-02  0.8107950E-01
         -1   -1    0    0    0  501 -0.00000000000E+00  0.00000000000E+00  0.17166575823E+04  0.17166575823E+04  0.00000000000E+00 0.  1.
          1   -1    0    0  501    0  0.00000000000E+00 -0.00000000000E+00 -0.18093082166E+04  0.18093082166E+04  0.00000000000E+00 0. -1.
         23    2    1    2    0    0 -0.14636461742E+04  0.14294359386E+03  0.92308217821E+03  0.17386756320E+04  0.90660086251E+02 0.  0.
         13    1    3    3    0    0 -0.58222264053E+03  0.38898707942E+02  0.31855800263E+03  0.66481238982E+03  0.00000000000E+00 0. -1.
        -13    1    3    3    0    0 -0.88142353369E+03  0.10404488591E+03  0.60452417558E+03  0.10738632422E+04  0.00000000000E+00 0.  1.
         22    1    1    2    0    0  0.14636461742E+04 -0.14294359386E+03 -0.10157328125E+04  0.17872901669E+04  0.00000000000E+00 0. -1.
<mgrwt>
<rscale>  0 0.35247483E+04</rscale>
<asrwt>0</asrwt>
<pdfrwt beam="1">  1        1 0.27835511E+00 0.35247483E+04</pdfrwt>
<pdfrwt beam="2">  1       -1 0.26410117E+00 0.35247483E+04</pdfrwt>
<totfact> 0.18447315E-01</totfact>
</mgrwt>
</event>
<event>
 6    1  0.2236204E-005  0.2608187E+04  0.7818608E-02  0.8365426E-01
          2   -1    0    0  501    0  0.00000000000E+00  0.00000000000E+00  0.12909767176E+04  0.12909767176E+04  0.00000000000E+00 0. -1.
         -2   -1    0    0    0  501 -0.00000000000E+00 -0.00000000000E+00 -0.13173435534E+04  0.13173435534E+04  0.00000000000E+00 0.  1.
         23    2    1    2    0    0 -0.70995474123E+03  0.22298302232E+03  0.10558981638E+04  0.12949068966E+04  0.90032081391E+02 0.  0.
         11    1    3    3    0    0 -0.36014925383E+03  0.73762924702E+02  0.47615455575E+03  0.60155765730E+03  0.00000000000E+00 0. -1.
        -11    1    3    3    0    0 -0.34980548740E+03  0.14922009762E+03  0.57974360803E+03  0.69334923927E+03  0.00000000000E+00 0.  1.
         22    1    1    2    0    0  0.70995474123E+03 -0.22298302232E+03 -0.10822649996E+04  0.13134133744E+04  0.00000000000E+00 0.  1.
<mgrwt>
<rscale>  0 0.26081870E+04</rscale>
<asrwt>0</asrwt>
<pdfrwt beam="1">  1        2 0.19861180E+00 0.26081870E+04</pdfrwt>
<pdfrwt beam="2">  1       -2 0.20266824E+00 0.26081870E+04</pdfrwt>
<totfact> 0.18897311E+00</totfact>
</mgrwt>
</event>
<event>
 6    1  0.2236204E-005  0.6304765E+03  0.7818608E-02  0.9844119E-01
         -2   -1    0    0    0  501 -0.00000000000E+00  0.00000000000E+00  0.10616731927E+03  0.10616731927E+03  0.00000000000E+00 0.  1.
          2   -1    0    0  501    0  0.00000000000E+00 -0.00000000000E+00 -0.93602382799E+03  0.93602382799E+03  0.00000000000E+00 0. -1.
         23    2    1    2    0    0  0.22740241210E+03 -0.20582578810E+03 -0.37133256919E+03  0.49053879732E+03  0.93082343451E+02 0.  0.
         11    1    3    3    0    0  0.17621317302E+03 -0.20219211476E+03 -0.32522954493E+03  0.42155306963E+03  0.00000000000E+00 0. -1.
        -11    1    3    3    0    0  0.51189239081E+02 -0.36336733354E+01 -0.46103024261E+02  0.68985727695E+02  0.00000000000E+00 0.  1.
         22    1    1    2    0    0 -0.22740241210E+03  0.20582578810E+03 -0.45852393953E+03  0.55165234994E+03  0.00000000000E+00 0.  1.
<mgrwt>
<rscale>  0 0.63047646E+03</rscale>
<asrwt>0</asrwt>
<pdfrwt beam="1">  1        2 0.14400367E+00 0.63047646E+03</pdfrwt>
<pdfrwt beam="2">  1       -2 0.16333434E-01 0.63047646E+03</pdfrwt>
<totfact> 0.84649853E+02</totfact>
</mgrwt>
</event>
<event>
 6    1  0.2236204E-005  0.2099707E+04  0.7818608E-02  0.8561372E-01
         -2   -1    0    0    0  501 -0.00000000000E+00  0.00000000000E+00  0.89434958690E+03  0.89434958690E+03  0.00000000000E+00 0.  1.
          2   -1    0    0  501    0  0.00000000000E+00 -0.00000000000E+00 -0.12323955705E+04  0.12323955705E+04  0.00000000000E+00 0. -1.
         23    2    1    2    0    0  0.77882867471E+02 -0.70290376158E+03 -0.95248747050E+03  0.11899005706E+04  0.92149592476E+02 0.  0.
         11    1    3    3    0    0  0.60827601429E+02 -0.34439447205E+03 -0.40309831741E+03  0.53366263030E+03  0.00000000000E+00 0. -1.
        -11    1    3    3    0    0  0.17055266042E+02 -0.35850928953E+03 -0.54938915309E+03  0.65623794032E+03  0.00000000000E+00 0.  1.
         22    1    1    2    0    0 -0.77882867471E+02  0.70290376158E+03  0.61444148686E+03  0.93684458683E+03  0.00000000000E+00 0.  1.
<mgrwt>
<rscale>  0 0.20997071E+04</rscale>
<asrwt>0</asrwt>
<pdfrwt beam="1">  1        2 0.18959932E+00 0.20997071E+04</pdfrwt>
<pdfrwt beam="2">  1       -2 0.13759224E+00 0.20997071E+04</pdfrwt>
<totfact> 0.62735915E+00</totfact>
</mgrwt>
</event>
<event>
 6    1  0.2236204E-005  0.2586893E+04  0.7818608E-02  0.8372667E-01
          2   -1    0    0  501    0  0.00000000000E+00  0.00000000000E+00  0.17019864225E+04  0.17019864225E+04  0.00000000000E+00 0. -1.
         -2   -1    0    0    0  501 -0.00000000000E+00 -0.00000000000E+00 -0.98297099650E+03  0.98297099650E+03  0.00000000000E+00 0.  1.
         23    2    1    2    0    0  0.57813626048E+03  0.10844470612E+04  0.77323283738E+03  0.14548328351E+04  0.91556500964E+02 0.  0.
         11    1    3    3    0    0  0.36907464217E+03  0.76666352177E+03  0.50602986508E+03  0.98997740957E+03  0.00000000000E+00 0.  1.
        -11    1    3    3    0    0  0.20906161830E+03  0.31778353948E+03  0.26720297230E+03  0.46485542550E+03  0.00000000000E+00 0. -1.
         22    1    1    2    0    0 -0.57813626048E+03 -0.10844470612E+04 -0.54217411367E+02  0.12301245839E+04  0.00000000000E+00 0.  1.
<mgrwt>
<rscale>  0 0.25868926E+04</rscale>
<asrwt>0</asrwt>
<pdfrwt beam="1">  1        2 0.26184406E+00 0.25868926E+04</pdfrwt>
<pdfrwt beam="2">  1       -2 0.15122631E+00 0.25868926E+04</pdfrwt>
<totfact> 0.25401830E+00</totfact>
</mgrwt>
</event>
<event>
 6    1  0.2236204E-005  0.1275773E+04  0.7818608E-02  0.9049001E-01
          1   -1    0    0  501    0  0.00000000000E+00  0.00000000000E+00  0.26557234140E+04  0.26557234140E+04  0.00000000000E+00 0. -1.
         -1   -1    0    0    0  501 -0.00000000000E+00 -0.00000000000E+00 -0.15321597295E+03  0.15321597295E+03  0.00000000000E+00 0.  1.
         23    2    1    2    0    0  0.58498469860E+03 -0.23888797407E+03  0.13859955982E+04  0.15260234672E+04  0.92137194821E+02 0.  0.
         13    1    3    3    0    0  0.46868325423E+03 -0.14977971871E+03  0.10634889755E+04  0.11717963807E+04  0.00000000000E+00 0. -1.
        -13    1    3    3    0    0  0.11630144437E+03 -0.89108255363E+02  0.32250662269E+03  0.35422708651E+03  0.00000000000E+00 0.  1.
         22    1    1    2    0    0 -0.58498469860E+03  0.23888797407E+03  0.11165118429E+04  0.12829159197E+04  0.00000000000E+00 0.  1.
<mgrwt>
<rscale>  0 0.12757731E+04</rscale>
<asrwt>0</asrwt>
<pdfrwt beam="1">  1        1 0.40857280E+00 0.12757731E+04</pdfrwt>
<pdfrwt beam="2">  1       -1 0.23571690E-01 0.12757731E+04</pdfrwt>
<totfact> 0.16184864E+01</totfact>
</mgrwt>
</event>
<event>
 6    1  0.2236204E-005  0.2081069E+04  0.7818608E-02  0.8569629E-01
         -2   -1    0    0    0  501 -0.00000000000E+00  0.00000000000E+00  0.84826005418E+03  0.84826005418E+03  0.00000000000E+00 0.  1.
          2   -1    0    0  501    0  0.00000000000E+00 -0.00000000000E+00 -0.12763916052E+04  0.12763916052E+04  0.00000000000E+00 0. -1.
         23    2    1    2    0    0  0.69841111822E+01  0.44728689810E+03 -0.11713190474E+04  0.12572175109E+04  0.92158623831E+02 0.  0.
         11    1    3    3    0    0  0.13488185278E+02  0.59918153162E+02 -0.25636178908E+03  0.26361616628E+03  0.00000000000E+00 0. -1.
        -11    1    3    3    0    0 -0.65040740961E+01  0.38736874494E+03 -0.91495725831E+03  0.99360134464E+03  0.00000000000E+00 0.  1.
         22    1    1    2    0    0 -0.69841111822E+01 -0.44728689810E+03  0.74318749641E+03  0.86743414842E+03  0.00000000000E+00 0.  1.
<mgrwt>
<rscale>  0 0.20810690E+04</rscale>
<asrwt>0</asrwt>
<pdfrwt beam="1">  1        2 0.19636794E+00 0.20810690E+04</pdfrwt>
<pdfrwt beam="2">  1       -2 0.13050155E+00 0.20810690E+04</pdfrwt>
<totfact> 0.67755021E+00</totfact>
</mgrwt>
</event>
<event>
 6    1  0.2236204E-005  0.2562175E+04  0.7818608E-02  0.8381164E-01
          2   -1    0    0  501    0  0.00000000000E+00  0.00000000000E+00  0.11815310954E+04  0.11815310954E+04  0.00000000000E+00 0. -1.
         -2   -1    0    0    0  501 -0.00000000000E+00 -0.00000000000E+00 -0.13890321379E+04  0.13890321379E+04  0.00000000000E+00 0.  1.
         23    2    1    2    0    0  0.89370825408E+03 -0.55739328043E+03 -0.83175327611E+03  0.13461888773E+04  0.10492506111E+03 0.  0.
         13    1    3    3    0    0  0.34390210610E+03 -0.15946984567E+03 -0.27442069222E+03  0.46798077586E+03  0.00000000000E+00 0. -1.
        -13    1    3    3    0    0  0.54980614798E+03 -0.39792343476E+03 -0.55733258389E+03  0.87820810139E+03  0.00000000000E+00 0.  1.
         22    1    1    2    0    0 -0.89370825408E+03  0.55739328043E+03  0.62425223364E+03  0.12243743560E+04  0.00000000000E+00 0. -1.
<mgrwt>
<rscale>  0 0.25621746E+04</rscale>
<asrwt>0</asrwt>
<pdfrwt beam="1">  1        2 0.18177402E+00 0.25621746E+04</pdfrwt>
<pdfrwt beam="2">  1       -2 0.21369725E+00 0.25621746E+04</pdfrwt>
<totfact> 0.18690616E+00</totfact>
</mgrwt>
</event>
<event>
 6    1  0.2236204E-005  0.1227535E+04  0.7818608E-02  0.9089091E-01
         -2   -1    0    0    0  501 -0.00000000000E+00  0.00000000000E+00  0.84833561651E+03  0.84833561651E+03  0.00000000000E+00 0.  1.
          2   -1    0    0  501    0  0.00000000000E+00 -0.00000000000E+00 -0.44405805717E+03  0.44405805717E+03  0.00000000000E+00 0. -1.
         23    2    1    2    0    0 -0.35563122804E+03  0.72176466407E+02  0.71994382025E+03  0.81142776954E+03  0.91721906922E+02 0.  0.
         13    1    3    3    0    0 -0.63277572377E+02  0.11640867565E+02  0.21908531373E+03  0.22833732865E+03  0.00000000000E+00 0. -1.
        -13    1    3    3    0    0 -0.29235365566E+03  0.60535598842E+02  0.50085850653E+03  0.58309044090E+03  0.00000000000E+00 0.  1.
         22    1    1    2    0    0  0.35563122804E+03 -0.72176466407E+02 -0.31566626091E+03  0.48096590413E+03  0.00000000000E+00 0. -1.
<mgrwt>
<rscale>  0 0.12275345E+04</rscale>
<asrwt>0</asrwt>
<pdfrwt beam="1">  1        2 0.68316625E-01 0.12275345E+04</pdfrwt>
<pdfrwt beam="2">  1       -2 0.13051317E+00 0.12275345E+04</pdfrwt>
<totfact> 0.29888441E+01</totfact>
</mgrwt>
</event>
<event>
 6    1  0.2236204E-005  0.2071663E+04  0.7818608E-02  0.8573830E-01
          3   -1    0    0  501    0  0.00000000000E+00  0.00000000000E+00  0.71624298484E+03  0.71624298484E+03  0.00000000000E+00 0. -1.
         -3   -1    0    0    0  501 -0.00000000000E+00 -0.00000000000E+00 -0.14980208070E+04  0.14980208070E+04  0.00000000000E+00 0.  1.
         23    2    1    2    0    0  0.41248842092E+03 -0.94781884166E+03 -0.37330561168E+03  0.11027977326E+04  0.91096132655E+02 0.  0.
         11    1    3    3    0    0  0.34791807158E+03 -0.80816819459E+03 -0.28236039458E+03  0.92407262037E+03  0.00000000000E+00 0.  1.
        -11    1    3    3    0    0  0.64570349343E+02 -0.13965064707E+03 -0.90945217106E+02  0.17872511227E+03  0.00000000000E+00 0. -1.
         22    1    1    2    0    0 -0.41248842092E+03  0.94781884166E+03 -0.40847221045E+03  0.11114660592E+04  0.00000000000E+00 0. -1.
<mgrwt>
<rscale>  0 0.20716630E+04</rscale>
<asrwt>0</asrwt>
<pdfrwt beam="1">  1        3 0.11019123E+00 0.20716630E+04</pdfrwt>
<pdfrwt beam="2">  1       -3 0.23046474E+00 0.20716630E+04</pdfrwt>
<totfact> 0.15980836E-01</totfact>
</mgrwt>
</event>
<event>
 6    1  0.2236204E-005  0.3672407E+04  0.7818608E-02  0.8074105E-01
         -2   -1    0    0    0  501 -0.00000000000E+00  0.00000000000E+00  0.11985336838E+04  0.11985336838E+04  0.00000000000E+00 0.  1.
          2   -1    0    0  501    0  0.00000000000E+00 -0.00000000000E+00 -0.28131395564E+04  0.28131395564E+04  0.00000000000E+00 0. -1.
         23    2    1    2    0    0  0.56741912193E+03 -0.16204148352E+04 -0.15158571061E+04  0.22919465128E+04  0.86529494120E+02 0.  0.
         13    1    3    3    0    0  0.13259586692E+03 -0.49710067128E+03 -0.46183960927E+03  0.69136572522E+03  0.00000000000E+00 0.  1.
        -13    1    3    3    0    0  0.43482325501E+03 -0.11233141639E+04 -0.10540174968E+04  0.16005807876E+04  0.00000000000E+00 0. -1.
         22    1    1    2    0    0 -0.56741912193E+03  0.16204148352E+04 -0.98748766480E+02  0.17197267274E+04  0.00000000000E+00 0.  1.
<mgrwt>
<rscale>  0 0.36724066E+04</rscale>
<asrwt>0</asrwt>
<pdfrwt beam="1">  1        2 0.43279070E+00 0.36724066E+04</pdfrwt>
<pdfrwt beam="2">  1       -2 0.18438980E+00 0.36724066E+04</pdfrwt>
<totfact> 0.31106045E-01</totfact>
</mgrwt>
</event>
<event>
 6    1  0.2236204E-005  0.1598409E+04  0.7818608E-02  0.8821526E-01
         -1   -1    0    0    0  501 -0.00000000000E+00  0.00000000000E+00  0.31205611120E+03  0.31205611120E+03  0.00000000000E+00 0.  1.
          1   -1    0    0  501    0  0.00000000000E+00 -0.00000000000E+00 -0.20468360207E+04  0.20468360207E+04  0.00000000000E+00 0. -1.
         23    2    1    2    0    0 -0.29177325505E+03 -0.27591164970E+03  0.14490121210E+03  0.43679432229E+03  0.92379910777E+02 0.  0.
         11    1    3    3    0    0 -0.21441061921E+03 -0.14715961306E+03  0.11132829228E+03  0.28288134263E+03  0.00000000000E+00 0. -1.
        -11    1    3    3    0    0 -0.77362635836E+02 -0.12875203664E+03  0.33572919828E+02  0.15391297966E+03  0.00000000000E+00 0.  1.
         22    1    1    2    0    0  0.29177325505E+03  0.27591164970E+03 -0.18796811216E+04  0.19220978096E+04  0.00000000000E+00 0. -1.
<mgrwt>
<rscale>  0 0.15984088E+04</rscale>
<asrwt>0</asrwt>
<pdfrwt beam="1">  1        1 0.31489784E+00 0.15984088E+04</pdfrwt>
<pdfrwt beam="2">  1       -1 0.48008634E-01 0.15984088E+04</pdfrwt>
<totfact> 0.11530569E+01</totfact>
</mgrwt>
</event>
<event>
 6    1  0.2236204E-005  0.2835238E+04  0.7818608E-02  0.8292411E-01
         -2   -1    0    0    0  501 -0.00000000000E+00  0.00000000000E+00  0.74470938285E+03  0.74470938285E+03  0.00000000000E+00 0. -1.
          2   -1    0    0  501    0  0.00000000000E+00 -0.00000000000E+00 -0.26985613853E+04  0.26985613853E+04  0.00000000000E+00 0.  1.
         23    2    1    2    0    0 -0.12115677660E+04 -0.22957927751E+03 -0.13215151074E+03  0.12434535535E+04  0.90053437372E+02 0.  0.
         11    1    3    3    0    0 -0.70171698978E+03 -0.88485521163E+02 -0.84307676664E+02  0.71228098778E+03  0.00000000000E+00 0. -1.
        -11    1    3    3    0    0 -0.50985077625E+03 -0.14109375634E+03 -0.47843834076E+02  0.53117256573E+03  0.00000000000E+00 0.  1.
         22    1    1    2    0    0  0.12115677660E+04  0.22957927751E+03 -0.18217004917E+04  0.21998172147E+04  0.00000000000E+00 0.  1.
<mgrwt>
<rscale>  0 0.28352383E+04</rscale>
<asrwt>0</asrwt>
<pdfrwt beam="1">  1        2 0.41516329E+00 0.28352383E+04</pdfrwt>
<pdfrwt beam="2">  1       -2 0.11457068E+00 0.28352383E+04</pdfrwt>
<totfact> 0.13732932E+00</totfact>
</mgrwt>
</event>
<event>
 6    1  0.2236204E-005  0.2507726E+04  0.7818608E-02  0.8400238E-01
         -2   -1    0    0    0  501 -0.00000000000E+00  0.00000000000E+00  0.16284221054E+04  0.16284221054E+04  0.00000000000E+00 0.  1.
          2   -1    0    0  501    0  0.00000000000E+00 -0.00000000000E+00 -0.96545735726E+03  0.96545735726E+03  0.00000000000E+00 0. -1.
         23    2    1    2    0    0 -0.71876441346E+03  0.10249948186E+04  0.36037357830E+03  0.13059361113E+04  0.91451357466E+02 0.  0.
         13    1    3    3    0    0 -0.17247508962E+03  0.29061368564E+03  0.64702633270E+02  0.34407906297E+03  0.00000000000E+00 0.  1.
        -13    1    3    3    0    0 -0.54628932384E+03  0.73438113292E+03  0.29567094503E+03  0.96185704835E+03  0.00000000000E+00 0. -1.
         22    1    1    2    0    0  0.71876441346E+03 -0.10249948186E+04  0.30259116981E+03  0.12879433513E+04  0.00000000000E+00 0. -1.
<mgrwt>
<rscale>  0 0.25077257E+04</rscale>
<asrwt>0</asrwt>
<pdfrwt beam="1">  1        2 0.14853190E+00 0.25077257E+04</pdfrwt>
<pdfrwt beam="2">  1       -2 0.25052648E+00 0.25077257E+04</pdfrwt>
<totfact> 0.15076688E+00</totfact>
</mgrwt>
</event>
<event>
 6    1  0.2236204E-005  0.3180853E+04  0.7818608E-02  0.8193892E-01
          1   -1    0    0  501    0  0.00000000000E+00  0.00000000000E+00  0.12182398632E+04  0.12182398632E+04  0.00000000000E+00 0. -1.
         -1   -1    0    0    0  501 -0.00000000000E+00 -0.00000000000E+00 -0.20763209639E+04  0.20763209639E+04  0.00000000000E+00 0.  1.
         23    2    1    2    0    0  0.63206278022E+03  0.51163343187E+02 -0.19386448974E+04  0.20416685076E+04  0.89135912150E+02 0.  0.
         13    1    3    3    0    0  0.45282178597E+03  0.42107356915E+02 -0.15091843045E+04  0.15762163126E+04  0.00000000000E+00 0. -1.
        -13    1    3    3    0    0  0.17924099425E+03  0.90559862725E+01 -0.42946059291E+03  0.46545219494E+03  0.00000000000E+00 0.  1.
         22    1    1    2    0    0 -0.63206278022E+03 -0.51163343187E+02  0.10805637966E+04  0.12528923195E+04  0.00000000000E+00 0. -1.
<mgrwt>
<rscale>  0 0.31808533E+04</rscale>
<asrwt>0</asrwt>
<pdfrwt beam="1">  1        1 0.18742152E+00 0.31808533E+04</pdfrwt>
<pdfrwt beam="2">  1       -1 0.31943399E+00 0.31808533E+04</pdfrwt>
<totfact> 0.21431635E-01</totfact>
</mgrwt>
</event>
<event>
 6    1  0.2236204E-005  0.4074972E+04  0.7818608E-02  0.7989591E-01
          1   -1    0    0  501    0  0.00000000000E+00  0.00000000000E+00  0.22372740814E+04  0.22372740814E+04  0.00000000000E+00 0. -1.
         -1   -1    0    0    0  501 -0.00000000000E+00 -0.00000000000E+00 -0.18555387426E+04  0.18555387426E+04  0.00000000000E+00 0.  1.
         23    2    1    2    0    0 -0.10973179533E+04 -0.93691768701E+03 -0.12517169839E+04  0.19133431790E+04  0.11029628221E+03 0.  0.
         11    1    3    3    0    0 -0.65840335448E+03 -0.60432631023E+03 -0.83067494208E+03  0.12201336508E+04  0.00000000000E+00 0. -1.
        -11    1    3    3    0    0 -0.43891459881E+03 -0.33259137678E+03 -0.42104204186E+03  0.69320952819E+03  0.00000000000E+00 0.  1.
         22    1    1    2    0    0  0.10973179533E+04  0.93691768701E+03  0.16334523227E+04  0.21794696450E+04  0.00000000000E+00 0. -1.
<mgrwt>
<rscale>  0 0.40749718E+04</rscale>
<asrwt>0</asrwt>
<pdfrwt beam="1">  1        1 0.34419601E+00 0.40749718E+04</pdfrwt>
<pdfrwt beam="2">  1       -1 0.28546750E+00 0.40749718E+04</pdfrwt>
<totfact> 0.65564341E-02</totfact>
</mgrwt>
</event>
<event>
 6    1  0.2236204E-005  0.2494298E+04  0.7818608E-02  0.8405020E-01
          2   -1    0    0  501    0  0.00000000000E+00  0.00000000000E+00  0.27009763662E+04  0.27009763662E+04  0.00000000000E+00 0. -1.
         -2   -1    0    0    0  501 -0.00000000000E+00 -0.00000000000E+00 -0.57585887078E+03  0.57585887078E+03  0.00000000000E+00 0.  1.
         23    2    1    2    0    0  0.43801851658E+03  0.97756971066E+03  0.18986168062E+04  0.21819355511E+04  0.92704973600E+02 0.  0.
         11    1    3    3    0    0  0.24909606121E+03  0.47388636418E+03  0.88212593634E+03  0.10318736848E+04  0.00000000000E+00 0. -1.
        -11    1    3    3    0    0  0.18892245537E+03  0.50368334648E+03  0.10164908699E+04  0.11500618663E+04  0.00000000000E+00 0.  1.
         22    1    1    2    0    0 -0.43801851658E+03 -0.97756971066E+03  0.22650068925E+03  0.10948996860E+04  0.00000000000E+00 0.  1.
<mgrwt>
<rscale>  0 0.24942985E+04</rscale>
<asrwt>0</asrwt>
<pdfrwt beam="1">  1        2 0.41553482E+00 0.24942985E+04</pdfrwt>
<pdfrwt beam="2">  1       -2 0.88593674E-01 0.24942985E+04</pdfrwt>
<totfact> 0.25929528E+00</totfact>
</mgrwt>
</event>
<event>
 6    1  0.2236204E-005  0.9944965E+03  0.7818608E-02  0.9314602E-01
         -1   -1    0    0    0  501 -0.00000000000E+00  0.00000000000E+00  0.11281788349E+03  0.11281788349E+03  0.00000000000E+00 0.  1.
          1   -1    0    0  501    0  0.00000000000E+00 -0.00000000000E+00 -0.21916367663E+04  0.21916367663E+04  0.00000000000E+00 0. -1.
         23    2    1    2    0    0  0.22106276785E+03  0.22795050350E+03 -0.19222388491E+04  0.19504101803E+04  0.90925789954E+02 0.  0.
         11    1    3    3    0    0  0.14718589404E+03  0.87453484468E+02 -0.10426142954E+04  0.10565776679E+04  0.00000000000E+00 0. -1.
        -11    1    3    3    0    0  0.73876873815E+02  0.14049701903E+03 -0.87962455373E+03  0.89383251248E+03  0.00000000000E+00 0.  1.
         22    1    1    2    0    0 -0.22106276785E+03 -0.22795050350E+03 -0.15658003371E+03  0.35404446943E+03  0.00000000000E+00 0.  1.
<mgrwt>
<rscale>  0 0.99449650E+03</rscale>
<asrwt>0</asrwt>
<pdfrwt beam="1">  1        1 0.33717488E+00 0.99449650E+03</pdfrwt>
<pdfrwt beam="2">  1       -1 0.17356598E-01 0.99449650E+03</pdfrwt>
<totfact> 0.57772504E+01</totfact>
</mgrwt>
</event>
<event>
 6    1  0.2236204E-005  0.2724346E+04  0.7818608E-02  0.8327148E-01
          2   -1    0    0  501    0  0.00000000000E+00  0.00000000000E+00  0.14600794990E+04  0.14600794990E+04  0.00000000000E+00 0. -1.
         -2   -1    0    0    0  501 -0.00000000000E+00 -0.00000000000E+00 -0.12708319294E+04  0.12708319294E+04  0.00000000000E+00 0.  1.
         23    2    1    2    0    0 -0.19812742326E+03  0.97728790175E+03 -0.83320654123E+03  0.13027102774E+04  0.92058718954E+02 0.  0.
         11    1    3    3    0    0 -0.60720083881E+02  0.33816403317E+03 -0.23205289471E+03  0.41459665683E+03  0.00000000000E+00 0.  1.
        -11    1    3    3    0    0 -0.13740733938E+03  0.63912386859E+03 -0.60115364652E+03  0.88811362057E+03  0.00000000000E+00 0. -1.
         22    1    1    2    0    0  0.19812742326E+03 -0.97728790175E+03  0.10224541108E+04  0.14282011509E+04  0.00000000000E+00 0. -1.
<mgrwt>
<rscale>  0 0.27243463E+04</rscale>
<asrwt>0</asrwt>
<pdfrwt beam="1">  1        2 0.22462762E+00 0.27243463E+04</pdfrwt>
<pdfrwt beam="2">  1       -2 0.19551260E+00 0.27243463E+04</pdfrwt>
<totfact> 0.16674111E+00</totfact>
</mgrwt>
</event>
<event>
 6    1  0.2236204E-005  0.2657740E+04  0.7818608E-02  0.8348848E-01
         -2   -1    0    0    0  501 -0.00000000000E+00  0.00000000000E+00  0.10727729120E+04  0.10727729120E+04  0.00000000000E+00 0.  1.
          2   -1    0    0  501    0  0.00000000000E+00 -0.00000000000E+00 -0.16461039665E+04  0.16461039665E+04  0.00000000000E+00 0. -1.
         23    2    1    2    0    0  0.11801594103E+03  0.11653969861E+04  0.35293200860E+03  0.12255446450E+04  0.72943652563E+02 0.  0.
         11    1    3    3    0    0  0.11164345426E+03  0.76852696595E+03  0.22556303104E+03  0.80868822128E+03  0.00000000000E+00 0. -1.
        -11    1    3    3    0    0  0.63724867681E+01  0.39687002019E+03  0.12736897757E+03  0.41685642368E+03  0.00000000000E+00 0.  1.
         22    1    1    2    0    0 -0.11801594103E+03 -0.11653969861E+04 -0.92626306305E+03  0.14933322335E+04  0.00000000000E+00 0. -1.
<mgrwt>
<rscale>  0 0.26577402E+04</rscale>
<asrwt>0</asrwt>
<pdfrwt beam="1">  1        2 0.25324676E+00 0.26577402E+04</pdfrwt>
<pdfrwt beam="2">  1       -2 0.16504199E+00 0.26577402E+04</pdfrwt>
<totfact> 0.21408404E+00</totfact>
</mgrwt>
</event>
<event>
 6    1  0.2236204E-005  0.4359859E+04  0.7818608E-02  0.7935641E-01
         -1   -1    0    0    0  501 -0.00000000000E+00  0.00000000000E+00  0.32947200947E+04  0.32947200947E+04  0.00000000000E+00 0. -1.
          1   -1    0    0  501    0  0.00000000000E+00 -0.00000000000E+00 -0.14423358077E+04  0.14423358077E+04  0.00000000000E+00 0.  1.
         23    2    1    2    0    0 -0.25482445123E+03  0.13434417372E+04  0.27698111060E+04  0.30904098656E+04  0.94912446783E+02 0.  0.
         11    1    3    3    0    0 -0.25090662478E+03  0.11567548309E+04  0.24142901507E+04  0.26888348415E+04  0.00000000000E+00 0. -1.
        -11    1    3    3    0    0 -0.39178264520E+01  0.18668690633E+03  0.35552095531E+03  0.40157502415E+03  0.00000000000E+00 0.  1.
         22    1    1    2    0    0  0.25482445123E+03 -0.13434417372E+04 -0.91742681891E+03  0.16466460367E+04  0.00000000000E+00 0.  1.
<mgrwt>
<rscale>  0 0.43598591E+04</rscale>
<asrwt>0</asrwt>
<pdfrwt beam="1">  1        1 0.22189782E+00 0.43598591E+04</pdfrwt>
<pdfrwt beam="2">  1       -1 0.50688001E+00 0.43598591E+04</pdfrwt>
<totfact> 0.73643336E-03</totfact>
</mgrwt>
</event>
<event>
 6    1  0.2236204E-005  0.2405978E+04  0.7818608E-02  0.8437269E-01
         -2   -1    0    0    0  501 -0.00000000000E+00  0.00000000000E+00  0.65394904482E+03  0.65394904482E+03  0.00000000000E+00 0. -1.
          2   -1    0    0  501    0  0.00000000000E+00 -0.00000000000E+00 -0.22129899880E+04  0.22129899880E+04  0.00000000000E+00 0.  1.
         23    2    1    2    0    0  0.10044980379E+04  0.65525158326E+03 -0.69964388262E+03  0.13914952850E+04  0.91578491644E+02 0.  0.
         11    1    3    3    0    0  0.57839318450E+03  0.36915293527E+03 -0.45179404961E+03  0.82154149546E+03  0.00000000000E+00 0.  1.
        -11    1    3    3    0    0  0.42610485337E+03  0.28609864798E+03 -0.24784983301E+03  0.56995378950E+03  0.00000000000E+00 0. -1.
         22    1    1    2    0    0 -0.10044980379E+04 -0.65525158326E+03 -0.85939706059E+03  0.14754437479E+04  0.00000000000E+00 0.  1.
<mgrwt>
<rscale>  0 0.24059781E+04</rscale>
<asrwt>0</asrwt>
<pdfrwt beam="1">  1        2 0.34046000E+00 0.24059781E+04</pdfrwt>
<pdfrwt beam="2">  1       -2 0.10060755E+00 0.24059781E+04</pdfrwt>
<totfact> 0.37152433E+00</totfact>
</mgrwt>
</event>
<event>
 6    1  0.2840933E-005  0.3013971E+04  0.7818608E-02  0.8239753E-01
         -2   -1    0    0    0  501 -0.00000000000E+00  0.00000000000E+00  0.19286333195E+04  0.19286333195E+04  0.00000000000E+00 0.  1.
          2   -1    0    0  501    0  0.00000000000E+00 -0.00000000000E+00 -0.11775205194E+04  0.11775205194E+04  0.00000000000E+00 0. -1.
         23    2    1    2    0    0  0.89840388914E+03  0.15727060899E+03  0.16104041218E+04  0.18530596014E+04  0.92546519090E+02 0.  0.
         13    1    3    3    0    0  0.41732154798E+03  0.10520281915E+03  0.82630762493E+03  0.93167011253E+03  0.00000000000E+00 0.  1.
        -13    1    3    3    0    0  0.48108234116E+03  0.52067789839E+02  0.78409649686E+03  0.92138948882E+03  0.00000000000E+00 0. -1.
         22    1    1    2    0    0 -0.89840388914E+03 -0.15727060899E+03 -0.85929132171E+03  0.12530942375E+04  0.00000000000E+00 0. -1.
<mgrwt>
<rscale>  0 0.30139710E+04</rscale>
<asrwt>0</asrwt>
<pdfrwt beam="1">  1        2 0.18115700E+00 0.30139710E+04</pdfrwt>
<pdfrwt beam="2">  1       -2 0.29671282E+00 0.30139710E+04</pdfrwt>
<totfact> 0.55612736E-01</totfact>
</mgrwt>
</event>
<event>
 6    1  0.2236204E-005  0.1967807E+04  0.7818608E-02  0.8621821E-01
          2   -1    0    0  501    0  0.00000000000E+00  0.00000000000E+00  0.15547798764E+04  0.15547798764E+04  0.00000000000E+00 0.  1.
         -2   -1    0    0    0  501 -0.00000000000E+00 -0.00000000000E+00 -0.62263897795E+03  0.62263897795E+03  0.00000000000E+00 0. -1.
         23    2    1    2    0    0  0.21631721262E+03 -0.60581060641E+03  0.12877846125E+04  0.14423800264E+04  0.90946715933E+02 0.  0.
         11    1    3    3    0    0  0.87726225262E+02 -0.17151621045E+03  0.46156665154E+03  0.50015745007E+03  0.00000000000E+00 0. -1.
        -11    1    3    3    0    0  0.12859098736E+03 -0.43429439596E+03  0.82621796096E+03  0.94222257636E+03  0.00000000000E+00 0.  1.
         22    1    1    2    0    0 -0.21631721262E+03  0.60581060641E+03 -0.35564371401E+03  0.73503882797E+03  0.00000000000E+00 0. -1.
<mgrwt>
<rscale>  0 0.19678075E+04</rscale>
<asrwt>0</asrwt>
<pdfrwt beam="1">  1        2 0.23919690E+00 0.19678075E+04</pdfrwt>
<pdfrwt beam="2">  1       -2 0.95790612E-01 0.19678075E+04</pdfrwt>
<totfact> 0.10067279E+01</totfact>
</mgrwt>
</event>
<event>
 6    1  0.2236204E-005  0.1774727E+04  0.7818608E-02  0.8719856E-01
          2   -1    0    0  501    0  0.00000000000E+00  0.00000000000E+00  0.20492105994E+04  0.20492105994E+04  0.00000000000E+00 0.  1.
         -2   -1    0    0    0  501 -0.00000000000E+00 -0.00000000000E+00 -0.38425246353E+03  0.38425246353E+03  0.00000000000E+00 0. -1.
         23    2    1    2    0    0  0.38296091274E+03 -0.24132208769E+03  0.18774337174E+04  0.19334217811E+04  0.92016357328E+02 0.  0.
         11    1    3    3    0    0  0.25972794412E+03 -0.11086066792E+03  0.11619936451E+04  0.11958168438E+04  0.00000000000E+00 0. -1.
        -11    1    3    3    0    0  0.12323296862E+03 -0.13046141977E+03  0.71544007228E+03  0.73760493737E+03  0.00000000000E+00 0.  1.
         22    1    1    2    0    0 -0.38296091274E+03  0.24132208769E+03 -0.21247558154E+03  0.50004128174E+03  0.00000000000E+00 0. -1.
<mgrwt>
<rscale>  0 0.17747273E+04</rscale>
<asrwt>0</asrwt>
<pdfrwt beam="1">  1        2 0.31526316E+00 0.17747273E+04</pdfrwt>
<pdfrwt beam="2">  1       -2 0.59115765E-01 0.17747273E+04</pdfrwt>
<totfact> 0.15858765E+01</totfact>
</mgrwt>
</event>
<event>
 6    1  0.2236204E-005  0.3113449E+04  0.7818608E-02  0.8212057E-01
         -2   -1    0    0    0  501 -0.00000000000E+00  0.00000000000E+00  0.15670508753E+04  0.15670508753E+04  0.00000000000E+00 0.  1.
          2   -1    0    0  501    0  0.00000000000E+00 -0.00000000000E+00 -0.15464656887E+04  0.15464656887E+04  0.00000000000E+00 0. -1.
         23    2    1    2    0    0  0.80836680830E+03 -0.78005088191E+03 -0.10654956382E+04  0.15509840577E+04  0.91292480350E+02 0.  0.
         11    1    3    3    0    0  0.47425461798E+03 -0.49347756533E+03 -0.69795619551E+03  0.97753792817E+03  0.00000000000E+00 0.  1.
        -11    1    3    3    0    0  0.33411219033E+03 -0.28657331658E+03 -0.36753944269E+03  0.57344612949E+03  0.00000000000E+00 0. -1.
         22    1    1    2    0    0 -0.80836680830E+03  0.78005088191E+03  0.10860808248E+04  0.15625325063E+04  0.00000000000E+00 0.  1.
<mgrwt>
<rscale>  0 0.31134485E+04</rscale>
<asrwt>0</asrwt>
<pdfrwt beam="1">  1        2 0.23791780E+00 0.31134485E+04</pdfrwt>
<pdfrwt beam="2">  1       -2 0.24108475E+00 0.31134485E+04</pdfrwt>
<totfact> 0.73927287E-01</totfact>
</mgrwt>
</event>
<event>
 6    1  0.2236204E-005  0.2090985E+04  0.7818608E-02  0.8565225E-01
         -2   -1    0    0    0  501 -0.00000000000E+00  0.00000000000E+00  0.11546886505E+04  0.11546886505E+04  0.00000000000E+00 0.  1.
          2   -1    0    0  501    0  0.00000000000E+00 -0.00000000000E+00 -0.94662289721E+03  0.94662289721E+03  0.00000000000E+00 0. -1.
         23    2    1    2    0    0 -0.86015520208E+03  0.50289074920E+03  0.41559618513E+03  0.10835517737E+04  0.92726371471E+02 0.  0.
         13    1    3    3    0    0 -0.18845419928E+03  0.15603286306E+03  0.10604416768E+03  0.26665821772E+03  0.00000000000E+00 0. -1.
        -13    1    3    3    0    0 -0.67170100279E+03  0.34685788614E+03  0.30955201745E+03  0.81689355600E+03  0.00000000000E+00 0.  1.
         22    1    1    2    0    0  0.86015520208E+03 -0.50289074920E+03 -0.20753043188E+03  0.10177597739E+04  0.00000000000E+00 0. -1.
<mgrwt>
<rscale>  0 0.20909851E+04</rscale>
<asrwt>0</asrwt>
<pdfrwt beam="1">  1        2 0.14563429E+00 0.20909851E+04</pdfrwt>
<pdfrwt beam="2">  1       -2 0.17764441E+00 0.20909851E+04</pdfrwt>
<totfact> 0.47372726E+00</totfact>
</mgrwt>
</event>
<event>
 6    1  0.2236204E-005  0.1272612E+04  0.7818608E-02  0.9051571E-01
         -2   -1    0    0    0  501 -0.00000000000E+00  0.00000000000E+00  0.28570426273E+03  0.28570426273E+03  0.00000000000E+00 0.  1.
          2   -1    0    0  501    0  0.00000000000E+00 -0.00000000000E+00 -0.14171479420E+04  0.14171479420E+04  0.00000000000E+00 0. -1.
         23    2    1    2    0    0 -0.45438803534E+03 -0.90075426734E+01 -0.11579760725E+04  0.12476010758E+04  0.95132735987E+02 0.  0.
         11    1    3    3    0    0 -0.16726014020E+03  0.27011193836E+02 -0.33853326892E+03  0.37856351284E+03  0.00000000000E+00 0.  1.
        -11    1    3    3    0    0 -0.28712789514E+03 -0.36018736509E+02 -0.81944280356E+03  0.86903756297E+03  0.00000000000E+00 0. -1.
         22    1    1    2    0    0  0.45438803534E+03  0.90075426734E+01  0.26532393217E+02  0.45525112891E+03  0.00000000000E+00 0.  1.
<mgrwt>
<rscale>  0 0.12726118E+04</rscale>
<asrwt>0</asrwt>
<pdfrwt beam="1">  1        2 0.21802277E+00 0.12726118E+04</pdfrwt>
<pdfrwt beam="2">  1       -2 0.43954500E-01 0.12726118E+04</pdfrwt>
<totfact> 0.68162542E+01</totfact>
</mgrwt>
</event>
<event>
 6    1  0.4761321E-005  0.3782954E+04  0.7818608E-02  0.8049823E-01
         -2   -1    0    0    0  501 -0.00000000000E+00  0.00000000000E+00  0.12569165467E+04  0.12569165467E+04  0.00000000000E+00 0.  1.
          2   -1    0    0  501    0  0.00000000000E+00 -0.00000000000E+00 -0.28463989164E+04  0.28463989164E+04  0.00000000000E+00 0. -1.
         23    2    1    2    0    0 -0.31591706629E+03 -0.37094382162E+03  0.11859762105E+04  0.12854131862E+04  0.91348649148E+02 0.  0.
         13    1    3    3    0    0 -0.21392801515E+03 -0.29229163397E+03  0.94760457053E+03  0.10144722850E+04  0.00000000000E+00 0. -1.
        -13    1    3    3    0    0 -0.10198905114E+03 -0.78652187651E+02  0.23837163998E+03  0.27094090116E+03  0.00000000000E+00 0.  1.
         22    1    1    2    0    0  0.31591706629E+03  0.37094382162E+03 -0.27754585802E+04  0.28179022769E+04  0.00000000000E+00 0. -1.
<mgrwt>
<rscale>  0 0.37829543E+04</rscale>
<asrwt>0</asrwt>
<pdfrwt beam="1">  1        2 0.43790752E+00 0.37829543E+04</pdfrwt>
<pdfrwt beam="2">  1       -2 0.19337178E+00 0.37829543E+04</pdfrwt>
<totfact> 0.25592920E-01</totfact>
</mgrwt>
</event>
<event>
 6    1  0.2236204E-005  0.8587435E+03  0.7818608E-02  0.9478676E-01
         -2   -1    0    0    0  501 -0.00000000000E+00  0.00000000000E+00  0.97756130322E+02  0.97756130322E+02  0.00000000000E+00 0.  1.
          2   -1    0    0  501    0  0.00000000000E+00 -0.00000000000E+00 -0.18859184884E+04  0.18859184884E+04  0.00000000000E+00 0. -1.
         23    2    1    2    0    0 -0.13070165032E+03 -0.18883738724E+03 -0.17285981953E+04  0.17464187027E+04  0.95833625950E+02 0.  0.
         13    1    3    3    0    0 -0.50448811962E+02 -0.26286863648E+02 -0.66999861022E+03  0.67240926490E+03  0.00000000000E+00 0.  1.
        -13    1    3    3    0    0 -0.80252838354E+02 -0.16255052359E+03 -0.10585995851E+04  0.10740094378E+04  0.00000000000E+00 0. -1.
         22    1    1    2    0    0  0.13070165032E+03  0.18883738724E+03 -0.59564162717E+02  0.23725591604E+03  0.00000000000E+00 0.  1.
<mgrwt>
<rscale>  0 0.85874349E+03</rscale>
<asrwt>0</asrwt>
<pdfrwt beam="1">  1        2 0.29014128E+00 0.85874349E+03</pdfrwt>
<pdfrwt beam="2">  1       -2 0.15039406E-01 0.85874349E+03</pdfrwt>
<totfact> 0.27310400E+02</totfact>
</mgrwt>
</event>
<event>
 6    1  0.2236204E-005  0.3968671E+04  0.7818608E-02  0.8010897E-01
          2   -1    0    0  501    0  0.00000000000E+00  0.00000000000E+00  0.29233013449E+04  0.29233013449E+04  0.00000000000E+00 0. -1.
         -2   -1    0    0    0  501 -0.00000000000E+00 -0.00000000000E+00 -0.13469661830E+04  0.13469661830E+04  0.00000000000E+00 0.  1.
         23    2    1    2    0    0 -0.77048226022E+03  0.14023275061E+04  0.20500923230E+04  0.26015520952E+04  0.70918427824E+02 0.  0.
         11    1    3    3    0    0 -0.64189182301E+03  0.12176415091E+04  0.17723736773E+04  0.22440999107E+04  0.00000000000E+00 0. -1.
        -11    1    3    3    0    0 -0.12859043721E+03  0.18468599700E+03  0.27771864566E+03  0.35745218447E+03  0.00000000000E+00 0.  1.
         22    1    1    2    0    0  0.77048226022E+03 -0.14023275061E+04 -0.47375716113E+03  0.16687154327E+04  0.00000000000E+00 0.  1.
<mgrwt>
<rscale>  0 0.39686713E+04</rscale>
<asrwt>0</asrwt>
<pdfrwt beam="1">  1        2 0.44973867E+00 0.39686713E+04</pdfrwt>
<pdfrwt beam="2">  1       -2 0.20722557E+00 0.39686713E+04</pdfrwt>
<totfact> 0.18333983E-01</totfact>
</mgrwt>
</event>
<event>
 6    1  0.2236204E-005  0.4034226E+04  0.7818608E-02  0.7997677E-01
          2   -1    0    0  501    0  0.00000000000E+00  0.00000000000E+00  0.30541503297E+04  0.30541503297E+04  0.00000000000E+00 0. -1.
         -2   -1    0    0    0  501 -0.00000000000E+00 -0.00000000000E+00 -0.13322020253E+04  0.13322020253E+04  0.00000000000E+00 0.  1.
         23    2    1    2    0    0  0.10288476215E+04  0.15184919824E+04 -0.48636710903E+02  0.18369766225E+04  0.88160383075E+02 0.  0.
         11    1    3    3    0    0  0.90340839173E+02  0.93862581852E+02  0.90837155381E+00  0.13027845806E+03  0.00000000000E+00 0.  1.
        -11    1    3    3    0    0  0.93850678236E+03  0.14246294005E+04 -0.49545082457E+02  0.17066981645E+04  0.00000000000E+00 0. -1.
         22    1    1    2    0    0 -0.10288476215E+04 -0.15184919824E+04  0.17705850153E+04  0.25493757324E+04  0.00000000000E+00 0. -1.
<mgrwt>
<rscale>  0 0.40342262E+04</rscale>
<asrwt>0</asrwt>
<pdfrwt beam="1">  1        2 0.46986928E+00 0.40342262E+04</pdfrwt>
<pdfrwt beam="2">  1       -2 0.20495416E+00 0.40342262E+04</pdfrwt>
<totfact> 0.15619732E-01</totfact>
</mgrwt>
</event>
<event>
 6    1  0.2760152E-005  0.3181223E+04  0.7818608E-02  0.8193794E-01
         -2   -1    0    0    0  501 -0.00000000000E+00  0.00000000000E+00  0.10474167873E+04  0.10474167873E+04  0.00000000000E+00 0.  1.
          2   -1    0    0  501    0  0.00000000000E+00 -0.00000000000E+00 -0.24155099133E+04  0.24155099133E+04  0.00000000000E+00 0. -1.
         23    2    1    2    0    0 -0.31323344415E+03 -0.14967269123E+04 -0.21315794399E+03  0.15466329039E+04  0.91270969286E+02 0.  0.
         11    1    3    3    0    0 -0.22954429362E+03 -0.10569739237E+04 -0.10948577211E+03  0.10871391780E+04  0.00000000000E+00 0. -1.
        -11    1    3    3    0    0 -0.83689150528E+02 -0.43975298858E+03 -0.10367217189E+03  0.45949372586E+03  0.00000000000E+00 0.  1.
         22    1    1    2    0    0  0.31323344415E+03  0.14967269123E+04 -0.11549351820E+04  0.19162937967E+04  0.00000000000E+00 0. -1.
<mgrwt>
<rscale>  0 0.31812234E+04</rscale>
<asrwt>0</asrwt>
<pdfrwt beam="1">  1        2 0.37161691E+00 0.31812234E+04</pdfrwt>
<pdfrwt beam="2">  1       -2 0.16114105E+00 0.31812234E+04</pdfrwt>
<totfact> 0.81140685E-01</totfact>
</mgrwt>
</event>
<event>
 6    1  0.2236204E-005  0.1238170E+04  0.7818608E-02  0.9080087E-01
         -1   -1    0    0    0  501 -0.00000000000E+00  0.00000000000E+00  0.19299861978E+03  0.19299861978E+03  0.00000000000E+00 0.  1.
          1   -1    0    0  501    0  0.00000000000E+00 -0.00000000000E+00 -0.19858485934E+04  0.19858485934E+04  0.00000000000E+00 0. -1.
         23    2    1    2    0    0  0.32421235062E+03  0.18362993803E+03 -0.17640171174E+04  0.18051294908E+04  0.88895924747E+02 0.  0.
         11    1    3    3    0    0  0.85976204491E+02  0.79075311013E+02 -0.40861949951E+03  0.42498789152E+03  0.00000000000E+00 0. -1.
        -11    1    3    3    0    0  0.23823614613E+03  0.10455462702E+03 -0.13553976179E+04  0.13801415992E+04  0.00000000000E+00 0.  1.
         22    1    1    2    0    0 -0.32421235062E+03 -0.18362993803E+03 -0.28832856176E+02  0.37371772240E+03  0.00000000000E+00 0.  1.
<mgrwt>
<rscale>  0 0.12381697E+04</rscale>
<asrwt>0</asrwt>
<pdfrwt beam="1">  1        1 0.30551514E+00 0.12381697E+04</pdfrwt>
<pdfrwt beam="2">  1       -1 0.29692098E-01 0.12381697E+04</pdfrwt>
<totfact> 0.31293074E+01</totfact>
</mgrwt>
</event>
<event>
 6    1  0.2236204E-005  0.3632655E+04  0.7818608E-02  0.8083052E-01
         -2   -1    0    0    0  501 -0.00000000000E+00  0.00000000000E+00  0.18500105220E+04  0.18500105220E+04  0.00000000000E+00 0.  1.
          2   -1    0    0  501    0  0.00000000000E+00 -0.00000000000E+00 -0.17832573235E+04  0.17832573235E+04  0.00000000000E+00 0. -1.
         23    2    1    2    0    0 -0.29640955419E+03 -0.10835781778E+04 -0.13926608927E+04  0.17915594591E+04  0.90446902655E+02 0.  0.
         13    1    3    3    0    0 -0.19171932610E+03 -0.54328013069E+03 -0.68401865302E+03  0.89431041484E+03  0.00000000000E+00 0. -1.
        -13    1    3    3    0    0 -0.10469022809E+03 -0.54029804711E+03 -0.70864223968E+03  0.89724904426E+03  0.00000000000E+00 0.  1.
         22    1    1    2    0    0  0.29640955419E+03  0.10835781778E+04  0.14594140912E+04  0.18417083865E+04  0.00000000000E+00 0.  1.
<mgrwt>
<rscale>  0 0.36326546E+04</rscale>
<asrwt>0</asrwt>
<pdfrwt beam="1">  1        2 0.27434728E+00 0.36326546E+04</pdfrwt>
<pdfrwt beam="2">  1       -2 0.28461700E+00 0.36326546E+04</pdfrwt>
<totfact> 0.28281594E-01</totfact>
</mgrwt>
</event>
<event>
 6    1  0.2236204E-005  0.2158202E+04  0.7818608E-02  0.8536029E-01
          2   -1    0    0  501    0  0.00000000000E+00  0.00000000000E+00  0.47130347277E+04  0.47130347277E+04  0.00000000000E+00 0. -1.
         -2   -1    0    0    0  501 -0.00000000000E+00 -0.00000000000E+00 -0.24707212160E+03  0.24707212160E+03  0.00000000000E+00 0.  1.
         23    2    1    2    0    0  0.44100708651E+03 -0.50683654620E+03  0.41722561970E+04  0.42268715599E+04  0.85737245181E+02 0.  0.
         11    1    3    3    0    0  0.39977245864E+03 -0.46025824446E+03  0.36012125849E+04  0.36524495550E+04  0.00000000000E+00 0.  1.
        -11    1    3    3    0    0  0.41234627877E+02 -0.46578301742E+02  0.57104361209E+03  0.57442200484E+03  0.00000000000E+00 0. -1.
         22    1    1    2    0    0 -0.44100708651E+03  0.50683654620E+03  0.29370640908E+03  0.73323528942E+03  0.00000000000E+00 0.  1.
<mgrwt>
<rscale>  0 0.21582025E+04</rscale>
<asrwt>0</asrwt>
<pdfrwt beam="1">  1        2 0.72508220E+00 0.21582025E+04</pdfrwt>
<pdfrwt beam="2">  1       -2 0.38011099E-01 0.21582025E+04</pdfrwt>
<totfact> 0.45201575E-01</totfact>
</mgrwt>
</event>
<event>
 6    1  0.2236204E-005  0.4376269E+04  0.7818608E-02  0.7932664E-01
         -2   -1    0    0    0  501 -0.00000000000E+00  0.00000000000E+00  0.21970453617E+04  0.21970453617E+04  0.00000000000E+00 0.  1.
          2   -1    0    0  501    0  0.00000000000E+00 -0.00000000000E+00 -0.21792602195E+04  0.21792602195E+04  0.00000000000E+00 0. -1.
         23    2    1    2    0    0 -0.20928979348E+04 -0.20646862464E+03  0.60994247309E+03  0.21914711795E+04  0.87550278475E+02 0.  0.
         13    1    3    3    0    0 -0.12522031858E+04 -0.16485377567E+03  0.37868802241E+03  0.13185576226E+04  0.00000000000E+00 0.  1.
        -13    1    3    3    0    0 -0.84069474909E+03 -0.41614848972E+02  0.23125445068E+03  0.87291355686E+03  0.00000000000E+00 0. -1.
         22    1    1    2    0    0  0.20928979348E+04  0.20646862464E+03 -0.59215733089E+03  0.21848344018E+04  0.00000000000E+00 0. -1.
<mgrwt>
<rscale>  0 0.43762694E+04</rscale>
<asrwt>0</asrwt>
<pdfrwt beam="1">  1        2 0.33527080E+00 0.43762694E+04</pdfrwt>
<pdfrwt beam="2">  1       -2 0.33800698E+00 0.43762694E+04</pdfrwt>
<totfact> 0.75117405E-02</totfact>
</mgrwt>
</event>
<event>
 6    1  0.2236204E-005  0.3272438E+04  0.7818608E-02  0.8169944E-01
         -2   -1    0    0    0  501 -0.00000000000E+00  0.00000000000E+00  0.68123206100E+03  0.68123206100E+03  0.00000000000E+00 0.  1.
          2   -1    0    0  501    0  0.00000000000E+00 -0.00000000000E+00 -0.39299578417E+04  0.39299578417E+04  0.00000000000E+00 0. -1.
         23    2    1    2    0    0 -0.30747919902E+03  0.61411769629E+02 -0.38866253574E+04  0.39003940578E+04  0.94351866541E+02 0.  0.
         11    1    3    3    0    0 -0.21531327715E+03  0.38344167558E+02 -0.21292120175E+04  0.21404144220E+04  0.00000000000E+00 0. -1.
        -11    1    3    3    0    0 -0.92165921878E+02  0.23067602071E+02 -0.17574133399E+04  0.17599796359E+04  0.00000000000E+00 0.  1.
         22    1    1    2    0    0  0.30747919902E+03 -0.61411769629E+02  0.63789957662E+03  0.71079584490E+03  0.00000000000E+00 0.  1.
<mgrwt>
<rscale>  0 0.32724384E+04</rscale>
<asrwt>0</asrwt>
<pdfrwt beam="1">  1        2 0.60460890E+00 0.32724384E+04</pdfrwt>
<pdfrwt beam="2">  1       -2 0.10480493E+00 0.32724384E+04</pdfrwt>
<totfact> 0.24016872E-01</totfact>
</mgrwt>
</event>
<event>
 6    1  0.2236204E-005  0.2443490E+04  0.7818608E-02  0.8423399E-01
          2   -1    0    0  501    0  0.00000000000E+00  0.00000000000E+00  0.18307083339E+04  0.18307083339E+04  0.00000000000E+00 0. -1.
         -2   -1    0    0    0  501 -0.00000000000E+00 -0.00000000000E+00 -0.81534628890E+03  0.81534628890E+03  0.00000000000E+00 0.  1.
         23    2    1    2    0    0 -0.95793616498E+03 -0.71142309375E+03  0.23296176875E+03  0.12191997925E+04  0.91719320735E+02 0.  0.
         13    1    3    3    0    0 -0.73941581053E+02 -0.28818859479E+02  0.66859406142E+01  0.79640353290E+02  0.00000000000E+00 0. -1.
        -13    1    3    3    0    0 -0.88399458393E+03 -0.68260423427E+03  0.22627582813E+03  0.11395594392E+04  0.00000000000E+00 0.  1.
         22    1    1    2    0    0  0.95793616498E+03  0.71142309375E+03  0.78240027626E+03  0.14268548303E+04  0.00000000000E+00 0.  1.
<mgrwt>
<rscale>  0 0.24434903E+04</rscale>
<asrwt>0</asrwt>
<pdfrwt beam="1">  1        2 0.28164743E+00 0.24434903E+04</pdfrwt>
<pdfrwt beam="2">  1       -2 0.12543789E+00 0.24434903E+04</pdfrwt>
<totfact> 0.35335930E+00</totfact>
</mgrwt>
</event>
<event>
 6    1  0.2236204E-005  0.5532439E+04  0.7818608E-02  0.7751241E-01
          2   -1    0    0  501    0  0.00000000000E+00  0.00000000000E+00  0.33735209826E+04  0.33735209826E+04  0.00000000000E+00 0. -1.
         -2   -1    0    0    0  501 -0.00000000000E+00 -0.00000000000E+00 -0.22682447172E+04  0.22682447172E+04  0.00000000000E+00 0.  1.
         23    2    1    2    0    0  0.21487759559E+04 -0.15586112668E+04 -0.23793490256E+03  0.26667491568E+04  0.91819702218E+02 0.  0.
         11    1    3    3    0    0  0.19996361254E+04 -0.14707393898E+04 -0.20669935867E+03  0.24908519851E+04  0.00000000000E+00 0.  1.
        -11    1    3    3    0    0  0.14913983049E+03 -0.87871876918E+02 -0.31235543887E+02  0.17589717165E+03  0.00000000000E+00 0. -1.
         22    1    1    2    0    0 -0.21487759559E+04  0.15586112668E+04  0.13432111680E+04  0.29750165431E+04  0.00000000000E+00 0.  1.
<mgrwt>
<rscale>  0 0.55324393E+04</rscale>
<asrwt>0</asrwt>
<pdfrwt beam="1">  1        2 0.51900323E+00 0.55324393E+04</pdfrwt>
<pdfrwt beam="2">  1       -2 0.34896072E+00 0.55324393E+04</pdfrwt>
<totfact> 0.10941537E-02</totfact>
</mgrwt>
</event>
<event>
 6    1  0.2236204E-005  0.8430855E+03  0.7818608E-02  0.9499665E-01
         -2   -1    0    0    0  501 -0.00000000000E+00  0.00000000000E+00  0.12272899973E+03  0.12272899973E+03  0.00000000000E+00 0. -1.
          2   -1    0    0  501    0  0.00000000000E+00 -0.00000000000E+00 -0.14478914600E+04  0.14478914600E+04  0.00000000000E+00 0.  1.
         23    2    1    2    0    0 -0.29581275086E+03 -0.27946582672E+03 -0.83620865027E+03  0.93447412422E+03  0.91600492260E+02 0.  0.
         11    1    3    3    0    0 -0.34054954415E+02 -0.87899548817E+00 -0.85648326892E+02  0.92174554258E+02  0.00000000000E+00 0.  1.
        -11    1    3    3    0    0 -0.26175779644E+03 -0.27858683123E+03 -0.75056032338E+03  0.84229956996E+03  0.00000000000E+00 0. -1.
         22    1    1    2    0    0  0.29581275086E+03  0.27946582672E+03 -0.48895380999E+03  0.63614633550E+03  0.00000000000E+00 0. -1.
<mgrwt>
<rscale>  0 0.84308545E+03</rscale>
<asrwt>0</asrwt>
<pdfrwt beam="1">  1        2 0.22275255E+00 0.84308545E+03</pdfrwt>
<pdfrwt beam="2">  1       -2 0.18881383E-01 0.84308545E+03</pdfrwt>
<totfact> 0.32281249E+02</totfact>
</mgrwt>
</event>
<event>
 6    1  0.2236204E-005  0.2329340E+04  0.7818608E-02  0.8466442E-01
         -2   -1    0    0    0  501 -0.00000000000E+00  0.00000000000E+00  0.52931704789E+03  0.52931704789E+03  0.00000000000E+00 0.  1.
          2   -1    0    0  501    0  0.00000000000E+00 -0.00000000000E+00 -0.25626535682E+04  0.25626535682E+04  0.00000000000E+00 0. -1.
         23    2    1    2    0    0  0.47514940886E+03 -0.63247469634E+03 -0.21496902521E+04  0.22923898552E+04  0.89954801070E+02 0.  0.
         11    1    3    3    0    0  0.27957245912E+02 -0.70164757518E+02 -0.25933551795E+03  0.27011036942E+03  0.00000000000E+00 0. -1.
        -11    1    3    3    0    0  0.44719216294E+03 -0.56230993883E+03 -0.18903547341E+04  0.20222794858E+04  0.00000000000E+00 0.  1.
         22    1    1    2    0    0 -0.47514940886E+03  0.63247469634E+03  0.11635373175E+03  0.79958076086E+03  0.00000000000E+00 0.  1.
<mgrwt>
<rscale>  0 0.23293400E+04</rscale>
<asrwt>0</asrwt>
<pdfrwt beam="1">  1        2 0.39425439E+00 0.23293400E+04</pdfrwt>
<pdfrwt beam="2">  1       -2 0.81433392E-01 0.23293400E+04</pdfrwt>
<totfact> 0.38442678E+00</totfact>
</mgrwt>
</event>
<event>
 6    1  0.2236204E-005  0.2885435E+04  0.7818608E-02  0.8277224E-01
          2   -1    0    0  501    0  0.00000000000E+00  0.00000000000E+00  0.32381040736E+04  0.32381040736E+04  0.00000000000E+00 0. -1.
         -2   -1    0    0    0  501 -0.00000000000E+00 -0.00000000000E+00 -0.64279414053E+03  0.64279414053E+03  0.00000000000E+00 0.  1.
         23    2    1    2    0    0 -0.39099743284E+03  0.63135647281E+03  0.29603208235E+04  0.30534183422E+04  0.91510690706E+02 0.  0.
         13    1    3    3    0    0 -0.15854049789E+03  0.29941738709E+03  0.15103585383E+04  0.15478917196E+04  0.00000000000E+00 0.  1.
        -13    1    3    3    0    0 -0.23245693495E+03  0.33193908571E+03  0.14499622852E+04  0.15055266227E+04  0.00000000000E+00 0. -1.
         22    1    1    2    0    0  0.39099743284E+03 -0.63135647281E+03 -0.36501089042E+03  0.82747987188E+03  0.00000000000E+00 0.  1.
<mgrwt>
<rscale>  0 0.28854354E+04</rscale>
<asrwt>0</asrwt>
<pdfrwt beam="1">  1        2 0.49816985E+00 0.28854354E+04</pdfrwt>
<pdfrwt beam="2">  1       -2 0.98891408E-01 0.28854354E+04</pdfrwt>
<totfact> 0.89668615E-01</totfact>
</mgrwt>
</event>
<event>
 6    1  0.2236204E-005  0.7847407E+03  0.7818608E-02  0.9582371E-01
         -2   -1    0    0    0  501 -0.00000000000E+00  0.00000000000E+00  0.50580411003E+03  0.50580411003E+03  0.00000000000E+00 0.  1.
          2   -1    0    0  501    0  0.00000000000E+00 -0.00000000000E+00 -0.30437574036E+03  0.30437574036E+03  0.00000000000E+00 0. -1.
         23    2    1    2    0    0 -0.21674181745E+03 -0.18250401380E+03  0.37436885205E+03  0.47822632815E+03  0.90904637240E+02 0.  0.
         11    1    3    3    0    0 -0.15333166174E+03 -0.10881361800E+03  0.17705237061E+03  0.25826061235E+03  0.00000000000E+00 0.  1.
        -11    1    3    3    0    0 -0.63410155707E+02 -0.73690395796E+02  0.19731648144E+03  0.21996571580E+03  0.00000000000E+00 0. -1.
         22    1    1    2    0    0  0.21674181745E+03  0.18250401380E+03 -0.17294048238E+03  0.33195352224E+03  0.00000000000E+00 0. -1.
<mgrwt>
<rscale>  0 0.78474072E+03</rscale>
<asrwt>0</asrwt>
<pdfrwt beam="1">  1        2 0.46827037E-01 0.78474072E+03</pdfrwt>
<pdfrwt beam="2">  1       -2 0.77816017E-01 0.78474072E+03</pdfrwt>
<totfact> 0.16018462E+02</totfact>
</mgrwt>
</event>
<event>
 6    1  0.2236204E-005  0.4303888E+04  0.7818608E-02  0.7945900E-01
         -1   -1    0    0    0  501 -0.00000000000E+00  0.00000000000E+00  0.20353202356E+04  0.20353202356E+04  0.00000000000E+00 0.  1.
          1   -1    0    0  501    0  0.00000000000E+00 -0.00000000000E+00 -0.22752497732E+04  0.22752497732E+04  0.00000000000E+00 0. -1.
         23    2    1    2    0    0  0.65631946137E+03  0.91942593408E+03 -0.19532666973E+04  0.22583459698E+04  0.93682681780E+02 0.  0.
         13    1    3    3    0    0  0.48515196814E+03  0.60901990834E+03 -0.13702395312E+04  0.15760184180E+04  0.00000000000E+00 0.  1.
        -13    1    3    3    0    0  0.17116749324E+03  0.31040602574E+03 -0.58302716608E+03  0.68232755180E+03  0.00000000000E+00 0. -1.
         22    1    1    2    0    0 -0.65631946137E+03 -0.91942593408E+03  0.17133371597E+04  0.20522240390E+04  0.00000000000E+00 0.  1.
<mgrwt>
<rscale>  0 0.43038875E+04</rscale>
<asrwt>0</asrwt>
<pdfrwt beam="1">  1        1 0.35003843E+00 0.43038875E+04</pdfrwt>
<pdfrwt beam="2">  1       -1 0.31312619E+00 0.43038875E+04</pdfrwt>
<totfact> 0.40094667E-02</totfact>
</mgrwt>
</event>
<event>
 6    1  0.3434851E-005  0.3444197E+04  0.7818608E-02  0.8127143E-01
         -4   -1    0    0    0  501 -0.00000000000E+00  0.00000000000E+00  0.17353791424E+04  0.17353791424E+04  0.00000000000E+00 0.  1.
          4   -1    0    0  501    0  0.00000000000E+00 -0.00000000000E+00 -0.17089195223E+04  0.17089195223E+04  0.00000000000E+00 0. -1.
         23    2    1    2    0    0  0.12539065828E+04 -0.27443101300E+03 -0.11331100115E+04  0.17145021940E+04  0.89360929168E+02 0.  0.
         13    1    3    3    0    0  0.43727769169E+03 -0.94103974413E+02 -0.45239018056E+03  0.63617938753E+03  0.00000000000E+00 0. -1.
        -13    1    3    3    0    0  0.81662889114E+03 -0.18032703859E+03 -0.68071983093E+03  0.10783228065E+04  0.00000000000E+00 0.  1.
         22    1    1    2    0    0 -0.12539065828E+04  0.27443101300E+03  0.11595696317E+04  0.17297964707E+04  0.00000000000E+00 0.  1.
<mgrwt>
<rscale>  0 0.34441970E+04</rscale>
<asrwt>0</asrwt>
<pdfrwt beam="1">  1        4 0.26291069E+00 0.34441970E+04</pdfrwt>
<pdfrwt beam="2">  1       -4 0.26698141E+00 0.34441970E+04</pdfrwt>
<totfact> 0.42363032E-03</totfact>
</mgrwt>
</event>
<event>
 6    1  0.2236204E-005  0.4322954E+04  0.7818608E-02  0.7942387E-01
         -2   -1    0    0    0  501 -0.00000000000E+00  0.00000000000E+00  0.43243164863E+04  0.43243164863E+04  0.00000000000E+00 0.  1.
          2   -1    0    0  501    0  0.00000000000E+00 -0.00000000000E+00 -0.10803980698E+04  0.10803980698E+04  0.00000000000E+00 0. -1.
         23    2    1    2    0    0  0.19616145189E+04 -0.32562826450E+03  0.56628109046E+03  0.20694923839E+04  0.90328103304E+02 0.  0.
         11    1    3    3    0    0  0.37504842341E+03 -0.34349403507E+02  0.13043206617E+03  0.39856458110E+03  0.00000000000E+00 0.  1.
        -11    1    3    3    0    0  0.15865660955E+04 -0.29127886099E+03  0.43584902428E+03  0.16709278028E+04  0.00000000000E+00 0. -1.
         22    1    1    2    0    0 -0.19616145189E+04  0.32562826450E+03  0.26776373261E+04  0.33352221721E+04  0.00000000000E+00 0.  1.
<mgrwt>
<rscale>  0 0.43229542E+04</rscale>
<asrwt>0</asrwt>
<pdfrwt beam="1">  1        2 0.16621509E+00 0.43229542E+04</pdfrwt>
<pdfrwt beam="2">  1       -2 0.66527945E+00 0.43229542E+04</pdfrwt>
<totfact> 0.51587407E-03</totfact>
</mgrwt>
</event>
<event>
 6    1  0.2236204E-005  0.4524223E+04  0.7818608E-02  0.7906410E-01
          2   -1    0    0  501    0  0.00000000000E+00  0.00000000000E+00  0.12590965577E+04  0.12590965577E+04  0.00000000000E+00 0.  1.
         -2   -1    0    0    0  501 -0.00000000000E+00 -0.00000000000E+00 -0.40641422388E+04  0.40641422388E+04  0.00000000000E+00 0. -1.
         23    2    1    2    0    0  0.13766470469E+04  0.15946126698E+04 -0.23697773907E+04  0.31720983681E+04  0.91741574925E+02 0.  0.
         11    1    3    3    0    0  0.47656494315E+03  0.54351207642E+03 -0.87881551684E+03  0.11379087111E+04  0.00000000000E+00 0.  1.
        -11    1    3    3    0    0  0.90008210375E+03  0.10511005934E+04 -0.14909618739E+04  0.20341896569E+04  0.00000000000E+00 0. -1.
         22    1    1    2    0    0 -0.13766470469E+04 -0.15946126698E+04 -0.43526829039E+03  0.21511404285E+04  0.00000000000E+00 0.  1.
<mgrwt>
<rscale>  0 0.45242226E+04</rscale>
<asrwt>0</asrwt>
<pdfrwt beam="1">  1        2 0.19370716E+00 0.45242226E+04</pdfrwt>
<pdfrwt beam="2">  1       -2 0.62525265E+00 0.45242226E+04</pdfrwt>
<totfact> 0.54246820E-03</totfact>
</mgrwt>
</event>
<event>
 6    1  0.2236204E-005  0.2468998E+04  0.7818608E-02  0.8414114E-01
         -2   -1    0    0    0  501 -0.00000000000E+00  0.00000000000E+00  0.52520542395E+03  0.52520542395E+03  0.00000000000E+00 0.  1.
          2   -1    0    0  501    0  0.00000000000E+00 -0.00000000000E+00 -0.29016978941E+04  0.29016978941E+04  0.00000000000E+00 0. -1.
         23    2    1    2    0    0  0.10632144315E+04 -0.60622234248E+03 -0.98445135704E+03  0.15733367785E+04  0.91179430144E+02 0.  0.
         13    1    3    3    0    0  0.46226163166E+03 -0.29758223405E+03 -0.39774305678E+03  0.67855769198E+03  0.00000000000E+00 0.  1.
        -13    1    3    3    0    0  0.60095279983E+03 -0.30864010843E+03 -0.58670830025E+03  0.89477908656E+03  0.00000000000E+00 0. -1.
         22    1    1    2    0    0 -0.10632144315E+04  0.60622234248E+03 -0.13920411131E+04  0.18535665395E+04  0.00000000000E+00 0.  1.
<mgrwt>
<rscale>  0 0.24689978E+04</rscale>
<asrwt>0</asrwt>
<pdfrwt beam="1">  1        2 0.44641507E+00 0.24689978E+04</pdfrwt>
<pdfrwt beam="2">  1       -2 0.80800833E-01 0.24689978E+04</pdfrwt>
<totfact> 0.24225014E+00</totfact>
</mgrwt>
</event>
<event>
 6    1  0.2236204E-005  0.3597319E+04  0.7818608E-02  0.8091106E-01
          2   -1    0    0  501    0  0.00000000000E+00  0.00000000000E+00  0.26751391758E+04  0.26751391758E+04  0.00000000000E+00 0. -1.
         -2   -1    0    0    0  501 -0.00000000000E+00 -0.00000000000E+00 -0.12093488958E+04  0.12093488958E+04  0.00000000000E+00 0.  1.
         23    2    1    2    0    0 -0.99820547896E+03  0.82932317970E+03 -0.60966586393E+03  0.14366912418E+04  0.90543602463E+02 0.  0.
         13    1    3    3    0    0 -0.70208121095E+03  0.63551042520E+03 -0.44054453148E+03  0.10444477065E+04  0.00000000000E+00 0. -1.
        -13    1    3    3    0    0 -0.29612426801E+03  0.19381275450E+03 -0.16912133244E+03  0.39224353532E+03  0.00000000000E+00 0.  1.
         22    1    1    2    0    0  0.99820547896E+03 -0.82932317970E+03  0.20754561440E+04  0.24477968298E+04  0.00000000000E+00 0. -1.
<mgrwt>
<rscale>  0 0.35973193E+04</rscale>
<asrwt>0</asrwt>
<pdfrwt beam="1">  1        2 0.41155987E+00 0.35973193E+04</pdfrwt>
<pdfrwt beam="2">  1       -2 0.18605368E+00 0.35973193E+04</pdfrwt>
<totfact> 0.36905244E-01</totfact>
</mgrwt>
</event>
<event>
 6    1  0.2236204E-005  0.9499413E+03  0.7818608E-02  0.9365219E-01
          2   -1    0    0  501    0  0.00000000000E+00  0.00000000000E+00  0.26583616749E+03  0.26583616749E+03  0.00000000000E+00 0. -1.
         -2   -1    0    0    0  501 -0.00000000000E+00 -0.00000000000E+00 -0.84863207623E+03  0.84863207623E+03  0.00000000000E+00 0.  1.
         23    2    1    2    0    0 -0.34788803025E+03 -0.27533097076E+02  0.76340527923E+02  0.36864990447E+03  0.91053406511E+02 0.  0.
         13    1    3    3    0    0 -0.15190102201E+03  0.77342179896E+01 -0.81865305087E+01  0.15231795002E+03  0.00000000000E+00 0. -1.
        -13    1    3    3    0    0 -0.19598700824E+03 -0.35267315065E+02  0.84527058432E+02  0.21633195445E+03  0.00000000000E+00 0.  1.
         22    1    1    2    0    0  0.34788803025E+03  0.27533097076E+02 -0.65913643666E+03  0.74581833925E+03  0.00000000000E+00 0.  1.
<mgrwt>
<rscale>  0 0.94994126E+03</rscale>
<asrwt>0</asrwt>
<pdfrwt beam="1">  1        2 0.40897871E-01 0.94994126E+03</pdfrwt>
<pdfrwt beam="2">  1       -2 0.13055878E+00 0.94994126E+03</pdfrwt>
<totfact> 0.53993998E+01</totfact>
</mgrwt>
</event>
<event>
 6    1  0.2236204E-005  0.7554968E+03  0.7818608E-02  0.9626766E-01
         -2   -1    0    0    0  501 -0.00000000000E+00  0.00000000000E+00  0.33422929790E+03  0.33422929790E+03  0.00000000000E+00 0. -1.
          2   -1    0    0  501    0  0.00000000000E+00 -0.00000000000E+00 -0.42693396931E+03  0.42693396931E+03  0.00000000000E+00 0.  1.
         23    2    1    2    0    0 -0.13995216816E+03  0.33755341166E+03 -0.11772913228E+03  0.39489132079E+03  0.92466705100E+02 0.  0.
         13    1    3    3    0    0 -0.45938367803E+02  0.13433628148E+03 -0.12202858348E+00  0.14197388862E+03  0.00000000000E+00 0. -1.
        -13    1    3    3    0    0 -0.94013800353E+02  0.20321713017E+03 -0.11760710370E+03  0.25291743216E+03  0.00000000000E+00 0.  1.
         22    1    1    2    0    0  0.13995216816E+03 -0.33755341166E+03  0.25024460870E+02  0.36627194642E+03  0.00000000000E+00 0.  1.
<mgrwt>
<rscale>  0 0.75549677E+03</rscale>
<asrwt>0</asrwt>
<pdfrwt beam="1">  1        2 0.65682149E-01 0.75549677E+03</pdfrwt>
<pdfrwt beam="2">  1       -2 0.51419892E-01 0.75549677E+03</pdfrwt>
<totfact> 0.26611370E+02</totfact>
</mgrwt>
</event>
<event>
 6    1  0.2236204E-005  0.2270664E+04  0.7818608E-02  0.8489578E-01
          2   -1    0    0  501    0  0.00000000000E+00  0.00000000000E+00  0.27298265193E+04  0.27298265193E+04  0.00000000000E+00 0.  1.
         -2   -1    0    0    0  501 -0.00000000000E+00 -0.00000000000E+00 -0.47218345603E+03  0.47218345603E+03  0.00000000000E+00 0. -1.
         23    2    1    2    0    0  0.30489783110E+02 -0.11292814083E+04  0.12608274701E+04  0.16954086834E+04  0.92296091100E+02 0.  0.
         13    1    3    3    0    0 -0.89287700707E+01 -0.51700889840E+03  0.63655912255E+03  0.82011306565E+03  0.00000000000E+00 0.  1.
        -13    1    3    3    0    0  0.39418553181E+02 -0.61227250990E+03  0.62426834758E+03  0.87529561778E+03  0.00000000000E+00 0. -1.
         22    1    1    2    0    0 -0.30489783110E+02  0.11292814083E+04  0.99681559314E+03  0.15066012919E+04  0.00000000000E+00 0. -1.
<mgrwt>
<rscale>  0 0.22706641E+04</rscale>
<asrwt>0</asrwt>
<pdfrwt beam="1">  1        2 0.41997330E+00 0.22706641E+04</pdfrwt>
<pdfrwt beam="2">  1       -2 0.72643611E-01 0.22706641E+04</pdfrwt>
<totfact> 0.39704269E+00</totfact>
</mgrwt>
</event>
<event>
 6    1  0.2236204E-005  0.1218892E+04  0.7818608E-02  0.9096479E-01
         -2   -1    0    0    0  501 -0.00000000000E+00  0.00000000000E+00  0.25801986949E+03  0.25801986949E+03  0.00000000000E+00 0.  1.
          2   -1    0    0  501    0  0.00000000000E+00 -0.00000000000E+00 -0.14395181210E+04  0.14395181210E+04  0.00000000000E+00 0. -1.
         23    2    1    2    0    0  0.39633334861E+03  0.35265180782E+03 -0.10012172348E+04  0.11372303377E+04  0.97023033093E+02 0.  0.
         11    1    3    3    0    0 -0.19677432791E+01  0.20220009200E+02 -0.32230854409E+02  0.38099196338E+02  0.00000000000E+00 0. -1.
        -11    1    3    3    0    0  0.39830109189E+03  0.33243179862E+03 -0.96898638035E+03  0.10991311413E+04  0.00000000000E+00 0.  1.
         22    1    1    2    0    0 -0.39633334861E+03 -0.35265180782E+03 -0.18028101672E+03  0.56030765278E+03  0.00000000000E+00 0.  1.
<mgrwt>
<rscale>  0 0.12188918E+04</rscale>
<asrwt>0</asrwt>
<pdfrwt beam="1">  1        2 0.22146433E+00 0.12188918E+04</pdfrwt>
<pdfrwt beam="2">  1       -2 0.39695364E-01 0.12188918E+04</pdfrwt>
<totfact> 0.81234951E+01</totfact>
</mgrwt>
</event>
<event>
 6    1  0.2236204E-005  0.2978140E+04  0.7818608E-02  0.8250001E-01
         -2   -1    0    0    0  501 -0.00000000000E+00  0.00000000000E+00  0.10232978676E+04  0.10232978676E+04  0.00000000000E+00 0. -1.
          2   -1    0    0  501    0  0.00000000000E+00 -0.00000000000E+00 -0.21668465486E+04  0.21668465486E+04  0.00000000000E+00 0.  1.
         23    2    1    2    0    0 -0.79413648793E+03 -0.58498463424E+03 -0.17652643070E+04  0.20242155576E+04  0.91819202843E+02 0.  0.
         13    1    3    3    0    0 -0.36978193602E+03 -0.32661020881E+03 -0.85050521185E+03  0.98324565806E+03  0.00000000000E+00 0.  1.
        -13    1    3    3    0    0 -0.42435455191E+03 -0.25837442544E+03 -0.91475909519E+03  0.10409698995E+04  0.00000000000E+00 0. -1.
         22    1    1    2    0    0  0.79413648793E+03  0.58498463424E+03  0.62171562609E+03  0.11659288587E+04  0.00000000000E+00 0. -1.
<mgrwt>
<rscale>  0 0.29781400E+04</rscale>
<asrwt>0</asrwt>
<pdfrwt beam="1">  1        2 0.33336100E+00 0.29781400E+04</pdfrwt>
<pdfrwt beam="2">  1       -2 0.15743044E+00 0.29781400E+04</pdfrwt>
<totfact> 0.12167410E+00</totfact>
</mgrwt>
</event>
<event>
 6    1  0.2236204E-005  0.1482353E+04  0.7818608E-02  0.8896274E-01
         -2   -1    0    0    0  501 -0.00000000000E+00  0.00000000000E+00  0.18320724017E+03  0.18320724017E+03  0.00000000000E+00 0.  1.
          2   -1    0    0  501    0  0.00000000000E+00 -0.00000000000E+00 -0.29984745550E+04  0.29984745550E+04  0.00000000000E+00 0. -1.
         23    2    1    2    0    0 -0.64314161752E+03  0.24598317086E+03 -0.19846655404E+04  0.21027757899E+04  0.92897011473E+02 0.  0.
         13    1    3    3    0    0 -0.21449123439E+03  0.36712054772E+02 -0.59866346030E+03  0.63698681563E+03  0.00000000000E+00 0. -1.
        -13    1    3    3    0    0 -0.42865038313E+03  0.20927111609E+03 -0.13860020801E+04  0.14657889742E+04  0.00000000000E+00 0.  1.
         22    1    1    2    0    0  0.64314161752E+03 -0.24598317086E+03 -0.83060177439E+03  0.10789060052E+04  0.00000000000E+00 0.  1.
<mgrwt>
<rscale>  0 0.14823525E+04</rscale>
<asrwt>0</asrwt>
<pdfrwt beam="1">  1        2 0.46130380E+00 0.14823525E+04</pdfrwt>
<pdfrwt beam="2">  1       -2 0.28185728E-01 0.14823525E+04</pdfrwt>
<totfact> 0.19589230E+01</totfact>
</mgrwt>
</event>
<event>
 6    1  0.2236204E-005  0.3365316E+04  0.7818608E-02  0.8146472E-01
         -2   -1    0    0    0  501 -0.00000000000E+00  0.00000000000E+00  0.15377773659E+04  0.15377773659E+04  0.00000000000E+00 0.  1.
          2   -1    0    0  501    0  0.00000000000E+00 -0.00000000000E+00 -0.18411881237E+04  0.18411881237E+04  0.00000000000E+00 0. -1.
         23    2    1    2    0    0  0.16480172804E+04  0.33356812915E+03 -0.14441778941E+03  0.16900287183E+04  0.90066185435E+02 0.  0.
         13    1    3    3    0    0  0.90000061354E+03  0.16062049894E+03 -0.38755991216E+02  0.91504211702E+03  0.00000000000E+00 0. -1.
        -13    1    3    3    0    0  0.74801666681E+03  0.17294763020E+03 -0.10566179820E+03  0.77498660131E+03  0.00000000000E+00 0.  1.
         22    1    1    2    0    0 -0.16480172804E+04 -0.33356812915E+03 -0.15899296840E+03  0.16889367712E+04  0.00000000000E+00 0.  1.
<mgrwt>
<rscale>  0 0.33653157E+04</rscale>
<asrwt>0</asrwt>
<pdfrwt beam="1">  1        2 0.28325971E+00 0.33653157E+04</pdfrwt>
<pdfrwt beam="2">  1       -2 0.23658113E+00 0.33653157E+04</pdfrwt>
<totfact> 0.52904665E-01</totfact>
</mgrwt>
</event>
<event>
 6    1  0.2236204E-005  0.2267767E+04  0.7818608E-02  0.8490740E-01
          1   -1    0    0  501    0  0.00000000000E+00  0.00000000000E+00  0.83061361212E+03  0.83061361212E+03  0.00000000000E+00 0. -1.
         -1   -1    0    0    0  501 -0.00000000000E+00 -0.00000000000E+00 -0.15478820886E+04  0.15478820886E+04  0.00000000000E+00 0.  1.
         23    2    1    2    0    0 -0.26952534493E+03  0.10989795446E+04 -0.32560140061E+03  0.11810805474E+04  0.92385260371E+02 0.  0.
         13    1    3    3    0    0 -0.86997440819E+02  0.22442527738E+03 -0.91666507617E+02  0.25756165952E+03  0.00000000000E+00 0.  1.
        -13    1    3    3    0    0 -0.18252790412E+03  0.87455426725E+03 -0.23393489300E+03  0.92351888790E+03  0.00000000000E+00 0. -1.
         22    1    1    2    0    0  0.26952534493E+03 -0.10989795446E+04 -0.39166707590E+03  0.11974151533E+04  0.00000000000E+00 0. -1.
<mgrwt>
<rscale>  0 0.22677671E+04</rscale>
<asrwt>0</asrwt>
<pdfrwt beam="1">  1        1 0.12778671E+00 0.22677671E+04</pdfrwt>
<pdfrwt beam="2">  1       -1 0.23813570E+00 0.22677671E+04</pdfrwt>
<totfact> 0.15723700E+00</totfact>
</mgrwt>
</event>
<event>
 6    1  0.2236204E-005  0.1335127E+04  0.7818608E-02  0.9002163E-01
          2   -1    0    0  501    0  0.00000000000E+00  0.00000000000E+00  0.79524856657E+03  0.79524856657E+03  0.00000000000E+00 0. -1.
         -2   -1    0    0    0  501 -0.00000000000E+00 -0.00000000000E+00 -0.56037990639E+03  0.56037990639E+03  0.00000000000E+00 0.  1.
         23    2    1    2    0    0  0.83635904103E+02  0.20961929271E+03 -0.51629586854E+03  0.57129221756E+03  0.94223997184E+02 0.  0.
         13    1    3    3    0    0 -0.52243869140E+01  0.75807474222E+02 -0.23949002449E+03  0.25125592370E+03  0.00000000000E+00 0. -1.
        -13    1    3    3    0    0  0.88860291017E+02  0.13381181848E+03 -0.27680584405E+03  0.32003629386E+03  0.00000000000E+00 0.  1.
         22    1    1    2    0    0 -0.83635904103E+02 -0.20961929271E+03  0.75116452872E+03  0.78433625540E+03  0.00000000000E+00 0. -1.
<mgrwt>
<rscale>  0 0.13351274E+04</rscale>
<asrwt>0</asrwt>
<pdfrwt beam="1">  1        2 0.12234593E+00 0.13351274E+04</pdfrwt>
<pdfrwt beam="2">  1       -2 0.86212294E-01 0.13351274E+04</pdfrwt>
<totfact> 0.39619517E+01</totfact>
</mgrwt>
</event>
<event>
 6    1  0.2236204E-005  0.1616235E+04  0.7818608E-02  0.8810636E-01
         -2   -1    0    0    0  501 -0.00000000000E+00  0.00000000000E+00  0.54678653949E+03  0.54678653949E+03  0.00000000000E+00 0.  1.
          2   -1    0    0  501    0  0.00000000000E+00 -0.00000000000E+00 -0.11943493355E+04  0.11943493355E+04  0.00000000000E+00 0. -1.
         23    2    1    2    0    0 -0.44803843343E+03  0.64203171036E+03 -0.52973928730E+03  0.94941273266E+03  0.88417585875E+02 0.  0.
         11    1    3    3    0    0 -0.23727875537E+03  0.30502573592E+03 -0.30866678327E+03  0.49458779850E+03  0.00000000000E+00 0.  1.
        -11    1    3    3    0    0 -0.21075967806E+03  0.33700597443E+03 -0.22107250403E+03  0.45482493416E+03  0.00000000000E+00 0. -1.
         22    1    1    2    0    0  0.44803843343E+03 -0.64203171036E+03 -0.11782350874E+03  0.79172314236E+03  0.00000000000E+00 0. -1.
<mgrwt>
<rscale>  0 0.16162353E+04</rscale>
<asrwt>0</asrwt>
<pdfrwt beam="1">  1        2 0.18374605E+00 0.16162353E+04</pdfrwt>
<pdfrwt beam="2">  1       -2 0.84121006E-01 0.16162353E+04</pdfrwt>
<totfact> 0.22559503E+01</totfact>
</mgrwt>
</event>
<event>
 6    1  0.2236204E-005  0.6842388E+04  0.7818608E-02  0.7593912E-01
         -2   -1    0    0    0  501 -0.00000000000E+00  0.00000000000E+00  0.35128204402E+04  0.35128204402E+04  0.00000000000E+00 0.  1.
          2   -1    0    0  501    0  0.00000000000E+00 -0.00000000000E+00 -0.33319574826E+04  0.33319574826E+04  0.00000000000E+00 0. -1.
         23    2    1    2    0    0  0.18215556963E+04  0.20769154062E+04 -0.19273756285E+04  0.33696789753E+04  0.91196624172E+02 0.  0.
         11    1    3    3    0    0  0.15491023107E+04  0.17656769462E+04 -0.16777374877E+04  0.28865439759E+04  0.00000000000E+00 0. -1.
        -11    1    3    3    0    0  0.27245338560E+03  0.31123845998E+03 -0.24963814079E+03  0.48313499938E+03  0.00000000000E+00 0.  1.
         22    1    1    2    0    0 -0.18215556963E+04 -0.20769154062E+04  0.21082385860E+04  0.34750989475E+04  0.00000000000E+00 0.  1.
<mgrwt>
<rscale>  0 0.68423880E+04</rscale>
<asrwt>0</asrwt>
<pdfrwt beam="1">  1        2 0.51260884E+00 0.68423880E+04</pdfrwt>
<pdfrwt beam="2">  1       -2 0.54043392E+00 0.68423880E+04</pdfrwt>
<totfact> 0.65481544E-04</totfact>
</mgrwt>
</event>
<event>
 6    1  0.2236204E-005  0.2594692E+04  0.7818608E-02  0.8370007E-01
          2   -1    0    0  501    0  0.00000000000E+00  0.00000000000E+00  0.17789372819E+04  0.17789372819E+04  0.00000000000E+00 0. -1.
         -2   -1    0    0    0  501 -0.00000000000E+00 -0.00000000000E+00 -0.94613014363E+03  0.94613014363E+03  0.00000000000E+00 0.  1.
         23    2    1    2    0    0  0.38832070306E+03  0.11164023541E+04  0.97435749263E+03  0.15346121818E+04  0.92275892916E+02 0.  0.
         11    1    3    3    0    0  0.21139288279E+03  0.74102509830E+03  0.62768199696E+03  0.99387616760E+03  0.00000000000E+00 0. -1.
        -11    1    3    3    0    0  0.17692782027E+03  0.37537725578E+03  0.34667549567E+03  0.54073601418E+03  0.00000000000E+00 0.  1.
         22    1    1    2    0    0 -0.38832070306E+03 -0.11164023541E+04 -0.14155035432E+03  0.11904552438E+04  0.00000000000E+00 0.  1.
<mgrwt>
<rscale>  0 0.25946916E+04</rscale>
<asrwt>0</asrwt>
<pdfrwt beam="1">  1        2 0.27368266E+00 0.25946916E+04</pdfrwt>
<pdfrwt beam="2">  1       -2 0.14555848E+00 0.25946916E+04</pdfrwt>
<totfact> 0.25449648E+00</totfact>
</mgrwt>
</event>
<event>
 6    1  0.2236204E-005  0.1194956E+04  0.7818608E-02  0.9117283E-01
         -2   -1    0    0    0  501 -0.00000000000E+00  0.00000000000E+00  0.63396118473E+03  0.63396118473E+03  0.00000000000E+00 0.  1.
          2   -1    0    0  501    0  0.00000000000E+00 -0.00000000000E+00 -0.56309477554E+03  0.56309477554E+03  0.00000000000E+00 0. -1.
         23    2    1    2    0    0 -0.43520215100E+03 -0.35984956993E+03  0.22073678835E+03  0.61280108801E+03  0.88925915874E+02 0.  0.
         11    1    3    3    0    0 -0.26583604367E+03 -0.20885984695E+03  0.85711910489E+02  0.34876606684E+03  0.00000000000E+00 0. -1.
        -11    1    3    3    0    0 -0.16936610733E+03 -0.15098972299E+03  0.13502487786E+03  0.26403502117E+03  0.00000000000E+00 0.  1.
         22    1    1    2    0    0  0.43520215100E+03  0.35984956993E+03 -0.14987037916E+03  0.58425487227E+03  0.00000000000E+00 0. -1.
<mgrwt>
<rscale>  0 0.11949565E+04</rscale>
<asrwt>0</asrwt>
<pdfrwt beam="1">  1        2 0.86629966E-01 0.11949565E+04</pdfrwt>
<pdfrwt beam="2">  1       -2 0.97532490E-01 0.11949565E+04</pdfrwt>
<totfact> 0.46311431E+01</totfact>
</mgrwt>
</event>
<event>
 6    1  0.2236204E-005  0.3806667E+04  0.7818608E-02  0.8044726E-01
          2   -1    0    0  501    0  0.00000000000E+00  0.00000000000E+00  0.22632647000E+04  0.22632647000E+04  0.00000000000E+00 0. -1.
         -2   -1    0    0    0  501 -0.00000000000E+00 -0.00000000000E+00 -0.16006430800E+04  0.16006430800E+04  0.00000000000E+00 0.  1.
         23    2    1    2    0    0 -0.16180059875E+04  0.37609537581E+03  0.12723712481E+04  0.20943921072E+04  0.90324959716E+02 0.  0.
         13    1    3    3    0    0 -0.10024957413E+04  0.25677022931E+03  0.83880342665E+03  0.13321110504E+04  0.00000000000E+00 0.  1.
        -13    1    3    3    0    0 -0.61551024620E+03  0.11932514650E+03  0.43356782143E+03  0.76228105679E+03  0.00000000000E+00 0. -1.
         22    1    1    2    0    0  0.16180059875E+04 -0.37609537581E+03 -0.60974962803E+03  0.17695156728E+04  0.00000000000E+00 0.  1.
<mgrwt>
<rscale>  0 0.38066673E+04</rscale>
<asrwt>0</asrwt>
<pdfrwt beam="1">  1        2 0.34819457E+00 0.38066673E+04</pdfrwt>
<pdfrwt beam="2">  1       -2 0.24625278E+00 0.38066673E+04</pdfrwt>
<totfact> 0.25832724E-01</totfact>
</mgrwt>
</event>
<event>
 6    1  0.2236204E-005  0.3856061E+04  0.7818608E-02  0.8034230E-01
          1   -1    0    0  501    0  0.00000000000E+00  0.00000000000E+00  0.13497008773E+04  0.13497008773E+04  0.00000000000E+00 0. -1.
         -1   -1    0    0    0  501 -0.00000000000E+00 -0.00000000000E+00 -0.27541669169E+04  0.27541669169E+04  0.00000000000E+00 0.  1.
         23    2    1    2    0    0 -0.34438885891E+03 -0.15918599952E+04  0.39334806593E+03  0.16780158843E+04  0.91611553651E+02 0.  0.
         13    1    3    3    0    0 -0.25964606697E+03 -0.10501538828E+04  0.23065177025E+03  0.11060919929E+04  0.00000000000E+00 0.  1.
        -13    1    3    3    0    0 -0.84742791945E+02 -0.54170611241E+03  0.16269629568E+03  0.57192389147E+03  0.00000000000E+00 0. -1.
         22    1    1    2    0    0  0.34438885891E+03  0.15918599952E+04 -0.17978141056E+04  0.24258519098E+04  0.00000000000E+00 0.  1.
<mgrwt>
<rscale>  0 0.38560609E+04</rscale>
<asrwt>0</asrwt>
<pdfrwt beam="1">  1        1 0.20764629E+00 0.38560609E+04</pdfrwt>
<pdfrwt beam="2">  1       -1 0.42371799E+00 0.38560609E+04</pdfrwt>
<totfact> 0.32429734E-02</totfact>
</mgrwt>
</event>
<event>
 6    1  0.2236204E-005  0.2252625E+04  0.7818608E-02  0.8496838E-01
         -2   -1    0    0    0  501 -0.00000000000E+00  0.00000000000E+00  0.12073807177E+04  0.12073807177E+04  0.00000000000E+00 0.  1.
          2   -1    0    0  501    0  0.00000000000E+00 -0.00000000000E+00 -0.10506876648E+04  0.10506876648E+04  0.00000000000E+00 0. -1.
         23    2    1    2    0    0  0.10641464852E+04 -0.29814000896E+03 -0.12882853882E+03  0.11166579453E+04  0.95041925113E+02 0.  0.
         13    1    3    3    0    0  0.84410137932E+03 -0.20913484654E+03 -0.72086581348E+02  0.87260586625E+03  0.00000000000E+00 0. -1.
        -13    1    3    3    0    0  0.22004510585E+03 -0.89005162423E+02 -0.56741957477E+02  0.24405207904E+03  0.00000000000E+00 0.  1.
         22    1    1    2    0    0 -0.10641464852E+04  0.29814000896E+03  0.28552159179E+03  0.11414104372E+04  0.00000000000E+00 0. -1.
<mgrwt>
<rscale>  0 0.22526252E+04</rscale>
<asrwt>0</asrwt>
<pdfrwt beam="1">  1        2 0.16164426E+00 0.22526252E+04</pdfrwt>
<pdfrwt beam="2">  1       -2 0.18575088E+00 0.22526252E+04</pdfrwt>
<totfact> 0.35237932E+00</totfact>
</mgrwt>
</event>
<event>
 6    1  0.2236204E-005  0.4093151E+04  0.7818608E-02  0.7986014E-01
         -1   -1    0    0    0  501 -0.00000000000E+00  0.00000000000E+00  0.11456738472E+04  0.11456738472E+04  0.00000000000E+00 0.  1.
          1   -1    0    0  501    0  0.00000000000E+00 -0.00000000000E+00 -0.36559018766E+04  0.36559018766E+04  0.00000000000E+00 0. -1.
         23    2    1    2    0    0 -0.16096093923E+04 -0.13176730404E+02  0.22559584762E+03  0.16273437997E+04  0.79613652618E+02 0.  0.
         13    1    3    3    0    0 -0.11447395135E+04 -0.84125658775E+01  0.12389395958E+03  0.11514551830E+04  0.00000000000E+00 0. -1.
        -13    1    3    3    0    0 -0.46486987880E+03 -0.47641645264E+01  0.10170188803E+03  0.47588861670E+03  0.00000000000E+00 0.  1.
         22    1    1    2    0    0  0.16096093923E+04  0.13176730404E+02 -0.27358238770E+04  0.31742319242E+04  0.00000000000E+00 0. -1.
<mgrwt>
<rscale>  0 0.40931509E+04</rscale>
<asrwt>0</asrwt>
<pdfrwt beam="1">  1        1 0.56244645E+00 0.40931509E+04</pdfrwt>
<pdfrwt beam="2">  1       -1 0.17625751E+00 0.40931509E+04</pdfrwt>
<totfact> 0.32181964E-02</totfact>
</mgrwt>
</event>
<event>
 6    1  0.2236204E-005  0.1275746E+04  0.7818608E-02  0.9049023E-01
          2   -1    0    0  501    0  0.00000000000E+00  0.00000000000E+00  0.66768182220E+03  0.66768182220E+03  0.00000000000E+00 0. -1.
         -2   -1    0    0    0  501 -0.00000000000E+00 -0.00000000000E+00 -0.60939465030E+03  0.60939465030E+03  0.00000000000E+00 0.  1.
         23    2    1    2    0    0  0.28195480061E+03 -0.55401176389E+03  0.15796010364E+03  0.64750341284E+03  0.88779114566E+02 0.  0.
         11    1    3    3    0    0  0.13944620266E+03 -0.35367914581E+03  0.12050223341E+03  0.39881696287E+03  0.00000000000E+00 0. -1.
        -11    1    3    3    0    0  0.14250859795E+03 -0.20033261809E+03  0.37457870231E+02  0.24868644998E+03  0.00000000000E+00 0.  1.
         22    1    1    2    0    0 -0.28195480061E+03  0.55401176389E+03 -0.99672931742E+02  0.62957305965E+03  0.00000000000E+00 0.  1.
<mgrwt>
<rscale>  0 0.12757456E+04</rscale>
<asrwt>0</asrwt>
<pdfrwt beam="1">  1        2 0.10272028E+00 0.12757456E+04</pdfrwt>
<pdfrwt beam="2">  1       -2 0.93753023E-01 0.12757456E+04</pdfrwt>
<totfact> 0.41052462E+01</totfact>
</mgrwt>
</event>
<event>
 6    1  0.2236204E-005  0.2338805E+04  0.7818608E-02  0.8462776E-01
         -2   -1    0    0    0  501 -0.00000000000E+00  0.00000000000E+00  0.42894698454E+03  0.42894698454E+03  0.00000000000E+00 0.  1.
          2   -1    0    0  501    0  0.00000000000E+00 -0.00000000000E+00 -0.31880450872E+04  0.31880450872E+04  0.00000000000E+00 0. -1.
         23    2    1    2    0    0  0.57427815567E+02 -0.46719492984E+03 -0.30341700005E+04  0.30718007242E+04  0.90570638418E+02 0.  0.
         11    1    3    3    0    0  0.41107513717E+02 -0.68491449333E+02 -0.55627361990E+03  0.56197975632E+03  0.00000000000E+00 0.  1.
        -11    1    3    3    0    0  0.16320301850E+02 -0.39870348051E+03 -0.24778963806E+04  0.25098209678E+04  0.00000000000E+00 0. -1.
         22    1    1    2    0    0 -0.57427815567E+02  0.46719492984E+03  0.27507189785E+03  0.54519134756E+03  0.00000000000E+00 0.  1.
<mgrwt>
<rscale>  0 0.23388051E+04</rscale>
<asrwt>0</asrwt>
<pdfrwt beam="1">  1        2 0.49046847E+00 0.23388051E+04</pdfrwt>
<pdfrwt beam="2">  1       -2 0.65991844E-01 0.23388051E+04</pdfrwt>
<totfact> 0.25242212E+00</totfact>
</mgrwt>
</event>
<event>
 6    1  0.2236204E-005  0.2304335E+04  0.7818608E-02  0.8476214E-01
         -2   -1    0    0    0  501 -0.00000000000E+00  0.00000000000E+00  0.51084524713E+03  0.51084524713E+03  0.00000000000E+00 0.  1.
          2   -1    0    0  501    0  0.00000000000E+00 -0.00000000000E+00 -0.25986152221E+04  0.25986152221E+04  0.00000000000E+00 0. -1.
         23    2    1    2    0    0 -0.21148481792E+03  0.55174765765E+03  0.28640232556E+03  0.66286172434E+03  0.90598386137E+02 0.  0.
         13    1    3    3    0    0 -0.18341444121E+03  0.53290158178E+03  0.26438395879E+03  0.62251412094E+03  0.00000000000E+00 0. -1.
        -13    1    3    3    0    0 -0.28070376713E+02  0.18846075873E+02  0.22018366770E+02  0.40347603396E+02  0.00000000000E+00 0.  1.
         22    1    1    2    0    0  0.21148481792E+03 -0.55174765765E+03 -0.23741723005E+04  0.24465987449E+04  0.00000000000E+00 0. -1.
<mgrwt>
<rscale>  0 0.23043352E+04</rscale>
<asrwt>0</asrwt>
<pdfrwt beam="1">  1        2 0.39978696E+00 0.23043352E+04</pdfrwt>
<pdfrwt beam="2">  1       -2 0.78591576E-01 0.23043352E+04</pdfrwt>
<totfact> 0.39753707E+00</totfact>
</mgrwt>
</event>
<event>
 6    1  0.2236204E-005  0.1994917E+04  0.7818608E-02  0.8609001E-01
          2   -1    0    0  501    0  0.00000000000E+00  0.00000000000E+00  0.18569311635E+04  0.18569311635E+04  0.00000000000E+00 0. -1.
         -2   -1    0    0    0  501 -0.00000000000E+00 -0.00000000000E+00 -0.53578923227E+03  0.53578923227E+03  0.00000000000E+00 0.  1.
         23    2    1    2    0    0 -0.77622208631E+03 -0.50473678441E+02 -0.83105997405E+02  0.78742273970E+03  0.89775523992E+02 0.  0.
         11    1    3    3    0    0 -0.45170482439E+03  0.13554687470E+02 -0.59494737190E+02  0.45580763671E+03  0.00000000000E+00 0. -1.
        -11    1    3    3    0    0 -0.32451726192E+03 -0.64028365910E+02 -0.23611260215E+02  0.33161510300E+03  0.00000000000E+00 0.  1.
         22    1    1    2    0    0  0.77622208631E+03  0.50473678441E+02  0.14042479286E+04  0.16052976561E+04  0.00000000000E+00 0. -1.
<mgrwt>
<rscale>  0 0.19949173E+04</rscale>
<asrwt>0</asrwt>
<pdfrwt beam="1">  1        2 0.28568171E+00 0.19949173E+04</pdfrwt>
<pdfrwt beam="2">  1       -2 0.82429114E-01 0.19949173E+04</pdfrwt>
<totfact> 0.96338214E+00</totfact>
</mgrwt>
</event>
<event>
 6    1  0.2236204E-005  0.1094751E+04  0.7818608E-02  0.9210323E-01
          2   -1    0    0  501    0  0.00000000000E+00  0.00000000000E+00  0.10633782324E+04  0.10633782324E+04  0.00000000000E+00 0.  1.
         -2   -1    0    0    0  501 -0.00000000000E+00 -0.00000000000E+00 -0.28176224733E+03  0.28176224733E+03  0.00000000000E+00 0. -1.
         23    2    1    2    0    0 -0.18340446435E+03 -0.13314444677E+03  0.10008876089E+04  0.10297919642E+04  0.85620339571E+02 0.  0.
         13    1    3    3    0    0 -0.11323949968E+03 -0.90903757169E+02  0.79609374201E+03  0.80922921563E+03  0.00000000000E+00 0. -1.
        -13    1    3    3    0    0 -0.70164964666E+02 -0.42240689605E+02  0.20479386690E+03  0.22056274854E+03  0.00000000000E+00 0.  1.
         22    1    1    2    0    0  0.18340446435E+03  0.13314444677E+03 -0.21927162383E+03  0.31534851556E+03  0.00000000000E+00 0. -1.
<mgrwt>
<rscale>  0 0.10947508E+04</rscale>
<asrwt>0</asrwt>
<pdfrwt beam="1">  1        2 0.16359665E+00 0.10947508E+04</pdfrwt>
<pdfrwt beam="2">  1       -2 0.43348039E-01 0.10947508E+04</pdfrwt>
<totfact> 0.11500004E+02</totfact>
</mgrwt>
</event>
<event>
 6    1  0.2236204E-005  0.1633526E+04  0.7818608E-02  0.8800213E-01
          2   -1    0    0  501    0  0.00000000000E+00  0.00000000000E+00  0.96981553027E+03  0.96981553027E+03  0.00000000000E+00 0. -1.
         -2   -1    0    0    0  501 -0.00000000000E+00 -0.00000000000E+00 -0.68786441259E+03  0.68786441259E+03  0.00000000000E+00 0.  1.
         23    2    1    2    0    0  0.59635145544E+03 -0.19425444170E+02 -0.42079359866E+03  0.73580004688E+03  0.91225270819E+02 0.  0.
         13    1    3    3    0    0  0.37571245385E+03  0.22655262070E+02 -0.23012195606E+03  0.44116802189E+03  0.00000000000E+00 0. -1.
        -13    1    3    3    0    0  0.22063900158E+03 -0.42080706240E+02 -0.19067164260E+03  0.29463202499E+03  0.00000000000E+00 0.  1.
         22    1    1    2    0    0 -0.59635145544E+03  0.19425444170E+02  0.70274471634E+03  0.92187989598E+03  0.00000000000E+00 0. -1.
<mgrwt>
<rscale>  0 0.16335257E+04</rscale>
<asrwt>0</asrwt>
<pdfrwt beam="1">  1        2 0.14920239E+00 0.16335257E+04</pdfrwt>
<pdfrwt beam="2">  1       -2 0.10582529E+00 0.16335257E+04</pdfrwt>
<totfact> 0.18183085E+01</totfact>
</mgrwt>
</event>
<event>
 6    1  0.2236204E-005  0.2399257E+04  0.7818608E-02  0.8439782E-01
          2   -1    0    0  501    0  0.00000000000E+00  0.00000000000E+00  0.12967680962E+04  0.12967680962E+04  0.00000000000E+00 0. -1.
         -2   -1    0    0    0  501 -0.00000000000E+00 -0.00000000000E+00 -0.11097659724E+04  0.11097659724E+04  0.00000000000E+00 0.  1.
         23    2    1    2    0    0  0.38866661223E+03 -0.96821863480E+03  0.68403434003E+03  0.12508740475E+04  0.90960674133E+02 0.  0.
         11    1    3    3    0    0  0.20582297273E+03 -0.45020944102E+03  0.27775896833E+03  0.56762811891E+03  0.00000000000E+00 0. -1.
        -11    1    3    3    0    0  0.18284363950E+03 -0.51800919378E+03  0.40627537170E+03  0.68324592864E+03  0.00000000000E+00 0.  1.
         22    1    1    2    0    0 -0.38866661223E+03  0.96821863480E+03 -0.49703221626E+03  0.11556600210E+04  0.00000000000E+00 0.  1.
<mgrwt>
<rscale>  0 0.23992575E+04</rscale>
<asrwt>0</asrwt>
<pdfrwt beam="1">  1        2 0.19950278E+00 0.23992575E+04</pdfrwt>
<pdfrwt beam="2">  1       -2 0.17073323E+00 0.23992575E+04</pdfrwt>
<totfact> 0.31446239E+00</totfact>
</mgrwt>
</event>
<event>
 6    1  0.2236204E-005  0.2017512E+04  0.7818608E-02  0.8598477E-01
          2   -1    0    0  501    0  0.00000000000E+00  0.00000000000E+00  0.19212433443E+04  0.19212433443E+04  0.00000000000E+00 0. -1.
         -2   -1    0    0    0  501 -0.00000000000E+00 -0.00000000000E+00 -0.52965132118E+03  0.52965132118E+03  0.00000000000E+00 0.  1.
         23    2    1    2    0    0 -0.17774397885E+03  0.66361841834E+03 -0.19649955973E+03  0.72057180466E+03  0.92894141461E+02 0.  0.
         11    1    3    3    0    0 -0.39482720385E+02  0.25329353442E+03 -0.11033848323E+03  0.27908973588E+03  0.00000000000E+00 0.  1.
        -11    1    3    3    0    0 -0.13826125847E+03  0.41032488392E+03 -0.86161076502E+02  0.44148206879E+03  0.00000000000E+00 0. -1.
         22    1    1    2    0    0  0.17774397885E+03 -0.66361841834E+03  0.15880915829E+04  0.17303228609E+04  0.00000000000E+00 0. -1.
<mgrwt>
<rscale>  0 0.20175124E+04</rscale>
<asrwt>0</asrwt>
<pdfrwt beam="1">  1        2 0.29557590E+00 0.20175124E+04</pdfrwt>
<pdfrwt beam="2">  1       -2 0.81484819E-01 0.20175124E+04</pdfrwt>
<totfact> 0.90911814E+00</totfact>
</mgrwt>
</event>
<event>
 6    1  0.2236204E-005  0.1545526E+04  0.7818608E-02  0.8854730E-01
         -2   -1    0    0    0  501 -0.00000000000E+00  0.00000000000E+00  0.15234655593E+03  0.15234655593E+03  0.00000000000E+00 0.  1.
          2   -1    0    0  501    0  0.00000000000E+00 -0.00000000000E+00 -0.39197670014E+04  0.39197670014E+04  0.00000000000E+00 0. -1.
         23    2    1    2    0    0 -0.26816872783E+03 -0.55990458189E+03 -0.68825732498E+03  0.93099064824E+03  0.87394704200E+02 0.  0.
         11    1    3    3    0    0 -0.18247359999E+03 -0.28303526871E+03 -0.35441199640E+03  0.48889000933E+03  0.00000000000E+00 0. -1.
        -11    1    3    3    0    0 -0.85695127835E+02 -0.27686931318E+03 -0.33384532858E+03  0.44210063892E+03  0.00000000000E+00 0.  1.
         22    1    1    2    0    0  0.26816872783E+03  0.55990458189E+03 -0.30791631205E+04  0.31411229091E+04  0.00000000000E+00 0. -1.
<mgrwt>
<rscale>  0 0.15455265E+04</rscale>
<asrwt>0</asrwt>
<pdfrwt beam="1">  1        2 0.60304111E+00 0.15455265E+04</pdfrwt>
<pdfrwt beam="2">  1       -2 0.23437930E-01 0.15455265E+04</pdfrwt>
<totfact> 0.62831430E+00</totfact>
</mgrwt>
</event>
<event>
 6    1  0.2236204E-005  0.2451314E+04  0.7818608E-02  0.8420538E-01
         -2   -1    0    0    0  501 -0.00000000000E+00  0.00000000000E+00  0.11410123028E+04  0.11410123028E+04  0.00000000000E+00 0.  1.
          2   -1    0    0  501    0  0.00000000000E+00 -0.00000000000E+00 -0.13165807010E+04  0.13165807010E+04  0.00000000000E+00 0. -1.
         23    2    1    2    0    0  0.24342235570E+03 -0.73692760356E+03 -0.10369415316E+04  0.12981619316E+04  0.87520994372E+02 0.  0.
         13    1    3    3    0    0  0.10381036735E+03 -0.25336776638E+03 -0.30503414748E+03  0.40989955908E+03  0.00000000000E+00 0. -1.
        -13    1    3    3    0    0  0.13961198835E+03 -0.48355983717E+03 -0.73190738415E+03  0.88826237249E+03  0.00000000000E+00 0.  1.
         22    1    1    2    0    0 -0.24342235570E+03  0.73692760356E+03  0.86137313343E+03  0.11594310722E+04  0.00000000000E+00 0.  1.
<mgrwt>
<rscale>  0 0.24513138E+04</rscale>
<asrwt>0</asrwt>
<pdfrwt beam="1">  1        2 0.20255088E+00 0.24513138E+04</pdfrwt>
<pdfrwt beam="2">  1       -2 0.17554035E+00 0.24513138E+04</pdfrwt>
<totfact> 0.28199874E+00</totfact>
</mgrwt>
</event>
<event>
 6    1  0.2236204E-005  0.1214942E+04  0.7818608E-02  0.9099878E-01
         -2   -1    0    0    0  501 -0.00000000000E+00  0.00000000000E+00  0.32076642456E+03  0.32076642456E+03  0.00000000000E+00 0.  1.
          2   -1    0    0  501    0  0.00000000000E+00 -0.00000000000E+00 -0.11504345532E+04  0.11504345532E+04  0.00000000000E+00 0. -1.
         23    2    1    2    0    0  0.38927127315E+03 -0.39776898945E+03 -0.70152451037E+03  0.90008533274E+03  0.90910255153E+02 0.  0.
         11    1    3    3    0    0  0.20225306479E+03 -0.19520355294E+03 -0.42548300997E+03  0.50994756698E+03  0.00000000000E+00 0.  1.
        -11    1    3    3    0    0  0.18701820836E+03 -0.20256543651E+03 -0.27604150040E+03  0.39013776576E+03  0.00000000000E+00 0. -1.
         22    1    1    2    0    0 -0.38927127315E+03  0.39776898945E+03 -0.12814361826E+03  0.57111564500E+03  0.00000000000E+00 0. -1.
<mgrwt>
<rscale>  0 0.12149416E+04</rscale>
<asrwt>0</asrwt>
<pdfrwt beam="1">  1        2 0.17698993E+00 0.12149416E+04</pdfrwt>
<pdfrwt beam="2">  1       -2 0.49348681E-01 0.12149416E+04</pdfrwt>
<totfact> 0.77722195E+01</totfact>
</mgrwt>
</event>
<event>
 6    1  0.2236204E-005  0.2188432E+04  0.7818608E-02  0.8523259E-01
         -2   -1    0    0    0  501 -0.00000000000E+00  0.00000000000E+00  0.20128762419E+04  0.20128762419E+04  0.00000000000E+00 0.  1.
          2   -1    0    0  501    0  0.00000000000E+00 -0.00000000000E+00 -0.59482457554E+03  0.59482457554E+03  0.00000000000E+00 0. -1.
         23    2    1    2    0    0 -0.36089216269E+03 -0.10283731665E+04  0.79942662654E+03  0.13545083093E+04  0.88404219407E+02 0.  0.
         11    1    3    3    0    0 -0.20400286241E+03 -0.51458425203E+03  0.35825475495E+03  0.65936377649E+03  0.00000000000E+00 0. -1.
        -11    1    3    3    0    0 -0.15688930027E+03 -0.51378891449E+03  0.44117187158E+03  0.69514453279E+03  0.00000000000E+00 0.  1.
         22    1    1    2    0    0  0.36089216269E+03  0.10283731665E+04  0.61862503987E+03  0.12531925082E+04  0.00000000000E+00 0. -1.
<mgrwt>
<rscale>  0 0.21884316E+04</rscale>
<asrwt>0</asrwt>
<pdfrwt beam="1">  1        2 0.91511475E-01 0.21884316E+04</pdfrwt>
<pdfrwt beam="2">  1       -2 0.30967326E+00 0.21884316E+04</pdfrwt>
<totfact> 0.12722070E+00</totfact>
</mgrwt>
</event>
<event>
 6    1  0.2236204E-005  0.2006670E+04  0.7818608E-02  0.8603508E-01
         -1   -1    0    0    0  501 -0.00000000000E+00  0.00000000000E+00  0.10489567121E+04  0.10489567121E+04  0.00000000000E+00 0.  1.
          1   -1    0    0  501    0  0.00000000000E+00 -0.00000000000E+00 -0.95969794767E+03  0.95969794767E+03  0.00000000000E+00 0. -1.
         23    2    1    2    0    0  0.77651857200E+03 -0.61110714554E+03 -0.11742878708E+03  0.99912368948E+03  0.89585662103E+02 0.  0.
         13    1    3    3    0    0  0.61230593107E+03 -0.45273091061E+03 -0.12041061718E+03  0.77096209204E+03  0.00000000000E+00 0. -1.
        -13    1    3    3    0    0  0.16421264093E+03 -0.15837623493E+03  0.29818301013E+01  0.22816159744E+03  0.00000000000E+00 0.  1.
         22    1    1    2    0    0 -0.77651857200E+03  0.61110714554E+03  0.20668755148E+03  0.10095309703E+04  0.00000000000E+00 0.  1.
<mgrwt>
<rscale>  0 0.20066705E+04</rscale>
<asrwt>0</asrwt>
<pdfrwt beam="1">  1        1 0.14764584E+00 0.20066705E+04</pdfrwt>
<pdfrwt beam="2">  1       -1 0.16137796E+00 0.20066705E+04</pdfrwt>
<totfact> 0.43069054E+00</totfact>
</mgrwt>
</event>
<event>
 6    1  0.2236204E-005  0.2287726E+04  0.7818608E-02  0.8482776E-01
          2   -1    0    0  501    0  0.00000000000E+00  0.00000000000E+00  0.88158568236E+03  0.88158568236E+03  0.00000000000E+00 0.  1.
         -2   -1    0    0    0  501 -0.00000000000E+00 -0.00000000000E+00 -0.14841691432E+04  0.14841691432E+04  0.00000000000E+00 0. -1.
         23    2    1    2    0    0  0.14377954802E+03  0.79537397031E+03 -0.11360669762E+04  0.13973040152E+04  0.92293149326E+02 0.  0.
         11    1    3    3    0    0  0.32185583811E+02  0.20541706663E+03 -0.36463859180E+03  0.41975395853E+03  0.00000000000E+00 0.  1.
        -11    1    3    3    0    0  0.11159396421E+03  0.58995690368E+03 -0.77142838436E+03  0.97755005664E+03  0.00000000000E+00 0. -1.
         22    1    1    2    0    0 -0.14377954802E+03 -0.79537397031E+03  0.53348351531E+03  0.96845081041E+03  0.00000000000E+00 0.  1.
<mgrwt>
<rscale>  0 0.22877257E+04</rscale>
<asrwt>0</asrwt>
<pdfrwt beam="1">  1        2 0.13562857E+00 0.22877257E+04</pdfrwt>
<pdfrwt beam="2">  1       -2 0.22833371E+00 0.22877257E+04</pdfrwt>
<totfact> 0.23981366E+00</totfact>
</mgrwt>
</event>
<event>
 6    1  0.2236204E-005  0.1299189E+04  0.7818608E-02  0.9030209E-01
         -2   -1    0    0    0  501 -0.00000000000E+00  0.00000000000E+00  0.27318877909E+03  0.27318877909E+03  0.00000000000E+00 0.  1.
          2   -1    0    0  501    0  0.00000000000E+00 -0.00000000000E+00 -0.15446199699E+04  0.15446199699E+04  0.00000000000E+00 0. -1.
         23    2    1    2    0    0  0.25502379224E+03  0.30309460854E+03  0.75808939285E+02  0.41354401453E+03  0.91477758706E+02 0.  0.
         13    1    3    3    0    0  0.54723709529E+02  0.41104705996E+02 -0.17821657889E+02  0.70724060471E+02  0.00000000000E+00 0.  1.
        -13    1    3    3    0    0  0.20030008271E+03  0.26198990255E+03  0.93630597173E+02  0.34281995405E+03  0.00000000000E+00 0. -1.
         22    1    1    2    0    0 -0.25502379224E+03 -0.30309460854E+03 -0.13472401301E+04  0.14042647344E+04  0.00000000000E+00 0. -1.
<mgrwt>
<rscale>  0 0.12991887E+04</rscale>
<asrwt>0</asrwt>
<pdfrwt beam="1">  1        2 0.23763384E+00 0.12991887E+04</pdfrwt>
<pdfrwt beam="2">  1       -2 0.42029043E-01 0.12991887E+04</pdfrwt>
<totfact> 0.62977505E+01</totfact>
</mgrwt>
</event>
<event>
 6    1  0.2236204E-005  0.3146853E+04  0.7818608E-02  0.8202996E-01
         -2   -1    0    0    0  501 -0.00000000000E+00  0.00000000000E+00  0.10463216169E+04  0.10463216169E+04  0.00000000000E+00 0.  1.
          2   -1    0    0  501    0  0.00000000000E+00 -0.00000000000E+00 -0.23660714791E+04  0.23660714791E+04  0.00000000000E+00 0. -1.
         23    2    1    2    0    0 -0.21591691470E+03 -0.76854843282E+03 -0.21290373180E+04  0.22756288312E+04  0.91650794602E+02 0.  0.
         11    1    3    3    0    0 -0.15935384484E+03 -0.67379957080E+03 -0.18700524955E+04  0.19941153040E+04  0.00000000000E+00 0. -1.
        -11    1    3    3    0    0 -0.56563069862E+02 -0.94748862021E+02 -0.25898482248E+03  0.28151352720E+03  0.00000000000E+00 0.  1.
         22    1    1    2    0    0  0.21591691470E+03  0.76854843282E+03  0.80928745584E+03  0.11367642648E+04  0.00000000000E+00 0.  1.
<mgrwt>
<rscale>  0 0.31468535E+04</rscale>
<asrwt>0</asrwt>
<pdfrwt beam="1">  1        2 0.36401099E+00 0.31468535E+04</pdfrwt>
<pdfrwt beam="2">  1       -2 0.16097256E+00 0.31468535E+04</pdfrwt>
<totfact> 0.87105393E-01</totfact>
</mgrwt>
</event>
<event>
 6    1  0.2236204E-005  0.1088581E+04  0.7818608E-02  0.9216394E-01
         -4   -1    0    0    0  501 -0.00000000000E+00  0.00000000000E+00  0.21934067297E+03  0.21934067297E+03  0.00000000000E+00 0.  1.
          4   -1    0    0  501    0  0.00000000000E+00 -0.00000000000E+00 -0.13506482158E+04  0.13506482158E+04  0.00000000000E+00 0. -1.
         23    2    1    2    0    0 -0.49058083865E+03  0.20747698780E+03 -0.43666902702E+03  0.69463814343E+03  0.90144613951E+02 0.  0.
         13    1    3    3    0    0 -0.39421642398E+03  0.12629152697E+03 -0.34390379464E+03  0.53816908002E+03  0.00000000000E+00 0. -1.
        -13    1    3    3    0    0 -0.96364414678E+02  0.81185460832E+02 -0.92765232382E+02  0.15646906341E+03  0.00000000000E+00 0.  1.
         22    1    1    2    0    0  0.49058083865E+03 -0.20747698780E+03 -0.69463851580E+03  0.87535074534E+03  0.00000000000E+00 0.  1.
<mgrwt>
<rscale>  0 0.10885809E+04</rscale>
<asrwt>0</asrwt>
<pdfrwt beam="1">  1        4 0.20779203E+00 0.10885809E+04</pdfrwt>
<pdfrwt beam="2">  1       -4 0.33744719E-01 0.10885809E+04</pdfrwt>
<totfact> 0.19869672E+00</totfact>
</mgrwt>
</event>
<event>
 6    1  0.2236204E-005  0.2721923E+04  0.7818608E-02  0.8327927E-01
         -2   -1    0    0    0  501 -0.00000000000E+00  0.00000000000E+00  0.15156051411E+04  0.15156051411E+04  0.00000000000E+00 0.  1.
          2   -1    0    0  501    0  0.00000000000E+00 -0.00000000000E+00 -0.12220970881E+04  0.12220970881E+04  0.00000000000E+00 0. -1.
         23    2    1    2    0    0  0.86675567784E+03 -0.40498094226E+03 -0.82442703553E+03  0.12662900399E+04  0.92388092504E+02 0.  0.
         13    1    3    3    0    0  0.55953543820E+03 -0.22598669700E+03 -0.55910550495E+03  0.82264746975E+03  0.00000000000E+00 0.  1.
        -13    1    3    3    0    0  0.30722023963E+03 -0.17899424526E+03 -0.26532153058E+03  0.44364257017E+03  0.00000000000E+00 0. -1.
         22    1    1    2    0    0 -0.86675567784E+03  0.40498094226E+03  0.11179350885E+04  0.14714121893E+04  0.00000000000E+00 0.  1.
<mgrwt>
<rscale>  0 0.27219233E+04</rscale>
<asrwt>0</asrwt>
<pdfrwt beam="1">  1        2 0.18801494E+00 0.27219233E+04</pdfrwt>
<pdfrwt beam="2">  1       -2 0.23317002E+00 0.27219233E+04</pdfrwt>
<totfact> 0.13143662E+00</totfact>
</mgrwt>
</event>
<event>
 6    1  0.2236204E-005  0.3305791E+04  0.7818608E-02  0.8161423E-01
          2   -1    0    0  501    0  0.00000000000E+00  0.00000000000E+00  0.19689289273E+04  0.19689289273E+04  0.00000000000E+00 0. -1.
         -2   -1    0    0    0  501 -0.00000000000E+00 -0.00000000000E+00 -0.13875890040E+04  0.13875890040E+04  0.00000000000E+00 0.  1.
         23    2    1    2    0    0  0.11523272482E+04  0.21307116055E+03 -0.89087803839E+03  0.14748476273E+04  0.90853937779E+02 0.  0.
         11    1    3    3    0    0  0.63377903673E+03  0.88963349696E+02 -0.53066350890E+03  0.83138084213E+03  0.00000000000E+00 0. -1.
        -11    1    3    3    0    0  0.51854821149E+03  0.12410781085E+03 -0.36021452949E+03  0.64346678517E+03  0.00000000000E+00 0.  1.
         22    1    1    2    0    0 -0.11523272482E+04 -0.21307116055E+03  0.14722179616E+04  0.18816703040E+04  0.00000000000E+00 0. -1.
<mgrwt>
<rscale>  0 0.33057914E+04</rscale>
<asrwt>0</asrwt>
<pdfrwt beam="1">  1        2 0.30291214E+00 0.33057914E+04</pdfrwt>
<pdfrwt beam="2">  1       -2 0.21347523E+00 0.33057914E+04</pdfrwt>
<totfact> 0.63134298E-01</totfact>
</mgrwt>
</event>
<event>
 6    1  0.2236204E-005  0.3273227E+04  0.7818608E-02  0.8169741E-01
         -2   -1    0    0    0  501 -0.00000000000E+00  0.00000000000E+00  0.10733719890E+04  0.10733719890E+04  0.00000000000E+00 0.  1.
          2   -1    0    0  501    0  0.00000000000E+00 -0.00000000000E+00 -0.24954107436E+04  0.24954107436E+04  0.00000000000E+00 0. -1.
         23    2    1    2    0    0 -0.94371681978E+03 -0.85944185223E+03 -0.18262914607E+04  0.22298794562E+04  0.88205197232E+02 0.  0.
         11    1    3    3    0    0 -0.64382874763E+03 -0.59021116587E+03 -0.11767756500E+04  0.14654915923E+04  0.00000000000E+00 0.  1.
        -11    1    3    3    0    0 -0.29988807215E+03 -0.26923068636E+03 -0.64951581064E+03  0.76438786396E+03  0.00000000000E+00 0. -1.
         22    1    1    2    0    0  0.94371681978E+03  0.85944185223E+03  0.40425270604E+03  0.13389032764E+04  0.00000000000E+00 0.  1.
<mgrwt>
<rscale>  0 0.32732271E+04</rscale>
<asrwt>0</asrwt>
<pdfrwt beam="1">  1        2 0.38390934E+00 0.32732271E+04</pdfrwt>
<pdfrwt beam="2">  1       -2 0.16513415E+00 0.32732271E+04</pdfrwt>
<totfact> 0.67710710E-01</totfact>
</mgrwt>
</event>
<event>
 6    1  0.2236204E-005  0.1679538E+04  0.7818608E-02  0.8773122E-01
         -2   -1    0    0    0  501 -0.00000000000E+00  0.00000000000E+00  0.81480245203E+03  0.81480245203E+03  0.00000000000E+00 0.  1.
          2   -1    0    0  501    0  0.00000000000E+00 -0.00000000000E+00 -0.86550029953E+03  0.86550029953E+03  0.00000000000E+00 0. -1.
         23    2    1    2    0    0 -0.76463040195E+03  0.11738359631E+03  0.29521509693E+03  0.83289828769E+03  0.90161210720E+02 0.  0.
         11    1    3    3    0    0 -0.58261138214E+03  0.85800433440E+02  0.18266507073E+03  0.61657462244E+03  0.00000000000E+00 0. -1.
        -11    1    3    3    0    0 -0.18201901981E+03  0.31583162865E+02  0.11255002620E+03  0.21632366525E+03  0.00000000000E+00 0.  1.
         22    1    1    2    0    0  0.76463040195E+03 -0.11738359631E+03 -0.34591294443E+03  0.84740446387E+03  0.00000000000E+00 0. -1.
<mgrwt>
<rscale>  0 0.16795378E+04</rscale>
<asrwt>0</asrwt>
<pdfrwt beam="1">  1        2 0.13315389E+00 0.16795378E+04</pdfrwt>
<pdfrwt beam="2">  1       -2 0.12535422E+00 0.16795378E+04</pdfrwt>
<totfact> 0.14047084E+01</totfact>
</mgrwt>
</event>
<event>
 6    1  0.2236204E-005  0.2305072E+04  0.7818608E-02  0.8475924E-01
          2   -1    0    0  501    0  0.00000000000E+00  0.00000000000E+00  0.22212144823E+04  0.22212144823E+04  0.00000000000E+00 0. -1.
         -2   -1    0    0    0  501 -0.00000000000E+00 -0.00000000000E+00 -0.59802375686E+03  0.59802375686E+03  0.00000000000E+00 0.  1.
         23    2    1    2    0    0  0.59082871013E+03 -0.14785546493E+03 -0.38117640049E+03  0.72438087438E+03  0.92154216722E+02 0.  0.
         13    1    3    3    0    0  0.11368405366E+03  0.72608864755E+01 -0.61317355238E+02  0.12937002196E+03  0.00000000000E+00 0.  1.
        -13    1    3    3    0    0  0.47714465647E+03 -0.15511635141E+03 -0.31985904525E+03  0.59501085243E+03  0.00000000000E+00 0. -1.
         22    1    1    2    0    0 -0.59082871013E+03  0.14785546493E+03  0.20043671259E+04  0.20948573648E+04  0.00000000000E+00 0. -1.
<mgrwt>
<rscale>  0 0.23050718E+04</rscale>
<asrwt>0</asrwt>
<pdfrwt beam="1">  1        2 0.34172530E+00 0.23050718E+04</pdfrwt>
<pdfrwt beam="2">  1       -2 0.92003656E-01 0.23050718E+04</pdfrwt>
<totfact> 0.45714827E+00</totfact>
</mgrwt>
</event>
<event>
 6    1  0.2236204E-005  0.3580254E+04  0.7818608E-02  0.8095030E-01
          2   -1    0    0  501    0  0.00000000000E+00  0.00000000000E+00  0.35463223666E+04  0.35463223666E+04  0.00000000000E+00 0.  1.
         -2   -1    0    0    0  501 -0.00000000000E+00 -0.00000000000E+00 -0.90362779491E+03  0.90362779491E+03  0.00000000000E+00 0. -1.
         23    2    1    2    0    0  0.78291298490E+03 -0.33325744398E+03  0.32782262829E+04  0.33879172892E+04  0.84868902249E+02 0.  0.
         13    1    3    3    0    0  0.17230055304E+03 -0.11259319907E+03  0.79987746238E+03  0.82593502401E+03  0.00000000000E+00 0. -1.
        -13    1    3    3    0    0  0.61061243186E+03 -0.22066424491E+03  0.24783488205E+04  0.25619822652E+04  0.00000000000E+00 0.  1.
         22    1    1    2    0    0 -0.78291298490E+03  0.33325744398E+03 -0.63553171123E+03  0.10620328723E+04  0.00000000000E+00 0. -1.
<mgrwt>
<rscale>  0 0.35802544E+04</rscale>
<asrwt>0</asrwt>
<pdfrwt beam="1">  1        2 0.54558805E+00 0.35802544E+04</pdfrwt>
<pdfrwt beam="2">  1       -2 0.13901966E+00 0.35802544E+04</pdfrwt>
<totfact> 0.22477977E-01</totfact>
</mgrwt>
</event>
<event>
 6    1  0.2236204E-005  0.3845864E+04  0.7818608E-02  0.8036384E-01
         -1   -1    0    0    0  501 -0.00000000000E+00  0.00000000000E+00  0.16934919551E+04  0.16934919551E+04  0.00000000000E+00 0.  1.
          1   -1    0    0  501    0  0.00000000000E+00 -0.00000000000E+00 -0.21834578713E+04  0.21834578713E+04  0.00000000000E+00 0. -1.
         23    2    1    2    0    0 -0.72048822629E+03 -0.92896063294E+03  0.12875146845E+04  0.17458683104E+04  0.91054668212E+02 0.  0.
         11    1    3    3    0    0 -0.44955579598E+03 -0.54410589035E+03  0.71419144892E+03  0.10041021160E+04  0.00000000000E+00 0. -1.
        -11    1    3    3    0    0 -0.27093243031E+03 -0.38485474258E+03  0.57332323562E+03  0.74176619442E+03  0.00000000000E+00 0.  1.
         22    1    1    2    0    0  0.72048822629E+03  0.92896063294E+03 -0.17774806007E+04  0.21310815160E+04  0.00000000000E+00 0. -1.
<mgrwt>
<rscale>  0 0.38458644E+04</rscale>
<asrwt>0</asrwt>
<pdfrwt beam="1">  1        1 0.33591659E+00 0.38458644E+04</pdfrwt>
<pdfrwt beam="2">  1       -1 0.26053722E+00 0.38458644E+04</pdfrwt>
<totfact> 0.10549323E-01</totfact>
</mgrwt>
</event>
<event>
 6    1  0.2236204E-005  0.4248131E+04  0.7818608E-02  0.7956279E-01
         -2   -1    0    0    0  501 -0.00000000000E+00  0.00000000000E+00  0.18526761162E+04  0.18526761162E+04  0.00000000000E+00 0.  1.
          2   -1    0    0  501    0  0.00000000000E+00 -0.00000000000E+00 -0.24352096279E+04  0.24352096279E+04  0.00000000000E+00 0. -1.
         23    2    1    2    0    0  0.13604617302E+04 -0.12921393072E+04 -0.12941895664E+04  0.22811634292E+04  0.91103502839E+02 0.  0.
         11    1    3    3    0    0  0.52334875632E+03 -0.46519292132E+03 -0.43754650264E+03  0.82567870068E+03  0.00000000000E+00 0.  1.
        -11    1    3    3    0    0  0.83711297393E+03 -0.82694638583E+03 -0.85664306380E+03  0.14554847285E+04  0.00000000000E+00 0. -1.
         22    1    1    2    0    0 -0.13604617302E+04  0.12921393072E+04  0.71165605475E+03  0.20067223148E+04  0.00000000000E+00 0.  1.
<mgrwt>
<rscale>  0 0.42481312E+04</rscale>
<asrwt>0</asrwt>
<pdfrwt beam="1">  1        2 0.37464763E+00 0.42481312E+04</pdfrwt>
<pdfrwt beam="2">  1       -2 0.28502710E+00 0.42481312E+04</pdfrwt>
<totfact> 0.11514245E-01</totfact>
</mgrwt>
</event>
<event>
 6    1  0.2236204E-005  0.2400168E+04  0.7818608E-02  0.8439441E-01
          2   -1    0    0  501    0  0.00000000000E+00  0.00000000000E+00  0.25007318447E+04  0.25007318447E+04  0.00000000000E+00 0. -1.
         -2   -1    0    0    0  501 -0.00000000000E+00 -0.00000000000E+00 -0.57591196319E+03  0.57591196319E+03  0.00000000000E+00 0.  1.
         23    2    1    2    0    0 -0.88857850177E+03 -0.68455729271E+03  0.15046403396E+04  0.18788369419E+04  0.88855285658E+02 0.  0.
         13    1    3    3    0    0 -0.68477935311E+03 -0.50317221159E+03  0.10822703268E+04  0.13760138434E+04  0.00000000000E+00 0. -1.
        -13    1    3    3    0    0 -0.20379914866E+03 -0.18138508113E+03  0.42237001274E+03  0.50282309843E+03  0.00000000000E+00 0.  1.
         22    1    1    2    0    0  0.88857850177E+03  0.68455729271E+03  0.42017954192E+03  0.11978068660E+04  0.00000000000E+00 0.  1.
<mgrwt>
<rscale>  0 0.24001678E+04</rscale>
<asrwt>0</asrwt>
<pdfrwt beam="1">  1        2 0.38472797E+00 0.24001678E+04</pdfrwt>
<pdfrwt beam="2">  1       -2 0.88601842E-01 0.24001678E+04</pdfrwt>
<totfact> 0.34259789E+00</totfact>
</mgrwt>
</event>
<event>
 6    1  0.2236204E-005  0.3098433E+04  0.7818608E-02  0.8216168E-01
         -2   -1    0    0    0  501 -0.00000000000E+00  0.00000000000E+00  0.74669209938E+03  0.74669209938E+03  0.00000000000E+00 0.  1.
          2   -1    0    0  501    0  0.00000000000E+00 -0.00000000000E+00 -0.32142718737E+04  0.32142718737E+04  0.00000000000E+00 0. -1.
         23    2    1    2    0    0 -0.11869449136E+04  0.34040598790E+03 -0.24280928948E+04  0.27255394800E+04  0.90641528156E+02 0.  0.
         13    1    3    3    0    0 -0.61401269876E+03  0.15400022325E+03 -0.11558261410E+04  0.13178246208E+04  0.00000000000E+00 0. -1.
        -13    1    3    3    0    0 -0.57293221486E+03  0.18640576465E+03 -0.12722667538E+04  0.14077148592E+04  0.00000000000E+00 0.  1.
         22    1    1    2    0    0  0.11869449136E+04 -0.34040598790E+03 -0.39486879558E+02  0.12354244931E+04  0.00000000000E+00 0.  1.
<mgrwt>
<rscale>  0 0.30984328E+04</rscale>
<asrwt>0</asrwt>
<pdfrwt beam="1">  1        2 0.49450337E+00 0.30984328E+04</pdfrwt>
<pdfrwt beam="2">  1       -2 0.11487571E+00 0.30984328E+04</pdfrwt>
<totfact> 0.63660190E-01</totfact>
</mgrwt>
</event>
<event>
 6    1  0.2236204E-005  0.2044149E+04  0.7818608E-02  0.8586253E-01
          2   -1    0    0  501    0  0.00000000000E+00  0.00000000000E+00  0.12686322247E+04  0.12686322247E+04  0.00000000000E+00 0. -1.
         -2   -1    0    0    0  501 -0.00000000000E+00 -0.00000000000E+00 -0.82343526093E+03  0.82343526093E+03  0.00000000000E+00 0.  1.
         23    2    1    2    0    0  0.10438122727E+03  0.10091436986E+04  0.33358759771E+03  0.10714191154E+04  0.85975522815E+02 0.  0.
         13    1    3    3    0    0  0.11018021519E+03  0.73298838251E+03  0.26089626805E+03  0.78579800928E+03  0.00000000000E+00 0. -1.
        -13    1    3    3    0    0 -0.57989879140E+01  0.27615531611E+03  0.72691329663E+02  0.28562110616E+03  0.00000000000E+00 0.  1.
         22    1    1    2    0    0 -0.10438122727E+03 -0.10091436986E+04  0.11160936610E+03  0.10206483702E+04  0.00000000000E+00 0. -1.
<mgrwt>
<rscale>  0 0.20441492E+04</rscale>
<asrwt>0</asrwt>
<pdfrwt beam="1">  1        2 0.19517419E+00 0.20441492E+04</pdfrwt>
<pdfrwt beam="2">  1       -2 0.12668235E+00 0.20441492E+04</pdfrwt>
<totfact> 0.74031779E+00</totfact>
</mgrwt>
</event>
<event>
 6    1  0.2236204E-005  0.4641930E+04  0.7818608E-02  0.7886249E-01
         -2   -1    0    0    0  501 -0.00000000000E+00  0.00000000000E+00  0.25257423168E+04  0.25257423168E+04  0.00000000000E+00 0.  1.
          2   -1    0    0  501    0  0.00000000000E+00 -0.00000000000E+00 -0.21327902682E+04  0.21327902682E+04  0.00000000000E+00 0. -1.
         23    2    1    2    0    0 -0.39413161916E+03 -0.18562068296E+04 -0.11431373396E+04  0.22171366449E+04  0.89935518351E+02 0.  0.
         11    1    3    3    0    0 -0.48066849936E+02 -0.40293876156E+03 -0.24829893529E+03  0.47573356924E+03  0.00000000000E+00 0.  1.
        -11    1    3    3    0    0 -0.34606476923E+03 -0.14532680680E+04 -0.89483840434E+03  0.17414030757E+04  0.00000000000E+00 0. -1.
         22    1    1    2    0    0  0.39413161916E+03  0.18562068296E+04  0.15360893883E+04  0.24413959401E+04  0.00000000000E+00 0.  1.
<mgrwt>
<rscale>  0 0.46419300E+04</rscale>
<asrwt>0</asrwt>
<pdfrwt beam="1">  1        2 0.32812158E+00 0.46419300E+04</pdfrwt>
<pdfrwt beam="2">  1       -2 0.38857574E+00 0.46419300E+04</pdfrwt>
<totfact> 0.37181978E-02</totfact>
</mgrwt>
</event>
<event>
 6    1  0.2236204E-005  0.2687636E+04  0.7818608E-02  0.8339028E-01
         -2   -1    0    0    0  501 -0.00000000000E+00  0.00000000000E+00  0.92132250948E+03  0.92132250948E+03  0.00000000000E+00 0.  1.
          2   -1    0    0  501    0  0.00000000000E+00 -0.00000000000E+00 -0.19600591326E+04  0.19600591326E+04  0.00000000000E+00 0. -1.
         23    2    1    2    0    0 -0.78703304418E+03 -0.44183376876E+03 -0.15848606227E+04  0.18264458550E+04  0.97381598541E+02 0.  0.
         11    1    3    3    0    0 -0.12854536998E+03 -0.33117464792E+02 -0.23851953348E+03  0.27296931415E+03  0.00000000000E+00 0. -1.
        -11    1    3    3    0    0 -0.65848767419E+03 -0.40871630397E+03 -0.13463410893E+04  0.15534765408E+04  0.00000000000E+00 0.  1.
         22    1    1    2    0    0  0.78703304418E+03  0.44183376876E+03  0.54612399967E+03  0.10549357871E+04  0.00000000000E+00 0.  1.
<mgrwt>
<rscale>  0 0.26876358E+04</rscale>
<asrwt>0</asrwt>
<pdfrwt beam="1">  1        2 0.30154756E+00 0.26876358E+04</pdfrwt>
<pdfrwt beam="2">  1       -2 0.14174192E+00 0.26876358E+04</pdfrwt>
<totfact> 0.21477597E+00</totfact>
</mgrwt>
</event>
<event>
 6    1  0.2236204E-005  0.1855424E+04  0.7818608E-02  0.8677368E-01
          2   -1    0    0  501    0  0.00000000000E+00  0.00000000000E+00  0.13235378791E+04  0.13235378791E+04  0.00000000000E+00 0. -1.
         -2   -1    0    0    0  501 -0.00000000000E+00 -0.00000000000E+00 -0.65026451787E+03  0.65026451787E+03  0.00000000000E+00 0.  1.
         23    2    1    2    0    0 -0.39433496179E+03  0.80235311833E+03  0.83071032077E+02  0.90253708065E+03  0.91661316814E+02 0.  0.
         13    1    3    3    0    0 -0.17015472755E+03  0.26401081995E+03  0.45998993011E+01  0.31412657231E+03  0.00000000000E+00 0. -1.
        -13    1    3    3    0    0 -0.22418023424E+03  0.53834229838E+03  0.78471132775E+02  0.58841050834E+03  0.00000000000E+00 0.  1.
         22    1    1    2    0    0  0.39433496179E+03 -0.80235311833E+03  0.59020232912E+03  0.10712653163E+04  0.00000000000E+00 0.  1.
<mgrwt>
<rscale>  0 0.18554242E+04</rscale>
<asrwt>0</asrwt>
<pdfrwt beam="1">  1        2 0.20362121E+00 0.18554242E+04</pdfrwt>
<pdfrwt beam="2">  1       -2 0.10004070E+00 0.18554242E+04</pdfrwt>
<totfact> 0.12425619E+01</totfact>
</mgrwt>
</event>
<event>
 6    1  0.2236204E-005  0.3252407E+04  0.7818608E-02  0.8175112E-01
          1   -1    0    0  501    0  0.00000000000E+00  0.00000000000E+00  0.17128737468E+04  0.17128737468E+04  0.00000000000E+00 0. -1.
         -1   -1    0    0    0  501 -0.00000000000E+00 -0.00000000000E+00 -0.15439188505E+04  0.15439188505E+04  0.00000000000E+00 0.  1.
         23    2    1    2    0    0 -0.81993976601E+03  0.36331915493E+03  0.14414739349E+04  0.16999988628E+04  0.88583295798E+02 0.  0.
         13    1    3    3    0    0 -0.68422131866E+03  0.29795545929E+03  0.12568921292E+04  0.14617503525E+04  0.00000000000E+00 0. -1.
        -13    1    3    3    0    0 -0.13571844735E+03  0.65363695645E+02  0.18458180575E+03  0.23824851033E+03  0.00000000000E+00 0.  1.
         22    1    1    2    0    0  0.81993976601E+03 -0.36331915493E+03 -0.12725190386E+04  0.15567937345E+04  0.00000000000E+00 0.  1.
<mgrwt>
<rscale>  0 0.32524071E+04</rscale>
<asrwt>0</asrwt>
<pdfrwt beam="1">  1        1 0.26351904E+00 0.32524071E+04</pdfrwt>
<pdfrwt beam="2">  1       -1 0.23752598E+00 0.32524071E+04</pdfrwt>
<totfact> 0.32746562E-01</totfact>
</mgrwt>
</event>
<event>
 6    1  0.2236204E-005  0.2812514E+04  0.7818608E-02  0.8299394E-01
         -2   -1    0    0    0  501 -0.00000000000E+00  0.00000000000E+00  0.18344409691E+04  0.18344409691E+04  0.00000000000E+00 0.  1.
          2   -1    0    0  501    0  0.00000000000E+00 -0.00000000000E+00 -0.10780171282E+04  0.10780171282E+04  0.00000000000E+00 0. -1.
         23    2    1    2    0    0  0.15446262468E+03 -0.57249484730E+03  0.16974399470E+04  0.18001989707E+04  0.88345389392E+02 0.  0.
         13    1    3    3    0    0  0.13905285004E+02 -0.20225003413E+03  0.61820861642E+03  0.65059997438E+03  0.00000000000E+00 0. -1.
        -13    1    3    3    0    0  0.14055733968E+03 -0.37024481317E+03  0.10792313306E+04  0.11495989963E+04  0.00000000000E+00 0.  1.
         22    1    1    2    0    0 -0.15446262468E+03  0.57249484730E+03 -0.94101610611E+03  0.11122591265E+04  0.00000000000E+00 0. -1.
<mgrwt>
<rscale>  0 0.28125140E+04</rscale>
<asrwt>0</asrwt>
<pdfrwt beam="1">  1        2 0.16584879E+00 0.28125140E+04</pdfrwt>
<pdfrwt beam="2">  1       -2 0.28222169E+00 0.28125140E+04</pdfrwt>
<totfact> 0.79766424E-01</totfact>
</mgrwt>
</event>
<event>
 6    1  0.2236204E-005  0.1402756E+04  0.7818608E-02  0.8951826E-01
          2   -1    0    0  501    0  0.00000000000E+00  0.00000000000E+00  0.66005736842E+03  0.66005736842E+03  0.00000000000E+00 0. -1.
         -2   -1    0    0    0  501 -0.00000000000E+00 -0.00000000000E+00 -0.74528497952E+03  0.74528497952E+03  0.00000000000E+00 0.  1.
         23    2    1    2    0    0  0.18216366192E+03 -0.46566915340E+03  0.44570853364E+03  0.67601077043E+03  0.91121373055E+02 0.  0.
         13    1    3    3    0    0  0.15887623197E+02 -0.14723370707E+03  0.11171726398E+03  0.18550182786E+03  0.00000000000E+00 0. -1.
        -13    1    3    3    0    0  0.16627603872E+03 -0.31843544633E+03  0.33399126966E+03  0.49050894257E+03  0.00000000000E+00 0.  1.
         22    1    1    2    0    0 -0.18216366192E+03  0.46566915340E+03 -0.53093614474E+03  0.72933157750E+03  0.00000000000E+00 0.  1.
<mgrwt>
<rscale>  0 0.14027556E+04</rscale>
<asrwt>0</asrwt>
<pdfrwt beam="1">  1        2 0.10154729E+00 0.14027556E+04</pdfrwt>
<pdfrwt beam="2">  1       -2 0.11465923E+00 0.14027556E+04</pdfrwt>
<totfact> 0.25494700E+01</totfact>
</mgrwt>
</event>
<event>
 6    1  0.2236204E-005  0.7021895E+03  0.7818608E-02  0.9713495E-01
         -1   -1    0    0    0  501 -0.00000000000E+00  0.00000000000E+00  0.11817538809E+03  0.11817538809E+03  0.00000000000E+00 0.  1.
          1   -1    0    0  501    0  0.00000000000E+00 -0.00000000000E+00 -0.10430896585E+04  0.10430896585E+04  0.00000000000E+00 0. -1.
         23    2    1    2    0    0  0.49655779555E+02  0.43433458805E+02 -0.10303974973E+04  0.10368509277E+04  0.94808660297E+02 0.  0.
         13    1    3    3    0    0  0.33576927062E+02  0.47166155749E+02 -0.26392794311E+03  0.27020365548E+03  0.00000000000E+00 0.  1.
        -13    1    3    3    0    0  0.16078852494E+02 -0.37326969434E+01 -0.76646955421E+03  0.76664727226E+03  0.00000000000E+00 0. -1.
         22    1    1    2    0    0 -0.49655779555E+02 -0.43433458805E+02  0.10548322696E+03  0.12441411880E+03  0.00000000000E+00 0.  1.
<mgrwt>
<rscale>  0 0.70218950E+03</rscale>
<asrwt>0</asrwt>
<pdfrwt beam="1">  1        1 0.16047533E+00 0.70218950E+03</pdfrwt>
<pdfrwt beam="2">  1       -1 0.18180829E-01 0.70218950E+03</pdfrwt>
<totfact> 0.34029133E+02</totfact>
</mgrwt>
</event>
<event>
 6    1  0.2236204E-005  0.1387999E+04  0.7818608E-02  0.8962551E-01
          1   -1    0    0  501    0  0.00000000000E+00  0.00000000000E+00  0.10308451184E+04  0.10308451184E+04  0.00000000000E+00 0. -1.
         -1   -1    0    0    0  501 -0.00000000000E+00 -0.00000000000E+00 -0.46722381840E+03  0.46722381840E+03  0.00000000000E+00 0.  1.
         23    2    1    2    0    0 -0.21725837506E+03  0.45521975124E+03 -0.22686786689E+03  0.56035930882E+03  0.90040560325E+02 0.  0.
         13    1    3    3    0    0 -0.12495465273E+03  0.16644217297E+03 -0.74545754107E+02  0.22107404108E+03  0.00000000000E+00 0. -1.
        -13    1    3    3    0    0 -0.92303722327E+02  0.28877757827E+03 -0.15232211278E+03  0.33928526775E+03  0.00000000000E+00 0.  1.
         22    1    1    2    0    0  0.21725837506E+03 -0.45521975124E+03  0.79048916692E+03  0.93770962801E+03  0.00000000000E+00 0. -1.
<mgrwt>
<rscale>  0 0.13879991E+04</rscale>
<asrwt>0</asrwt>
<pdfrwt beam="1">  1        1 0.15859156E+00 0.13879991E+04</pdfrwt>
<pdfrwt beam="2">  1       -1 0.71880588E-01 0.13879991E+04</pdfrwt>
<totfact> 0.27299589E+01</totfact>
</mgrwt>
</event>
<event>
 6    1  0.2236204E-005  0.1097775E+04  0.7818608E-02  0.9207363E-01
          1   -1    0    0  501    0  0.00000000000E+00  0.00000000000E+00  0.52414979021E+03  0.52414979021E+03  0.00000000000E+00 0. -1.
         -1   -1    0    0    0  501 -0.00000000000E+00 -0.00000000000E+00 -0.57479280067E+03  0.57479280067E+03  0.00000000000E+00 0.  1.
         23    2    1    2    0    0 -0.37600289964E+03 -0.28542579454E+02 -0.41992426292E+03  0.57115333104E+03  0.87674862929E+02 0.  0.
         11    1    3    3    0    0 -0.82141683613E+02  0.13181028380E+02 -0.50710571832E+02  0.97429758244E+02  0.00000000000E+00 0. -1.
        -11    1    3    3    0    0 -0.29386121603E+03 -0.41723607834E+02 -0.36921369109E+03  0.47372357280E+03  0.00000000000E+00 0.  1.
         22    1    1    2    0    0  0.37600289964E+03  0.28542579454E+02  0.36928125247E+03  0.52778925984E+03  0.00000000000E+00 0. -1.
<mgrwt>
<rscale>  0 0.10977751E+04</rscale>
<asrwt>0</asrwt>
<pdfrwt beam="1">  1        1 0.80638429E-01 0.10977751E+04</pdfrwt>
<pdfrwt beam="2">  1       -1 0.88429662E-01 0.10977751E+04</pdfrwt>
<totfact> 0.51978437E+01</totfact>
</mgrwt>
</event>
<event>
 6    1  0.2236204E-005  0.5175758E+04  0.7818608E-02  0.7801952E-01
         -2   -1    0    0    0  501 -0.00000000000E+00  0.00000000000E+00  0.24583038937E+04  0.24583038937E+04  0.00000000000E+00 0.  1.
          2   -1    0    0  501    0  0.00000000000E+00 -0.00000000000E+00 -0.27242837142E+04  0.27242837142E+04  0.00000000000E+00 0. -1.
         23    2    1    2    0    0  0.65201388746E+03  0.11270693078E+04 -0.23714529715E+04  0.27070221122E+04  0.93659948894E+02 0.  0.
         11    1    3    3    0    0  0.19308501304E+03  0.33505833583E+03 -0.79556808634E+03  0.88457588180E+03  0.00000000000E+00 0.  1.
        -11    1    3    3    0    0  0.45892887442E+03  0.79201097202E+03 -0.15758848851E+04  0.18224462304E+04  0.00000000000E+00 0. -1.
         22    1    1    2    0    0 -0.65201388746E+03 -0.11270693078E+04  0.21054731509E+04  0.24755654957E+04  0.00000000000E+00 0.  1.
<mgrwt>
<rscale>  0 0.51757578E+04</rscale>
<asrwt>0</asrwt>
<pdfrwt beam="1">  1        2 0.41912057E+00 0.51757578E+04</pdfrwt>
<pdfrwt beam="2">  1       -2 0.37820060E+00 0.51757578E+04</pdfrwt>
<totfact> 0.18967543E-02</totfact>
</mgrwt>
</event>
<event>
 6    1  0.2236204E-005  0.1793177E+04  0.7818608E-02  0.8709936E-01
         -2   -1    0    0    0  501 -0.00000000000E+00  0.00000000000E+00  0.59489517537E+03  0.59489517537E+03  0.00000000000E+00 0. -1.
          2   -1    0    0  501    0  0.00000000000E+00 -0.00000000000E+00 -0.13512814820E+04  0.13512814820E+04  0.00000000000E+00 0.  1.
         23    2    1    2    0    0 -0.50176721324E+02 -0.15311699286E+03 -0.13339651969E+04  0.13465435268E+04  0.88055699962E+02 0.  0.
         11    1    3    3    0    0  0.98223196977E+00 -0.51761941181E+02 -0.74104177317E+03  0.74284801469E+03  0.00000000000E+00 0.  1.
        -11    1    3    3    0    0 -0.51158953293E+02 -0.10135505168E+03 -0.59292342368E+03  0.60369551211E+03  0.00000000000E+00 0. -1.
         22    1    1    2    0    0  0.50176721324E+02  0.15311699286E+03  0.57757889022E+03  0.59963313058E+03  0.00000000000E+00 0. -1.
<mgrwt>
<rscale>  0 0.17931769E+04</rscale>
<asrwt>0</asrwt>
<pdfrwt beam="1">  1        2 0.20788946E+00 0.17931769E+04</pdfrwt>
<pdfrwt beam="2">  1       -2 0.91522335E-01 0.17931769E+04</pdfrwt>
<totfact> 0.14823456E+01</totfact>
</mgrwt>
</event>
<event>
 6    1  0.2236204E-005  0.1269191E+04  0.7818608E-02  0.9054360E-01
          2   -1    0    0  501    0  0.00000000000E+00  0.00000000000E+00  0.58545711912E+03  0.58545711912E+03  0.00000000000E+00 0. -1.
         -2   -1    0    0    0  501 -0.00000000000E+00 -0.00000000000E+00 -0.68785802204E+03  0.68785802204E+03  0.00000000000E+00 0.  1.
         23    2    1    2    0    0  0.12056677023E+03 -0.13305202082E+03  0.55597000295E+03  0.59089925915E+03  0.88431351615E+02 0.  0.
         13    1    3    3    0    0  0.11853020044E+03 -0.71290572431E+02  0.37910133294E+03  0.40354624862E+03  0.00000000000E+00 0. -1.
        -13    1    3    3    0    0  0.20365697922E+01 -0.61761448385E+02  0.17686867001E+03  0.18735301053E+03  0.00000000000E+00 0.  1.
         22    1    1    2    0    0 -0.12056677023E+03  0.13305202082E+03 -0.65837090587E+03  0.68241588202E+03  0.00000000000E+00 0.  1.
<mgrwt>
<rscale>  0 0.12691909E+04</rscale>
<asrwt>0</asrwt>
<pdfrwt beam="1">  1        2 0.90070326E-01 0.12691909E+04</pdfrwt>
<pdfrwt beam="2">  1       -2 0.10582431E+00 0.12691909E+04</pdfrwt>
<totfact> 0.36204559E+01</totfact>
</mgrwt>
</event>
<event>
 6    1  0.2236204E-005  0.2973837E+04  0.7818608E-02  0.8251242E-01
          2   -1    0    0  501    0  0.00000000000E+00  0.00000000000E+00  0.29245835698E+04  0.29245835698E+04  0.00000000000E+00 0. -1.
         -2   -1    0    0    0  501 -0.00000000000E+00 -0.00000000000E+00 -0.75598007778E+03  0.75598007778E+03  0.00000000000E+00 0.  1.
         23    2    1    2    0    0  0.13646376823E+02 -0.14653896628E+04  0.78422396032E+03  0.16646123150E+04  0.91508754016E+02 0.  0.
         13    1    3    3    0    0 -0.34560082295E+02 -0.92175982391E+03  0.50367506244E+03  0.10509634346E+04  0.00000000000E+00 0. -1.
        -13    1    3    3    0    0  0.48206459118E+02 -0.54362983887E+03  0.28054889788E+03  0.61364888047E+03  0.00000000000E+00 0.  1.
         22    1    1    2    0    0 -0.13646376823E+02  0.14653896628E+04  0.13843795317E+04  0.20159513325E+04  0.00000000000E+00 0. -1.
<mgrwt>
<rscale>  0 0.29738372E+04</rscale>
<asrwt>0</asrwt>
<pdfrwt beam="1">  1        2 0.44993593E+00 0.29738372E+04</pdfrwt>
<pdfrwt beam="2">  1       -2 0.11630463E+00 0.29738372E+04</pdfrwt>
<totfact> 0.95413425E-01</totfact>
</mgrwt>
</event>
<event>
 6    1  0.2236204E-005  0.1959187E+04  0.7818608E-02  0.8625943E-01
          2   -1    0    0  501    0  0.00000000000E+00  0.00000000000E+00  0.12351035463E+04  0.12351035463E+04  0.00000000000E+00 0. -1.
         -2   -1    0    0    0  501 -0.00000000000E+00 -0.00000000000E+00 -0.77694169155E+03  0.77694169155E+03  0.00000000000E+00 0.  1.
         23    2    1    2    0    0 -0.29940936475E+03  0.88004726983E+03 -0.80792632648E+02  0.93752157394E+03  0.91049916334E+02 0.  0.
         11    1    3    3    0    0 -0.72320745689E+02  0.34620056980E+03 -0.20714861165E+02  0.35427987561E+03  0.00000000000E+00 0. -1.
        -11    1    3    3    0    0 -0.22708861906E+03  0.53384670003E+03 -0.60077771483E+02  0.58324169833E+03  0.00000000000E+00 0.  1.
         22    1    1    2    0    0  0.29940936475E+03 -0.88004726983E+03  0.53895448740E+03  0.10745236639E+04  0.00000000000E+00 0. -1.
<mgrwt>
<rscale>  0 0.19591870E+04</rscale>
<asrwt>0</asrwt>
<pdfrwt beam="1">  1        2 0.19001593E+00 0.19591870E+04</pdfrwt>
<pdfrwt beam="2">  1       -2 0.11952949E+00 0.19591870E+04</pdfrwt>
<totfact> 0.90234742E+00</totfact>
</mgrwt>
</event>
<event>
 6    1  0.2236204E-005  0.7346011E+04  0.7818608E-02  0.7542767E-01
          2   -1    0    0  501    0  0.00000000000E+00  0.00000000000E+00  0.47263169042E+04  0.47263169042E+04  0.00000000000E+00 0. -1.
         -2   -1    0    0    0  501 -0.00000000000E+00 -0.00000000000E+00 -0.28544358230E+04  0.28544358230E+04  0.00000000000E+00 0.  1.
         23    2    1    2    0    0 -0.68946225742E+03  0.36070294584E+04  0.90595074403E+03  0.37835114741E+04  0.90513013592E+02 0.  0.
         11    1    3    3    0    0 -0.14909125073E+03  0.67985530962E+03  0.14082506167E+03  0.71011487878E+03  0.00000000000E+00 0.  1.
        -11    1    3    3    0    0 -0.54037100669E+03  0.29271741488E+04  0.76512568236E+03  0.30733965953E+04  0.00000000000E+00 0. -1.
         22    1    1    2    0    0  0.68946225742E+03 -0.36070294584E+04  0.96593033715E+03  0.37972412531E+04  0.00000000000E+00 0.  1.
<mgrwt>
<rscale>  0 0.73460107E+04</rscale>
<asrwt>0</asrwt>
<pdfrwt beam="1">  1        2 0.72712568E+00 0.73460107E+04</pdfrwt>
<pdfrwt beam="2">  1       -2 0.43914397E+00 0.73460107E+04</pdfrwt>
<totfact> 0.17653849E-04</totfact>
</mgrwt>
</event>
<event>
 6    1  0.2236204E-005  0.2048664E+04  0.7818608E-02  0.8584200E-01
         -1   -1    0    0    0  501 -0.00000000000E+00  0.00000000000E+00  0.46500912311E+03  0.46500912311E+03  0.00000000000E+00 0.  1.
          1   -1    0    0  501    0  0.00000000000E+00 -0.00000000000E+00 -0.22564213801E+04  0.22564213801E+04  0.00000000000E+00 0. -1.
         23    2    1    2    0    0 -0.72038551401E+02 -0.97809433321E+03 -0.12804605351E+04  0.16155689659E+04  0.92875315152E+02 0.  0.
         13    1    3    3    0    0 -0.24165098396E+02 -0.47405009664E+03 -0.69380777008E+03  0.84064062948E+03  0.00000000000E+00 0. -1.
        -13    1    3    3    0    0 -0.47873453004E+02 -0.50404423657E+03 -0.58665276500E+03  0.77492833643E+03  0.00000000000E+00 0.  1.
         22    1    1    2    0    0  0.72038551401E+02  0.97809433321E+03 -0.51095172188E+03  0.11058615373E+04  0.00000000000E+00 0.  1.
<mgrwt>
<rscale>  0 0.20486645E+04</rscale>
<asrwt>0</asrwt>
<pdfrwt beam="1">  1        1 0.34714175E+00 0.20486645E+04</pdfrwt>
<pdfrwt beam="2">  1       -1 0.71539865E-01 0.20486645E+04</pdfrwt>
<totfact> 0.36329453E+00</totfact>
</mgrwt>
</event>
<event>
 6    1  0.2236204E-005  0.2119420E+04  0.7818608E-02  0.8552737E-01
         -2   -1    0    0    0  501 -0.00000000000E+00  0.00000000000E+00  0.54416444748E+03  0.54416444748E+03  0.00000000000E+00 0.  1.
          2   -1    0    0  501    0  0.00000000000E+00 -0.00000000000E+00 -0.20636870136E+04  0.20636870136E+04  0.00000000000E+00 0. -1.
         23    2    1    2    0    0 -0.34225010804E+02  0.57490325821E+03  0.33056724631E+03  0.67019374577E+03  0.90552994789E+02 0.  0.
         11    1    3    3    0    0 -0.65366641685E+02  0.37240950022E+03  0.21178021679E+03  0.43337338857E+03  0.00000000000E+00 0. -1.
        -11    1    3    3    0    0  0.31141630880E+02  0.20249375799E+03  0.11878702953E+03  0.23682035719E+03  0.00000000000E+00 0.  1.
         22    1    1    2    0    0  0.34225010804E+02 -0.57490325821E+03 -0.18500898125E+04  0.19376577153E+04  0.00000000000E+00 0. -1.
<mgrwt>
<rscale>  0 0.21194198E+04</rscale>
<asrwt>0</asrwt>
<pdfrwt beam="1">  1        2 0.31749031E+00 0.21194198E+04</pdfrwt>
<pdfrwt beam="2">  1       -2 0.83717606E-01 0.21194198E+04</pdfrwt>
<totfact> 0.70652202E+00</totfact>
</mgrwt>
</event>
<event>
 6    1  0.2236204E-005  0.2074770E+04  0.7818608E-02  0.8572440E-01
         -2   -1    0    0    0  501 -0.00000000000E+00  0.00000000000E+00  0.76061985986E+03  0.76061985986E+03  0.00000000000E+00 0.  1.
          2   -1    0    0  501    0  0.00000000000E+00 -0.00000000000E+00 -0.14148560781E+04  0.14148560781E+04  0.00000000000E+00 0. -1.
         23    2    1    2    0    0  0.76062671054E+02 -0.94202611933E+03 -0.77112808187E+03  0.12231826811E+04  0.91316007247E+02 0.  0.
         13    1    3    3    0    0 -0.56653525032E+01 -0.19449538926E+03 -0.12104705165E+03  0.22915702341E+03  0.00000000000E+00 0.  1.
        -13    1    3    3    0    0  0.81728023557E+02 -0.74753073007E+03 -0.65008103022E+03  0.99402565766E+03  0.00000000000E+00 0. -1.
         22    1    1    2    0    0 -0.76062671054E+02  0.94202611933E+03  0.11689186358E+03  0.95229325694E+03  0.00000000000E+00 0.  1.
<mgrwt>
<rscale>  0 0.20747700E+04</rscale>
<asrwt>0</asrwt>
<pdfrwt beam="1">  1        2 0.21767017E+00 0.20747700E+04</pdfrwt>
<pdfrwt beam="2">  1       -2 0.11701844E+00 0.20747700E+04</pdfrwt>
<totfact> 0.74056821E+00</totfact>
</mgrwt>
</event>
<event>
 6    1  0.2236204E-005  0.3825401E+03  0.7818608E-02  0.1049999E+00
          1   -1    0    0  501    0  0.00000000000E+00  0.00000000000E+00  0.71512368475E+03  0.71512368475E+03  0.00000000000E+00 0. -1.
         -1   -1    0    0    0  501 -0.00000000000E+00 -0.00000000000E+00 -0.51157905521E+02  0.51157905521E+02  0.00000000000E+00 0.  1.
         23    2    1    2    0    0 -0.76286772139E+02  0.16188253382E+03  0.37081764639E+03  0.42282641976E+03  0.96181224867E+02 0.  0.
         13    1    3    3    0    0 -0.11029012104E+02  0.38995576629E+02  0.19212020631E+03  0.19634782346E+03  0.00000000000E+00 0.  1.
        -13    1    3    3    0    0 -0.65257760035E+02  0.12288695719E+03  0.17869744007E+03  0.22647859630E+03  0.00000000000E+00 0. -1.
         22    1    1    2    0    0  0.76286772139E+02 -0.16188253382E+03  0.29314813285E+03  0.34345517051E+03  0.00000000000E+00 0.  1.
<mgrwt>
<rscale>  0 0.38254009E+03</rscale>
<asrwt>0</asrwt>
<pdfrwt beam="1">  1        1 0.11001902E+00 0.38254009E+03</pdfrwt>
<pdfrwt beam="2">  1       -1 0.78704475E-02 0.38254009E+03</pdfrwt>
<totfact> 0.24192466E+03</totfact>
</mgrwt>
</event>
<event>
 6    1  0.3035340E-005  0.3247931E+04  0.7818608E-02  0.8176272E-01
         -2   -1    0    0    0  501 -0.00000000000E+00  0.00000000000E+00  0.99054445355E+03  0.99054445355E+03  0.00000000000E+00 0. -1.
          2   -1    0    0  501    0  0.00000000000E+00 -0.00000000000E+00 -0.26624395548E+04  0.26624395548E+04  0.00000000000E+00 0.  1.
         23    2    1    2    0    0  0.12392135722E+04 -0.98749922611E+03 -0.12299110694E+04  0.20079445305E+04  0.91405688172E+02 0.  0.
         11    1    3    3    0    0  0.60194530679E+03 -0.52021976571E+03 -0.57539246771E+03  0.98185704097E+03  0.00000000000E+00 0. -1.
        -11    1    3    3    0    0  0.63726826543E+03 -0.46727946040E+03 -0.65451860168E+03  0.10260874895E+04  0.00000000000E+00 0.  1.
         22    1    1    2    0    0 -0.12392135722E+04  0.98749922611E+03 -0.44198403182E+03  0.16450394778E+04  0.00000000000E+00 0. -1.
<mgrwt>
<rscale>  0 0.32479315E+04</rscale>
<asrwt>0</asrwt>
<pdfrwt beam="1">  1        2 0.40960608E+00 0.32479315E+04</pdfrwt>
<pdfrwt beam="2">  1       -2 0.15239146E+00 0.32479315E+04</pdfrwt>
<totfact> 0.67338029E-01</totfact>
</mgrwt>
</event>
<event>
 6    1  0.2236204E-005  0.1845043E+04  0.7818608E-02  0.8682706E-01
         -2   -1    0    0    0  501 -0.00000000000E+00  0.00000000000E+00  0.75407969076E+03  0.75407969076E+03  0.00000000000E+00 0.  1.
          2   -1    0    0  501    0  0.00000000000E+00 -0.00000000000E+00 -0.11285893964E+04  0.11285893964E+04  0.00000000000E+00 0. -1.
         23    2    1    2    0    0  0.24481814918E+03  0.49406024975E+03 -0.93997880146E+03  0.10928673685E+04  0.82264702827E+02 0.  0.
         13    1    3    3    0    0  0.60994110855E+02  0.60213622173E+02 -0.12704260480E+03  0.15325072688E+03  0.00000000000E+00 0.  1.
        -13    1    3    3    0    0  0.18382403833E+03  0.43384662758E+03 -0.81293619666E+03  0.93961664160E+03  0.00000000000E+00 0. -1.
         22    1    1    2    0    0 -0.24481814918E+03 -0.49406024975E+03  0.56546909580E+03  0.78980171870E+03  0.00000000000E+00 0.  1.
<mgrwt>
<rscale>  0 0.18450435E+04</rscale>
<asrwt>0</asrwt>
<pdfrwt beam="1">  1        2 0.17362914E+00 0.18450435E+04</pdfrwt>
<pdfrwt beam="2">  1       -2 0.11601226E+00 0.18450435E+04</pdfrwt>
<totfact> 0.11360314E+01</totfact>
</mgrwt>
</event>
<event>
 6    1  0.2236204E-005  0.1789223E+04  0.7818608E-02  0.8712052E-01
          2   -1    0    0  501    0  0.00000000000E+00  0.00000000000E+00  0.38772677165E+04  0.38772677165E+04  0.00000000000E+00 0. -1.
         -2   -1    0    0    0  501 -0.00000000000E+00 -0.00000000000E+00 -0.20641588766E+03  0.20641588766E+03  0.00000000000E+00 0.  1.
         23    2    1    2    0    0  0.26991894300E+03 -0.68975493598E+03  0.29759552970E+04  0.30680560654E+04  0.89665953207E+02 0.  0.
         13    1    3    3    0    0  0.15136628310E+03 -0.47217020758E+03  0.18634147543E+04  0.19282559485E+04  0.00000000000E+00 0. -1.
        -13    1    3    3    0    0  0.11855265990E+03 -0.21758472841E+03  0.11125405427E+04  0.11398001169E+04  0.00000000000E+00 0.  1.
         22    1    1    2    0    0 -0.26991894300E+03  0.68975493598E+03  0.69489653180E+03  0.10156275387E+04  0.00000000000E+00 0.  1.
<mgrwt>
<rscale>  0 0.17892229E+04</rscale>
<asrwt>0</asrwt>
<pdfrwt beam="1">  1        2 0.59650267E+00 0.17892229E+04</pdfrwt>
<pdfrwt beam="2">  1       -2 0.31756293E-01 0.17892229E+04</pdfrwt>
<totfact> 0.37784526E+00</totfact>
</mgrwt>
</event>
<event>
 6    1  0.2236204E-005  0.6494359E+03  0.7818608E-02  0.9807838E-01
         -2   -1    0    0    0  501 -0.00000000000E+00  0.00000000000E+00  0.11551582456E+03  0.11551582456E+03  0.00000000000E+00 0.  1.
          2   -1    0    0  501    0  0.00000000000E+00 -0.00000000000E+00 -0.91279055251E+03  0.91279055251E+03  0.00000000000E+00 0. -1.
         23    2    1    2    0    0  0.13682450855E+03  0.28754186038E+03 -0.40157360181E+03  0.52038842224E+03  0.90230176337E+02 0.  0.
         11    1    3    3    0    0  0.45299842405E+02  0.16702040226E+03 -0.16217524769E+03  0.23716808693E+03  0.00000000000E+00 0.  1.
        -11    1    3    3    0    0  0.91524666147E+02  0.12052145811E+03 -0.23939835412E+03  0.28322033531E+03  0.00000000000E+00 0. -1.
         22    1    1    2    0    0 -0.13682450855E+03 -0.28754186038E+03 -0.39570112614E+03  0.50791795483E+03  0.00000000000E+00 0. -1.
<mgrwt>
<rscale>  0 0.64943592E+03</rscale>
<asrwt>0</asrwt>
<pdfrwt beam="1">  1        2 0.14042932E+00 0.64943592E+03</pdfrwt>
<pdfrwt beam="2">  1       -2 0.17771665E-01 0.64943592E+03</pdfrwt>
<totfact> 0.75860373E+02</totfact>
</mgrwt>
</event>
<event>
 6    1  0.2236204E-005  0.2526406E+04  0.7818608E-02  0.8393638E-01
         -1   -1    0    0    0  501 -0.00000000000E+00  0.00000000000E+00  0.11762447870E+04  0.11762447870E+04  0.00000000000E+00 0. -1.
          1   -1    0    0  501    0  0.00000000000E+00 -0.00000000000E+00 -0.13565903172E+04  0.13565903172E+04  0.00000000000E+00 0.  1.
         23    2    1    2    0    0  0.10736728287E+04 -0.55514180467E+03  0.27182721263E+03  0.12423251447E+04  0.92336153484E+02 0.  0.
         11    1    3    3    0    0  0.89132880064E+03 -0.42633181943E+03  0.24045605444E+03  0.10168800152E+04  0.00000000000E+00 0. -1.
        -11    1    3    3    0    0  0.18234402806E+03 -0.12880998525E+03  0.31371158189E+02  0.22544512954E+03  0.00000000000E+00 0.  1.
         22    1    1    2    0    0 -0.10736728287E+04  0.55514180467E+03 -0.45217274281E+03  0.12905099596E+04  0.00000000000E+00 0.  1.
<mgrwt>
<rscale>  0 0.25264064E+04</rscale>
<asrwt>0</asrwt>
<pdfrwt beam="1">  1        1 0.20870620E+00 0.25264064E+04</pdfrwt>
<pdfrwt beam="2">  1       -1 0.18096074E+00 0.25264064E+04</pdfrwt>
<totfact> 0.14968967E+00</totfact>
</mgrwt>
</event>
<event>
 6    1  0.2236204E-005  0.4150777E+04  0.7818608E-02  0.7974802E-01
          2   -1    0    0  501    0  0.00000000000E+00  0.00000000000E+00  0.12364071334E+04  0.12364071334E+04  0.00000000000E+00 0. -1.
         -2   -1    0    0    0  501 -0.00000000000E+00 -0.00000000000E+00 -0.34836727571E+04  0.34836727571E+04  0.00000000000E+00 0.  1.
         23    2    1    2    0    0  0.16672697393E+04 -0.11448850014E+04 -0.60031751157E+03  0.21118260427E+04  0.94223511555E+02 0.  0.
         13    1    3    3    0    0  0.10294280609E+04 -0.67704881576E+03 -0.40601699335E+03  0.12972921916E+04  0.00000000000E+00 0.  1.
        -13    1    3    3    0    0  0.63784167846E+03 -0.46783618560E+03 -0.19430051822E+03  0.81453385118E+03  0.00000000000E+00 0. -1.
         22    1    1    2    0    0 -0.16672697393E+04  0.11448850014E+04 -0.16469481122E+04  0.26082538477E+04  0.00000000000E+00 0.  1.
<mgrwt>
<rscale>  0 0.41507772E+04</rscale>
<asrwt>0</asrwt>
<pdfrwt beam="1">  1        2 0.19021649E+00 0.41507772E+04</pdfrwt>
<pdfrwt beam="2">  1       -2 0.53594965E+00 0.41507772E+04</pdfrwt>
<totfact> 0.14276755E-02</totfact>
</mgrwt>
</event>
<event>
 6    1  0.2236204E-005  0.3219478E+04  0.7818608E-02  0.8183692E-01
         -1   -1    0    0    0  501 -0.00000000000E+00  0.00000000000E+00  0.14383448599E+04  0.14383448599E+04  0.00000000000E+00 0.  1.
          1   -1    0    0  501    0  0.00000000000E+00 -0.00000000000E+00 -0.18015566239E+04  0.18015566239E+04  0.00000000000E+00 0. -1.
         23    2    1    2    0    0 -0.13522042175E+04  0.86674219066E+03 -0.97256387690E+02  0.16118871923E+04  0.94990762448E+02 0.  0.
         13    1    3    3    0    0 -0.21101048543E+03  0.14151350389E+03 -0.49871108451E+02  0.25891818052E+03  0.00000000000E+00 0.  1.
        -13    1    3    3    0    0 -0.11411937321E+04  0.72522868677E+03 -0.47385279239E+02  0.13529690118E+04  0.00000000000E+00 0. -1.
         22    1    1    2    0    0  0.13522042175E+04 -0.86674219066E+03 -0.26595537636E+03  0.16280142914E+04  0.00000000000E+00 0.  1.
<mgrwt>
<rscale>  0 0.32194780E+04</rscale>
<asrwt>0</asrwt>
<pdfrwt beam="1">  1        1 0.27716256E+00 0.32194780E+04</pdfrwt>
<pdfrwt beam="2">  1       -1 0.22128382E+00 0.32194780E+04</pdfrwt>
<totfact> 0.36627598E-01</totfact>
</mgrwt>
</event>
<event>
 6    1  0.2236204E-005  0.5453229E+04  0.7818608E-02  0.7762158E-01
          2   -1    0    0  501    0  0.00000000000E+00  0.00000000000E+00  0.17532135684E+04  0.17532135684E+04  0.00000000000E+00 0. -1.
         -2   -1    0    0    0  501 -0.00000000000E+00 -0.00000000000E+00 -0.42404564581E+04  0.42404564581E+04  0.00000000000E+00 0.  1.
         23    2    1    2    0    0 -0.98557381384E+03 -0.22211562312E+04  0.11438452358E+03  0.24337043043E+04  0.70299896381E+02 0.  0.
         13    1    3    3    0    0 -0.14901994220E+03 -0.32735350056E+03 -0.77997451123E+01  0.35976116178E+03  0.00000000000E+00 0.  1.
        -13    1    3    3    0    0 -0.83655387164E+03 -0.18938027307E+04  0.12218426869E+03  0.20739431425E+04  0.00000000000E+00 0. -1.
         22    1    1    2    0    0  0.98557381384E+03  0.22211562312E+04 -0.26016274132E+04  0.35599657222E+04  0.00000000000E+00 0.  1.
<mgrwt>
<rscale>  0 0.54532287E+04</rscale>
<asrwt>0</asrwt>
<pdfrwt beam="1">  1        2 0.26972517E+00 0.54532287E+04</pdfrwt>
<pdfrwt beam="2">  1       -2 0.65237791E+00 0.54532287E+04</pdfrwt>
<totfact> 0.21552731E-03</totfact>
</mgrwt>
</event>
<event>
 6    1  0.2236204E-005  0.7098503E+03  0.7818608E-02  0.9700534E-01
          2   -1    0    0  501    0  0.00000000000E+00  0.00000000000E+00  0.53209742364E+03  0.53209742364E+03  0.00000000000E+00 0. -1.
         -2   -1    0    0    0  501 -0.00000000000E+00 -0.00000000000E+00 -0.23674586669E+03  0.23674586669E+03  0.00000000000E+00 0.  1.
         23    2    1    2    0    0 -0.26462654060E+03  0.22636091922E+03  0.14601027432E+03  0.38993790579E+03  0.97293876597E+02 0.  0.
         11    1    3    3    0    0 -0.56927571047E+02  0.20404979537E+02 -0.51391159017E+01  0.60692026227E+02  0.00000000000E+00 0. -1.
        -11    1    3    3    0    0 -0.20769896956E+03  0.20595593968E+03  0.15114939022E+03  0.32924587956E+03  0.00000000000E+00 0.  1.
         22    1    1    2    0    0  0.26462654060E+03 -0.22636091922E+03  0.14934128262E+03  0.37890538454E+03  0.00000000000E+00 0.  1.
<mgrwt>
<rscale>  0 0.70985031E+03</rscale>
<asrwt>0</asrwt>
<pdfrwt beam="1">  1        2 0.81861142E-01 0.70985031E+03</pdfrwt>
<pdfrwt beam="2">  1       -2 0.36422441E-01 0.70985031E+03</pdfrwt>
<totfact> 0.40918525E+02</totfact>
</mgrwt>
</event>
<event>
 6    1  0.2236204E-005  0.1843757E+04  0.7818608E-02  0.8683370E-01
          2   -1    0    0  501    0  0.00000000000E+00  0.00000000000E+00  0.25967190315E+04  0.25967190315E+04  0.00000000000E+00 0. -1.
         -2   -1    0    0    0  501 -0.00000000000E+00 -0.00000000000E+00 -0.32728228587E+03  0.32728228587E+03  0.00000000000E+00 0.  1.
         23    2    1    2    0    0 -0.35922860062E+03 -0.16522133216E+03  0.24544658894E+04  0.24874477008E+04  0.81547444201E+02 0.  0.
         11    1    3    3    0    0 -0.18195425630E+03 -0.12638926657E+03  0.12758127901E+04  0.12949053531E+04  0.00000000000E+00 0.  1.
        -11    1    3    3    0    0 -0.17727434432E+03 -0.38832065590E+02  0.11786530994E+04  0.11925423477E+04  0.00000000000E+00 0. -1.
         22    1    1    2    0    0  0.35922860062E+03  0.16522133216E+03 -0.18502914379E+03  0.43655361659E+03  0.00000000000E+00 0.  1.
<mgrwt>
<rscale>  0 0.18437572E+04</rscale>
<asrwt>0</asrwt>
<pdfrwt beam="1">  1        2 0.39949522E+00 0.18437572E+04</pdfrwt>
<pdfrwt beam="2">  1       -2 0.50351123E-01 0.18437572E+04</pdfrwt>
<totfact> 0.10742526E+01</totfact>
</mgrwt>
</event>
<event>
 6    1  0.2236204E-005  0.3639600E+03  0.7818608E-02  0.1057027E+00
          2   -1    0    0  501    0  0.00000000000E+00  0.00000000000E+00  0.88856372224E+02  0.88856372224E+02  0.00000000000E+00 0.  1.
         -2   -1    0    0    0  501 -0.00000000000E+00 -0.00000000000E+00 -0.37269951333E+03  0.37269951333E+03  0.00000000000E+00 0. -1.
         23    2    1    2    0    0  0.59995255158E+02 -0.13882677067E+02 -0.35263991395E+03  0.36922411789E+03  0.90439930122E+02 0.  0.
         13    1    3    3    0    0  0.61487351450E+02 -0.31759183192E+02 -0.14349712109E+03  0.15931341395E+03  0.00000000000E+00 0. -1.
        -13    1    3    3    0    0 -0.14920962922E+01  0.17876506124E+02 -0.20914279286E+03  0.20991070394E+03  0.00000000000E+00 0.  1.
         22    1    1    2    0    0 -0.59995255158E+02  0.13882677067E+02  0.68796772848E+02  0.92331767655E+02  0.00000000000E+00 0.  1.
<mgrwt>
<rscale>  0 0.36396003E+03</rscale>
<asrwt>0</asrwt>
<pdfrwt beam="1">  1        2 0.13670211E-01 0.36396003E+03</pdfrwt>
<pdfrwt beam="2">  1       -2 0.57338386E-01 0.36396003E+03</pdfrwt>
<totfact> 0.12739268E+03</totfact>
</mgrwt>
</event>
<event>
 6    1  0.2236204E-005  0.1189916E+04  0.7818608E-02  0.9121729E-01
         -2   -1    0    0    0  501 -0.00000000000E+00  0.00000000000E+00  0.80608123093E+03  0.80608123093E+03  0.00000000000E+00 0.  1.
          2   -1    0    0  501    0  0.00000000000E+00 -0.00000000000E+00 -0.43913079070E+03  0.43913079070E+03  0.00000000000E+00 0. -1.
         23    2    1    2    0    0  0.16711088214E+03 -0.30726742852E+03 -0.31403517508E+03  0.47965292672E+03  0.95443802121E+02 0.  0.
         11    1    3    3    0    0  0.81186879199E+02 -0.17462163730E+03 -0.23224893480E+03  0.30170116553E+03  0.00000000000E+00 0. -1.
        -11    1    3    3    0    0  0.85924002938E+02 -0.13264579122E+03 -0.81786240274E+02  0.17795176118E+03  0.00000000000E+00 0.  1.
         22    1    1    2    0    0 -0.16711088214E+03  0.30726742852E+03  0.68098561530E+03  0.76555909491E+03  0.00000000000E+00 0.  1.
<mgrwt>
<rscale>  0 0.11899161E+04</rscale>
<asrwt>0</asrwt>
<pdfrwt beam="1">  1        2 0.67558583E-01 0.11899161E+04</pdfrwt>
<pdfrwt beam="2">  1       -2 0.12401250E+00 0.11899161E+04</pdfrwt>
<totfact> 0.34525030E+01</totfact>
</mgrwt>
</event>
<event>
 6    1  0.2236204E-005  0.1180301E+04  0.7818608E-02  0.9130276E-01
         -2   -1    0    0    0  501 -0.00000000000E+00  0.00000000000E+00  0.58993162790E+03  0.58993162790E+03  0.00000000000E+00 0.  1.
          2   -1    0    0  501    0  0.00000000000E+00 -0.00000000000E+00 -0.59036897332E+03  0.59036897332E+03  0.00000000000E+00 0. -1.
         23    2    1    2    0    0 -0.38703116272E+03  0.25686596115E+03 -0.35862774097E+03  0.59372272713E+03  0.90108696608E+02 0.  0.
         11    1    3    3    0    0 -0.26522796661E+03  0.15258868333E+03 -0.28156722536E+03  0.41582362000E+03  0.00000000000E+00 0. -1.
        -11    1    3    3    0    0 -0.12180319611E+03  0.10427727782E+03 -0.77060515606E+02  0.17789910713E+03  0.00000000000E+00 0.  1.
         22    1    1    2    0    0  0.38703116272E+03 -0.25686596115E+03  0.35819039555E+03  0.58657787409E+03  0.00000000000E+00 0.  1.
<mgrwt>
<rscale>  0 0.11803005E+04</rscale>
<asrwt>0</asrwt>
<pdfrwt beam="1">  1        2 0.90825996E-01 0.11803005E+04</pdfrwt>
<pdfrwt beam="2">  1       -2 0.90758712E-01 0.11803005E+04</pdfrwt>
<totfact> 0.51815318E+01</totfact>
</mgrwt>
</event>
<event>
 6    1  0.2236204E-005  0.1825754E+04  0.7818608E-02  0.8692722E-01
          1   -1    0    0  501    0  0.00000000000E+00  0.00000000000E+00  0.17091389108E+04  0.17091389108E+04  0.00000000000E+00 0.  1.
         -1   -1    0    0    0  501 -0.00000000000E+00 -0.00000000000E+00 -0.48758159180E+03  0.48758159180E+03  0.00000000000E+00 0. -1.
         23    2    1    2    0    0  0.24488057546E+03  0.70802497126E+03 -0.10363002829E+02  0.75488364100E+03  0.92065538872E+02 0.  0.
         11    1    3    3    0    0  0.19431103236E+03  0.57276238068E+03  0.27984318016E+02  0.60547224881E+03  0.00000000000E+00 0.  1.
        -11    1    3    3    0    0  0.50569543099E+02  0.13526259058E+03 -0.38347320845E+02  0.14941139219E+03  0.00000000000E+00 0. -1.
         22    1    1    2    0    0 -0.24488057546E+03 -0.70802497126E+03  0.12319203219E+04  0.14418368616E+04  0.00000000000E+00 0.  1.
<mgrwt>
<rscale>  0 0.18257543E+04</rscale>
<asrwt>0</asrwt>
<pdfrwt beam="1">  1        1 0.26294445E+00 0.18257543E+04</pdfrwt>
<pdfrwt beam="2">  1       -1 0.75012553E-01 0.18257543E+04</pdfrwt>
<totfact> 0.79051637E+00</totfact>
</mgrwt>
</event>
<event>
 6    1  0.2236204E-005  0.1028623E+04  0.7818608E-02  0.9277697E-01
          2   -1    0    0  501    0  0.00000000000E+00  0.00000000000E+00  0.28618568489E+03  0.28618568489E+03  0.00000000000E+00 0. -1.
         -2   -1    0    0    0  501 -0.00000000000E+00 -0.00000000000E+00 -0.92428155354E+03  0.92428155354E+03  0.00000000000E+00 0.  1.
         23    2    1    2    0    0  0.20337129593E+02  0.12018884574E+03 -0.90461823279E+03  0.91739194422E+03  0.91732626396E+02 0.  0.
         13    1    3    3    0    0 -0.55883199221E+01  0.93318739762E+02 -0.37566296201E+03  0.38712049486E+03  0.00000000000E+00 0. -1.
        -13    1    3    3    0    0  0.25925449515E+02  0.26870105982E+02 -0.52895527078E+03  0.53027144937E+03  0.00000000000E+00 0.  1.
         22    1    1    2    0    0 -0.20337129593E+02 -0.12018884574E+03  0.26652236414E+03  0.29307529420E+03  0.00000000000E+00 0. -1.
<mgrwt>
<rscale>  0 0.10286227E+04</rscale>
<asrwt>0</asrwt>
<pdfrwt beam="1">  1        2 0.44028566E-01 0.10286227E+04</pdfrwt>
<pdfrwt beam="2">  1       -2 0.14219716E+00 0.10286227E+04</pdfrwt>
<totfact> 0.39747694E+01</totfact>
</mgrwt>
</event>
<event>
 6    1  0.2236204E-005  0.1629762E+04  0.7818608E-02  0.8802470E-01
          2   -1    0    0  501    0  0.00000000000E+00  0.00000000000E+00  0.41990901694E+03  0.41990901694E+03  0.00000000000E+00 0. -1.
         -2   -1    0    0    0  501 -0.00000000000E+00 -0.00000000000E+00 -0.15813679514E+04  0.15813679514E+04  0.00000000000E+00 0.  1.
         23    2    1    2    0    0  0.13901721851E+03 -0.79707798221E+03 -0.49463533617E+03  0.95279577728E+03  0.92176898650E+02 0.  0.
         13    1    3    3    0    0  0.15085545019E+03 -0.74112071964E+03 -0.47045083478E+03  0.89069707301E+03  0.00000000000E+00 0.  1.
        -13    1    3    3    0    0 -0.11838231684E+02 -0.55957262574E+02 -0.24184501397E+02  0.62098704270E+02  0.00000000000E+00 0. -1.
         22    1    1    2    0    0 -0.13901721851E+03  0.79707798221E+03 -0.66682359825E+03  0.10484811910E+04  0.00000000000E+00 0. -1.
<mgrwt>
<rscale>  0 0.16297615E+04</rscale>
<asrwt>0</asrwt>
<pdfrwt beam="1">  1        2 0.64601385E-01 0.16297615E+04</pdfrwt>
<pdfrwt beam="2">  1       -2 0.24328738E+00 0.16297615E+04</pdfrwt>
<totfact> 0.50896888E+00</totfact>
</mgrwt>
</event>
<event>
 6    1  0.2236204E-005  0.4874746E+04  0.7818608E-02  0.7848125E-01
          2   -1    0    0  501    0  0.00000000000E+00  0.00000000000E+00  0.35179948688E+04  0.35179948688E+04  0.00000000000E+00 0. -1.
         -2   -1    0    0    0  501 -0.00000000000E+00 -0.00000000000E+00 -0.16886852993E+04  0.16886852993E+04  0.00000000000E+00 0.  1.
         23    2    1    2    0    0 -0.77661312038E+03  0.14473649306E+04 -0.10071960620E+04  0.19289130350E+04  0.90930787843E+02 0.  0.
         11    1    3    3    0    0 -0.13422225247E+03  0.32905915247E+03 -0.21464133040E+03  0.41517037418E+03  0.00000000000E+00 0. -1.
        -11    1    3    3    0    0 -0.64239086792E+03  0.11183057781E+04 -0.79255473165E+03  0.15137426608E+04  0.00000000000E+00 0.  1.
         22    1    1    2    0    0  0.77661312038E+03 -0.14473649306E+04  0.28365056316E+04  0.32777671331E+04  0.00000000000E+00 0. -1.
<mgrwt>
<rscale>  0 0.48747456E+04</rscale>
<asrwt>0</asrwt>
<pdfrwt beam="1">  1        2 0.54122998E+00 0.48747456E+04</pdfrwt>
<pdfrwt beam="2">  1       -2 0.25979774E+00 0.48747456E+04</pdfrwt>
<totfact> 0.32421366E-02</totfact>
</mgrwt>
</event>
<event>
 6    1  0.2236204E-005  0.1706058E+04  0.7818608E-02  0.8757917E-01
          2   -1    0    0  501    0  0.00000000000E+00  0.00000000000E+00  0.18128512956E+04  0.18128512956E+04  0.00000000000E+00 0.  1.
         -2   -1    0    0    0  501 -0.00000000000E+00 -0.00000000000E+00 -0.40138903230E+03  0.40138903230E+03  0.00000000000E+00 0. -1.
         23    2    1    2    0    0 -0.38922765066E+02  0.31839240131E+03 -0.31464265634E+03  0.45858463942E+03  0.91712417229E+02 0.  0.
         13    1    3    3    0    0 -0.56152666939E+02  0.10378594769E+03 -0.10193136653E+03  0.15593155045E+03  0.00000000000E+00 0. -1.
        -13    1    3    3    0    0  0.17229901873E+02  0.21460645362E+03 -0.21271128982E+03  0.30265308898E+03  0.00000000000E+00 0.  1.
         22    1    1    2    0    0  0.38922765066E+02 -0.31839240131E+03  0.17261049196E+04  0.17556556885E+04  0.00000000000E+00 0.  1.
<mgrwt>
<rscale>  0 0.17060582E+04</rscale>
<asrwt>0</asrwt>
<pdfrwt beam="1">  1        2 0.27890019E+00 0.17060582E+04</pdfrwt>
<pdfrwt beam="2">  1       -2 0.61752160E-01 0.17060582E+04</pdfrwt>
<totfact> 0.19667587E+01</totfact>
</mgrwt>
</event>
<event>
 6    1  0.2236204E-005  0.4787954E+03  0.7818608E-02  0.1019467E+00
         -2   -1    0    0    0  501 -0.00000000000E+00  0.00000000000E+00  0.13287378481E+03  0.13287378481E+03  0.00000000000E+00 0.  1.
          2   -1    0    0  501    0  0.00000000000E+00 -0.00000000000E+00 -0.43132102679E+03  0.43132102679E+03  0.00000000000E+00 0. -1.
         23    2    1    2    0    0 -0.11961120133E+03 -0.15008128671E+03 -0.31996316075E+01  0.21205509000E+03  0.90143726627E+02 0.  0.
         11    1    3    3    0    0 -0.81905418077E+02 -0.64713575198E+02 -0.39931430253E+02  0.11176253150E+03  0.00000000000E+00 0. -1.
        -11    1    3    3    0    0 -0.37705783249E+02 -0.85367711508E+02  0.36731798646E+02  0.10029255850E+03  0.00000000000E+00 0.  1.
         22    1    1    2    0    0  0.11961120133E+03  0.15008128671E+03 -0.29524761036E+03  0.35213972160E+03  0.00000000000E+00 0. -1.
<mgrwt>
<rscale>  0 0.47879539E+03</rscale>
<asrwt>0</asrwt>
<pdfrwt beam="1">  1        2 0.66357082E-01 0.47879539E+03</pdfrwt>
<pdfrwt beam="2">  1       -2 0.20442121E-01 0.47879539E+03</pdfrwt>
<totfact> 0.14955341E+03</totfact>
</mgrwt>
</event>
<event>
 6    1  0.2236204E-005  0.1694448E+04  0.7818608E-02  0.8764537E-01
          2   -1    0    0  501    0  0.00000000000E+00  0.00000000000E+00  0.18961161151E+04  0.18961161151E+04  0.00000000000E+00 0. -1.
         -2   -1    0    0    0  501 -0.00000000000E+00 -0.00000000000E+00 -0.37855735982E+03  0.37855735982E+03  0.00000000000E+00 0.  1.
         23    2    1    2    0    0  0.24518458366E+03  0.29674385083E+03 -0.24859442470E+03  0.46705917750E+03  0.90402954725E+02 0.  0.
         13    1    3    3    0    0  0.16960221678E+03  0.19299311456E+03 -0.21331216952E+03  0.33393612544E+03  0.00000000000E+00 0. -1.
        -13    1    3    3    0    0  0.75582366883E+02  0.10375073627E+03 -0.35282255174E+02  0.13312305206E+03  0.00000000000E+00 0.  1.
         22    1    1    2    0    0 -0.24518458366E+03 -0.29674385083E+03  0.17661531799E+04  0.18076142974E+04  0.00000000000E+00 0. -1.
<mgrwt>
<rscale>  0 0.16944482E+04</rscale>
<asrwt>0</asrwt>
<pdfrwt beam="1">  1        2 0.29171016E+00 0.16944482E+04</pdfrwt>
<pdfrwt beam="2">  1       -2 0.58239595E-01 0.16944482E+04</pdfrwt>
<totfact> 0.20035355E+01</totfact>
</mgrwt>
</event>
<event>
 6    1  0.2306691E-005  0.2953513E+04  0.7818608E-02  0.8257132E-01
          2   -1    0    0  501    0  0.00000000000E+00  0.00000000000E+00  0.19194107132E+04  0.19194107132E+04  0.00000000000E+00 0. -1.
         -2   -1    0    0    0  501 -0.00000000000E+00 -0.00000000000E+00 -0.11361870668E+04  0.11361870668E+04  0.00000000000E+00 0.  1.
         23    2    1    2    0    0  0.24708304624E+03 -0.10528379559E+04  0.14301514606E+04  0.17954258117E+04  0.93289076441E+02 0.  0.
         11    1    3    3    0    0  0.21250711890E+03 -0.75113833418E+03  0.10662754828E+04  0.13214807898E+04  0.00000000000E+00 0.  1.
        -11    1    3    3    0    0  0.34575927343E+02 -0.30169962176E+03  0.36387597782E+03  0.47394502187E+03  0.00000000000E+00 0. -1.
         22    1    1    2    0    0 -0.24708304624E+03  0.10528379559E+04 -0.64692781416E+03  0.12601719684E+04  0.00000000000E+00 0.  1.
<mgrwt>
<rscale>  0 0.29535129E+04</rscale>
<asrwt>0</asrwt>
<pdfrwt beam="1">  1        2 0.29529396E+00 0.29535129E+04</pdfrwt>
<pdfrwt beam="2">  1       -2 0.17479801E+00 0.29535129E+04</pdfrwt>
<totfact> 0.12548186E+00</totfact>
</mgrwt>
</event>
<event>
 6    1  0.2236204E-005  0.3240133E+04  0.7818608E-02  0.8178298E-01
         -2   -1    0    0    0  501 -0.00000000000E+00  0.00000000000E+00  0.66263733821E+03  0.66263733821E+03  0.00000000000E+00 0.  1.
          2   -1    0    0  501    0  0.00000000000E+00 -0.00000000000E+00 -0.39608618838E+04  0.39608618838E+04  0.00000000000E+00 0. -1.
         23    2    1    2    0    0 -0.15759707734E+04 -0.36372146193E+03 -0.15548955045E+04  0.22454383889E+04  0.91194013009E+02 0.  0.
         11    1    3    3    0    0 -0.75395092564E+03 -0.21216287367E+03 -0.71566791503E+03  0.10609597767E+04  0.00000000000E+00 0.  1.
        -11    1    3    3    0    0 -0.82201984775E+03 -0.15155858826E+03 -0.83922758949E+03  0.11844786122E+04  0.00000000000E+00 0. -1.
         22    1    1    2    0    0  0.15759707734E+04  0.36372146193E+03 -0.17433290411E+04  0.23780608331E+04  0.00000000000E+00 0. -1.
<mgrwt>
<rscale>  0 0.32401327E+04</rscale>
<asrwt>0</asrwt>
<pdfrwt beam="1">  1        2 0.60936338E+00 0.32401327E+04</pdfrwt>
<pdfrwt beam="2">  1       -2 0.10194420E+00 0.32401327E+04</pdfrwt>
<totfact> 0.24314957E-01</totfact>
</mgrwt>
</event>
<event>
 6    1  0.2236204E-005  0.1138830E+04  0.7818608E-02  0.9168151E-01
          2   -1    0    0  501    0  0.00000000000E+00  0.00000000000E+00  0.63018541944E+03  0.63018541944E+03  0.00000000000E+00 0. -1.
         -2   -1    0    0    0  501 -0.00000000000E+00 -0.00000000000E+00 -0.51450456855E+03  0.51450456855E+03  0.00000000000E+00 0.  1.
         23    2    1    2    0    0  0.22953995909E+03 -0.44117133238E+03 -0.21374797764E+03  0.54816329923E+03  0.86452688466E+02 0.  0.
         11    1    3    3    0    0  0.16782618425E+03 -0.31453125913E+03 -0.10960868479E+03  0.37297400026E+03  0.00000000000E+00 0.  1.
        -11    1    3    3    0    0  0.61713774844E+02 -0.12664007325E+03 -0.10413929285E+03  0.17518929897E+03  0.00000000000E+00 0. -1.
         22    1    1    2    0    0 -0.22953995909E+03  0.44117133238E+03  0.32942882852E+03  0.59652668876E+03  0.00000000000E+00 0. -1.
<mgrwt>
<rscale>  0 0.11388297E+04</rscale>
<asrwt>0</asrwt>
<pdfrwt beam="1">  1        2 0.96951603E-01 0.11388297E+04</pdfrwt>
<pdfrwt beam="2">  1       -2 0.79154549E-01 0.11388297E+04</pdfrwt>
<totfact> 0.65546160E+01</totfact>
</mgrwt>
</event>
<event>
 6    1  0.2236204E-005  0.1956647E+04  0.7818608E-02  0.8627162E-01
         -2   -1    0    0    0  501 -0.00000000000E+00  0.00000000000E+00  0.29864765966E+03  0.29864765966E+03  0.00000000000E+00 0.  1.
          2   -1    0    0  501    0  0.00000000000E+00 -0.00000000000E+00 -0.32048348976E+04  0.32048348976E+04  0.00000000000E+00 0. -1.
         23    2    1    2    0    0  0.28178130363E+03  0.67190949544E+03 -0.29287090625E+03  0.79049797886E+03  0.90832888967E+02 0.  0.
         13    1    3    3    0    0  0.14687625552E+03  0.26312672360E+03 -0.15240698498E+03  0.33769245798E+03  0.00000000000E+00 0. -1.
        -13    1    3    3    0    0  0.13490504811E+03  0.40878277184E+03 -0.14046392127E+03  0.45280552088E+03  0.00000000000E+00 0.  1.
         22    1    1    2    0    0 -0.28178130363E+03 -0.67190949544E+03 -0.26133163317E+04  0.27129845784E+04  0.00000000000E+00 0. -1.
<mgrwt>
<rscale>  0 0.19566466E+04</rscale>
<asrwt>0</asrwt>
<pdfrwt beam="1">  1        2 0.49305154E+00 0.19566466E+04</pdfrwt>
<pdfrwt beam="2">  1       -2 0.45945792E-01 0.19566466E+04</pdfrwt>
<totfact> 0.54122289E+00</totfact>
</mgrwt>
</event>
<event>
 6    1  0.2236204E-005  0.2240510E+04  0.7818608E-02  0.8501753E-01
         -2   -1    0    0    0  501 -0.00000000000E+00  0.00000000000E+00  0.10034729540E+04  0.10034729540E+04  0.00000000000E+00 0.  1.
          2   -1    0    0  501    0  0.00000000000E+00 -0.00000000000E+00 -0.12506283415E+04  0.12506283415E+04  0.00000000000E+00 0. -1.
         23    2    1    2    0    0 -0.31078562028E+03  0.65755657151E+03  0.73111655955E+03  0.10350917185E+04  0.88966822532E+02 0.  0.
         13    1    3    3    0    0 -0.43479164670E+02  0.10851858464E+03  0.75630943964E+02  0.13923634819E+03  0.00000000000E+00 0. -1.
        -13    1    3    3    0    0 -0.26730645561E+03  0.54903798687E+03  0.65548561559E+03  0.89585537029E+03  0.00000000000E+00 0.  1.
         22    1    1    2    0    0  0.31078562028E+03 -0.65755657151E+03 -0.97827194701E+03  0.12190095770E+04  0.00000000000E+00 0. -1.
<mgrwt>
<rscale>  0 0.22405104E+04</rscale>
<asrwt>0</asrwt>
<pdfrwt beam="1">  1        2 0.19240436E+00 0.22405104E+04</pdfrwt>
<pdfrwt beam="2">  1       -2 0.15438045E+00 0.22405104E+04</pdfrwt>
<totfact> 0.44680032E+00</totfact>
</mgrwt>
</event>
<event>
 6    1  0.2236204E-005  0.4936549E+04  0.7818608E-02  0.7838370E-01
         -2   -1    0    0    0  501 -0.00000000000E+00  0.00000000000E+00  0.23621622871E+04  0.23621622871E+04  0.00000000000E+00 0.  1.
          2   -1    0    0  501    0  0.00000000000E+00 -0.00000000000E+00 -0.25791533473E+04  0.25791533473E+04  0.00000000000E+00 0. -1.
         23    2    1    2    0    0 -0.15636572903E+03  0.21176740131E+04  0.11493186389E+04  0.24162818404E+04  0.92147336146E+02 0.  0.
         13    1    3    3    0    0 -0.16368994489E+02  0.53380086502E+03  0.32651759515E+03  0.62595930173E+03  0.00000000000E+00 0.  1.
        -13    1    3    3    0    0 -0.13999673454E+03  0.15838731481E+04  0.82280104379E+03  0.17903225387E+04  0.00000000000E+00 0. -1.
         22    1    1    2    0    0  0.15636572903E+03 -0.21176740131E+04 -0.13663096991E+04  0.25250337940E+04  0.00000000000E+00 0. -1.
<mgrwt>
<rscale>  0 0.49365489E+04</rscale>
<asrwt>0</asrwt>
<pdfrwt beam="1">  1        2 0.39679283E+00 0.49365489E+04</pdfrwt>
<pdfrwt beam="2">  1       -2 0.36340958E+00 0.49365489E+04</pdfrwt>
<totfact> 0.29301958E-02</totfact>
</mgrwt>
</event>
<event>
 6    1  0.2236204E-005  0.2848108E+04  0.7818608E-02  0.8288486E-01
         -1   -1    0    0    0  501 -0.00000000000E+00  0.00000000000E+00  0.89383185493E+03  0.89383185493E+03  0.00000000000E+00 0.  1.
          1   -1    0    0  501    0  0.00000000000E+00 -0.00000000000E+00 -0.22688050780E+04  0.22688050780E+04  0.00000000000E+00 0. -1.
         23    2    1    2    0    0 -0.20194209895E+03  0.13726996364E+04 -0.33880185447E+03  0.14309510468E+04  0.88030101230E+02 0.  0.
         11    1    3    3    0    0 -0.13754169981E+03  0.82718989118E+03 -0.24585077163E+03  0.87384405769E+03  0.00000000000E+00 0. -1.
        -11    1    3    3    0    0 -0.64400399144E+02  0.54550974520E+03 -0.92951082837E+02  0.55710698911E+03  0.00000000000E+00 0.  1.
         22    1    1    2    0    0  0.20194209895E+03 -0.13726996364E+04 -0.10361713686E+04  0.17316858861E+04  0.00000000000E+00 0. -1.
<mgrwt>
<rscale>  0 0.28481083E+04</rscale>
<asrwt>0</asrwt>
<pdfrwt beam="1">  1        1 0.34904693E+00 0.28481083E+04</pdfrwt>
<pdfrwt beam="2">  1       -1 0.13751260E+00 0.28481083E+04</pdfrwt>
<totfact> 0.74015939E-01</totfact>
</mgrwt>
</event>
<event>
 6    1  0.2532648E-005  0.3202913E+04  0.7818608E-02  0.8188048E-01
         -2   -1    0    0    0  501 -0.00000000000E+00  0.00000000000E+00  0.11742805038E+04  0.11742805038E+04  0.00000000000E+00 0.  1.
          2   -1    0    0  501    0  0.00000000000E+00 -0.00000000000E+00 -0.21840285650E+04  0.21840285650E+04  0.00000000000E+00 0. -1.
         23    2    1    2    0    0 -0.10028167725E+04  0.38407757211E+03 -0.17489418180E+04  0.20546356163E+04  0.97841567401E+02 0.  0.
         11    1    3    3    0    0 -0.47079237061E+03  0.21817790327E+03 -0.77905982350E+03  0.93604554499E+03  0.00000000000E+00 0.  1.
        -11    1    3    3    0    0 -0.53202440193E+03  0.16589966884E+03 -0.96988199450E+03  0.11185900713E+04  0.00000000000E+00 0. -1.
         22    1    1    2    0    0  0.10028167725E+04 -0.38407757211E+03  0.73919375673E+03  0.13036734525E+04  0.00000000000E+00 0.  1.
<mgrwt>
<rscale>  0 0.32029125E+04</rscale>
<asrwt>0</asrwt>
<pdfrwt beam="1">  1        2 0.33600439E+00 0.32029125E+04</pdfrwt>
<pdfrwt beam="2">  1       -2 0.18065854E+00 0.32029125E+04</pdfrwt>
<totfact> 0.79637140E-01</totfact>
</mgrwt>
</event>
<event>
 6    1  0.2236204E-005  0.3318471E+04  0.7818608E-02  0.8158211E-01
          2   -1    0    0  501    0  0.00000000000E+00  0.00000000000E+00  0.73373615978E+03  0.73373615978E+03  0.00000000000E+00 0. -1.
         -2   -1    0    0    0  501 -0.00000000000E+00 -0.00000000000E+00 -0.37521147063E+04  0.37521147063E+04  0.00000000000E+00 0.  1.
         23    2    1    2    0    0 -0.13651762627E+04  0.93485573869E+03 -0.16499712232E+04  0.23387132173E+04  0.97534583043E+02 0.  0.
         13    1    3    3    0    0 -0.66388811844E+03  0.39567301827E+03 -0.76751084941E+03  0.10892095644E+04  0.00000000000E+00 0.  1.
        -13    1    3    3    0    0 -0.70128814425E+03  0.53918272042E+03 -0.88246037376E+03  0.12495036529E+04  0.00000000000E+00 0. -1.
         22    1    1    2    0    0  0.13651762627E+04 -0.93485573869E+03 -0.13684073233E+04  0.21471376488E+04  0.00000000000E+00 0. -1.
<mgrwt>
<rscale>  0 0.33184709E+04</rscale>
<asrwt>0</asrwt>
<pdfrwt beam="1">  1        2 0.11288248E+00 0.33184709E+04</pdfrwt>
<pdfrwt beam="2">  1       -2 0.57724843E+00 0.33184709E+04</pdfrwt>
<totfact> 0.20179922E-02</totfact>
</mgrwt>
</event>
<event>
 6    1  0.2236204E-005  0.1169145E+04  0.7818608E-02  0.9140301E-01
          2   -1    0    0  501    0  0.00000000000E+00  0.00000000000E+00  0.25214112350E+04  0.25214112350E+04  0.00000000000E+00 0. -1.
         -2   -1    0    0    0  501 -0.00000000000E+00 -0.00000000000E+00 -0.13552921892E+03  0.13552921892E+03  0.00000000000E+00 0.  1.
         23    2    1    2    0    0  0.11201632513E+03  0.39716339333E+03  0.27006492654E+03  0.50125764457E+03  0.89653463935E+02 0.  0.
         11    1    3    3    0    0  0.73085330172E+02  0.34461739898E+03  0.19867931739E+03  0.40444540834E+03  0.00000000000E+00 0. -1.
        -11    1    3    3    0    0  0.38930994955E+02  0.52545994352E+02  0.71385609157E+02  0.96812236238E+02  0.00000000000E+00 0.  1.
         22    1    1    2    0    0 -0.11201632513E+03 -0.39716339333E+03  0.21158170896E+04  0.21556828094E+04  0.00000000000E+00 0. -1.
<mgrwt>
<rscale>  0 0.11691448E+04</rscale>
<asrwt>0</asrwt>
<pdfrwt beam="1">  1        2 0.38790939E+00 0.11691448E+04</pdfrwt>
<pdfrwt beam="2">  1       -2 0.20850651E-01 0.11691448E+04</pdfrwt>
<totfact> 0.66916205E+01</totfact>
</mgrwt>
</event>
<event>
 6    1  0.2236204E-005  0.1689990E+04  0.7818608E-02  0.8767094E-01
          2   -1    0    0  501    0  0.00000000000E+00  0.00000000000E+00  0.14146016201E+04  0.14146016201E+04  0.00000000000E+00 0. -1.
         -2   -1    0    0    0  501 -0.00000000000E+00 -0.00000000000E+00 -0.50474720623E+03  0.50474720623E+03  0.00000000000E+00 0.  1.
         23    2    1    2    0    0  0.12824023908E+02 -0.38920825516E+03  0.13047443988E+04  0.13647448039E+04  0.92319618850E+02 0.  0.
         13    1    3    3    0    0 -0.36793166984E+02 -0.23435543152E+03  0.80306745125E+03  0.83737299734E+03  0.00000000000E+00 0. -1.
        -13    1    3    3    0    0  0.49617190892E+02 -0.15485282364E+03  0.50167694759E+03  0.52737180657E+03  0.00000000000E+00 0.  1.
         22    1    1    2    0    0 -0.12824023908E+02  0.38920825516E+03 -0.39488998497E+03  0.55460402243E+03  0.00000000000E+00 0.  1.
<mgrwt>
<rscale>  0 0.16899896E+04</rscale>
<asrwt>0</asrwt>
<pdfrwt beam="1">  1        2 0.21763102E+00 0.16899896E+04</pdfrwt>
<pdfrwt beam="2">  1       -2 0.77653417E-01 0.16899896E+04</pdfrwt>
<totfact> 0.19976418E+01</totfact>
</mgrwt>
</event>
<event>
 6    1  0.2236204E-005  0.4008120E+04  0.7818608E-02  0.8002910E-01
         -2   -1    0    0    0  501 -0.00000000000E+00  0.00000000000E+00  0.14396160759E+04  0.14396160759E+04  0.00000000000E+00 0.  1.
          2   -1    0    0  501    0  0.00000000000E+00 -0.00000000000E+00 -0.27898112825E+04  0.27898112825E+04  0.00000000000E+00 0. -1.
         23    2    1    2    0    0 -0.55224126587E+03  0.63845064679E+03 -0.25921933938E+04  0.27277119588E+04  0.91412772025E+02 0.  0.
         11    1    3    3    0    0 -0.93827333728E+02  0.14764750154E+03 -0.62607825656E+03  0.65005948697E+03  0.00000000000E+00 0.  1.
        -11    1    3    3    0    0 -0.45841393214E+03  0.49080314525E+03 -0.19661151373E+04  0.20776524718E+04  0.00000000000E+00 0. -1.
         22    1    1    2    0    0  0.55224126587E+03 -0.63845064679E+03  0.12419981873E+04  0.15017153996E+04  0.00000000000E+00 0.  1.
<mgrwt>
<rscale>  0 0.40081203E+04</rscale>
<asrwt>0</asrwt>
<pdfrwt beam="1">  1        2 0.42920174E+00 0.40081203E+04</pdfrwt>
<pdfrwt beam="2">  1       -2 0.22147940E+00 0.40081203E+04</pdfrwt>
<totfact> 0.17880752E-01</totfact>
</mgrwt>
</event>
<event>
 6    1  0.2236204E-005  0.2553970E+04  0.7818608E-02  0.8384007E-01
         -2   -1    0    0    0  501 -0.00000000000E+00  0.00000000000E+00  0.16450555422E+04  0.16450555422E+04  0.00000000000E+00 0.  1.
          2   -1    0    0  501    0  0.00000000000E+00 -0.00000000000E+00 -0.99126807362E+03  0.99126807362E+03  0.00000000000E+00 0. -1.
         23    2    1    2    0    0 -0.58641257710E+03 -0.97928347490E+03  0.91357639094E+03  0.14656972369E+04  0.10378214386E+03 0.  0.
         13    1    3    3    0    0 -0.27837684151E+03 -0.49764166939E+03  0.51895898081E+03  0.77101188107E+03  0.00000000000E+00 0.  1.
        -13    1    3    3    0    0 -0.30803573559E+03 -0.48164180552E+03  0.39461741014E+03  0.69468535583E+03  0.00000000000E+00 0. -1.
         22    1    1    2    0    0  0.58641257710E+03  0.97928347490E+03 -0.25978892237E+03  0.11706263789E+04  0.00000000000E+00 0. -1.
<mgrwt>
<rscale>  0 0.25539703E+04</rscale>
<asrwt>0</asrwt>
<pdfrwt beam="1">  1        2 0.15250278E+00 0.25539703E+04</pdfrwt>
<pdfrwt beam="2">  1       -2 0.25308547E+00 0.25539703E+04</pdfrwt>
<totfact> 0.13936202E+00</totfact>
</mgrwt>
</event>
<event>
 6    1  0.2236204E-005  0.2024127E+04  0.7818608E-02  0.8595423E-01
          2   -1    0    0  501    0  0.00000000000E+00  0.00000000000E+00  0.20893001886E+04  0.20893001886E+04  0.00000000000E+00 0. -1.
         -2   -1    0    0    0  501 -0.00000000000E+00 -0.00000000000E+00 -0.49024675293E+03  0.49024675293E+03  0.00000000000E+00 0.  1.
         23    2    1    2    0    0 -0.26734382425E+03  0.33444111521E+03 -0.36430723147E+03  0.57004235353E+03  0.94366021505E+02 0.  0.
         11    1    3    3    0    0 -0.16435309091E+03  0.25105183998E+03 -0.20792708557E+03  0.36506525138E+03  0.00000000000E+00 0.  1.
        -11    1    3    3    0    0 -0.10299073334E+03  0.83389275226E+02 -0.15638014590E+03  0.20497710215E+03  0.00000000000E+00 0. -1.
         22    1    1    2    0    0  0.26734382425E+03 -0.33444111521E+03  0.19633606672E+04  0.20095045880E+04  0.00000000000E+00 0. -1.
<mgrwt>
<rscale>  0 0.20241271E+04</rscale>
<asrwt>0</asrwt>
<pdfrwt beam="1">  1        2 0.32143079E+00 0.20241271E+04</pdfrwt>
<pdfrwt beam="2">  1       -2 0.75422578E-01 0.20241271E+04</pdfrwt>
<totfact> 0.87107390E+00</totfact>
</mgrwt>
</event>
<event>
 6    1  0.2236204E-005  0.2490590E+04  0.7818608E-02  0.8406346E-01
          2   -1    0    0  501    0  0.00000000000E+00  0.00000000000E+00  0.10340301227E+04  0.10340301227E+04  0.00000000000E+00 0. -1.
         -2   -1    0    0    0  501 -0.00000000000E+00 -0.00000000000E+00 -0.14997238429E+04  0.14997238429E+04  0.00000000000E+00 0.  1.
         23    2    1    2    0    0  0.94721182119E+03  0.22613318743E+03  0.55372613457E+03  0.11239443001E+04  0.91058798912E+02 0.  0.
         11    1    3    3    0    0  0.58849765189E+03  0.14556563563E+03  0.29368727390E+03  0.67362530787E+03  0.00000000000E+00 0.  1.
        -11    1    3    3    0    0  0.35871416930E+03  0.80567551800E+02  0.26003886068E+03  0.45031899218E+03  0.00000000000E+00 0. -1.
         22    1    1    2    0    0 -0.94721182119E+03 -0.22613318743E+03 -0.10194198548E+04  0.14098096656E+04  0.00000000000E+00 0.  1.
<mgrwt>
<rscale>  0 0.24905900E+04</rscale>
<asrwt>0</asrwt>
<pdfrwt beam="1">  1        2 0.15908156E+00 0.24905900E+04</pdfrwt>
<pdfrwt beam="2">  1       -2 0.23072674E+00 0.24905900E+04</pdfrwt>
<totfact> 0.18090624E+00</totfact>
</mgrwt>
</event>
<event>
 6    1  0.2236204E-005  0.9579079E+03  0.7818608E-02  0.9355955E-01
         -2   -1    0    0    0  501 -0.00000000000E+00  0.00000000000E+00  0.19718308578E+03  0.19718308578E+03  0.00000000000E+00 0.  1.
          2   -1    0    0  501    0  0.00000000000E+00 -0.00000000000E+00 -0.11633699254E+04  0.11633699254E+04  0.00000000000E+00 0. -1.
         23    2    1    2    0    0 -0.52721254103E+02  0.27461790401E+03 -0.10321764951E+04  0.10732393177E+04  0.90883399273E+02 0.  0.
         11    1    3    3    0    0 -0.69708880405E+02  0.24778077761E+03 -0.84321319942E+03  0.88162528403E+03  0.00000000000E+00 0. -1.
        -11    1    3    3    0    0  0.16987626301E+02  0.26837126402E+02 -0.18896329565E+03  0.19161403368E+03  0.00000000000E+00 0.  1.
         22    1    1    2    0    0  0.52721254103E+02 -0.27461790401E+03  0.65989655438E+02  0.28731369348E+03  0.00000000000E+00 0.  1.
<mgrwt>
<rscale>  0 0.95790787E+03</rscale>
<asrwt>0</asrwt>
<pdfrwt beam="1">  1        2 0.17897999E+00 0.95790787E+03</pdfrwt>
<pdfrwt beam="2">  1       -2 0.30335859E-01 0.95790787E+03</pdfrwt>
<totfact> 0.19989410E+02</totfact>
</mgrwt>
</event>
<event>
 6    1  0.2236204E-005  0.6355158E+04  0.7818608E-02  0.7647861E-01
         -2   -1    0    0    0  501 -0.00000000000E+00  0.00000000000E+00  0.24055225316E+04  0.24055225316E+04  0.00000000000E+00 0.  1.
          2   -1    0    0  501    0  0.00000000000E+00 -0.00000000000E+00 -0.41974276388E+04  0.41974276388E+04  0.00000000000E+00 0. -1.
         23    2    1    2    0    0  0.19182367414E+04  0.87334564342E+03 -0.33657626741E+04  0.39724763633E+04  0.99223330873E+02 0.  0.
         11    1    3    3    0    0  0.15351460483E+04  0.70270045957E+03 -0.26194976755E+04  0.31164449935E+04  0.00000000000E+00 0. -1.
        -11    1    3    3    0    0  0.38309069318E+03  0.17064518385E+03 -0.74626499858E+03  0.85603136979E+03  0.00000000000E+00 0.  1.
         22    1    1    2    0    0 -0.19182367414E+04 -0.87334564342E+03  0.15738575669E+04  0.26304738071E+04  0.00000000000E+00 0.  1.
<mgrwt>
<rscale>  0 0.63551575E+04</rscale>
<asrwt>0</asrwt>
<pdfrwt beam="1">  1        2 0.64575809E+00 0.63551575E+04</pdfrwt>
<pdfrwt beam="2">  1       -2 0.37008040E+00 0.63551575E+04</pdfrwt>
<totfact> 0.17622355E-03</totfact>
</mgrwt>
</event>
<event>
 6    1  0.2236204E-005  0.3003438E+04  0.7818608E-02  0.8242750E-01
          2   -1    0    0  501    0  0.00000000000E+00  0.00000000000E+00  0.32566934560E+04  0.32566934560E+04  0.00000000000E+00 0. -1.
         -2   -1    0    0    0  501 -0.00000000000E+00 -0.00000000000E+00 -0.69246921495E+03  0.69246921495E+03  0.00000000000E+00 0.  1.
         23    2    1    2    0    0 -0.84899691487E+03 -0.96526466431E+03  0.23005530889E+04  0.26368920776E+04  0.90131463321E+02 0.  0.
         11    1    3    3    0    0 -0.65953419060E+03 -0.77069104392E+03  0.18817880815E+04  0.21377737059E+04  0.00000000000E+00 0.  1.
        -11    1    3    3    0    0 -0.18946272427E+03 -0.19457362039E+03  0.41876500735E+03  0.49911837175E+03  0.00000000000E+00 0. -1.
         22    1    1    2    0    0  0.84899691487E+03  0.96526466431E+03  0.26367115219E+03  0.13122705933E+04  0.00000000000E+00 0.  1.
<mgrwt>
<rscale>  0 0.30034380E+04</rscale>
<asrwt>0</asrwt>
<pdfrwt beam="1">  1        2 0.50102975E+00 0.30034380E+04</pdfrwt>
<pdfrwt beam="2">  1       -2 0.10653373E+00 0.30034380E+04</pdfrwt>
<totfact> 0.72247106E-01</totfact>
</mgrwt>
</event>
<event>
 6    1  0.2236204E-005  0.2360238E+04  0.7818608E-02  0.8454542E-01
          2   -1    0    0  501    0  0.00000000000E+00  0.00000000000E+00  0.20895270836E+04  0.20895270836E+04  0.00000000000E+00 0. -1.
         -2   -1    0    0    0  501 -0.00000000000E+00 -0.00000000000E+00 -0.66650529607E+03  0.66650529607E+03  0.00000000000E+00 0.  1.
         23    2    1    2    0    0  0.82141207773E+03 -0.83956117920E+03  0.60360255809E+03  0.13238910987E+04  0.93652645697E+02 0.  0.
         13    1    3    3    0    0  0.64116546095E+03 -0.69280377105E+03  0.51356791111E+03  0.10746265457E+04  0.00000000000E+00 0.  1.
        -13    1    3    3    0    0  0.18024661678E+03 -0.14675740815E+03  0.90034646979E+02  0.24926455296E+03  0.00000000000E+00 0. -1.
         22    1    1    2    0    0 -0.82141207773E+03  0.83956117920E+03  0.81941922945E+03  0.14321412810E+04  0.00000000000E+00 0.  1.
<mgrwt>
<rscale>  0 0.23602380E+04</rscale>
<asrwt>0</asrwt>
<pdfrwt beam="1">  1        2 0.32146570E+00 0.23602380E+04</pdfrwt>
<pdfrwt beam="2">  1       -2 0.10253928E+00 0.23602380E+04</pdfrwt>
<totfact> 0.41801845E+00</totfact>
</mgrwt>
</event>
<event>
 6    1  0.2236204E-005  0.1573506E+04  0.7818608E-02  0.8836991E-01
         -2   -1    0    0    0  501 -0.00000000000E+00  0.00000000000E+00  0.26632555983E+03  0.26632555983E+03  0.00000000000E+00 0.  1.
          2   -1    0    0  501    0  0.00000000000E+00 -0.00000000000E+00 -0.23241500023E+04  0.23241500023E+04  0.00000000000E+00 0. -1.
         23    2    1    2    0    0  0.54145740854E+03  0.48986769007E+03 -0.56286749837E+03  0.92673196898E+03  0.94158603319E+02 0.  0.
         11    1    3    3    0    0  0.31725658893E+03  0.33173260565E+03 -0.39109449204E+03  0.60303662126E+03  0.00000000000E+00 0.  1.
        -11    1    3    3    0    0  0.22420081960E+03  0.15813508441E+03 -0.17177300633E+03  0.32369534772E+03  0.00000000000E+00 0. -1.
         22    1    1    2    0    0 -0.54145740854E+03 -0.48986769007E+03 -0.14949569441E+04  0.16637435932E+04  0.00000000000E+00 0. -1.
<mgrwt>
<rscale>  0 0.15735063E+04</rscale>
<asrwt>0</asrwt>
<pdfrwt beam="1">  1        2 0.35756154E+00 0.15735063E+04</pdfrwt>
<pdfrwt beam="2">  1       -2 0.40973163E-01 0.15735063E+04</pdfrwt>
<totfact> 0.23842989E+01</totfact>
</mgrwt>
</event>
<event>
 6    1  0.2236204E-005  0.1174835E+04  0.7818608E-02  0.9135173E-01
          2   -1    0    0  501    0  0.00000000000E+00  0.00000000000E+00  0.43468071834E+03  0.43468071834E+03  0.00000000000E+00 0. -1.
         -2   -1    0    0    0  501 -0.00000000000E+00 -0.00000000000E+00 -0.79382220113E+03  0.79382220113E+03  0.00000000000E+00 0.  1.
         23    2    1    2    0    0  0.14745014883E+03  0.20022345587E+03  0.37173713317E+03  0.45648314645E+03  0.91418751591E+02 0.  0.
         13    1    3    3    0    0  0.15633735285E+03  0.16253652365E+03  0.30490974165E+03  0.37924852006E+03  0.00000000000E+00 0. -1.
        -13    1    3    3    0    0 -0.88872040190E+01  0.37686932219E+02  0.66827391527E+02  0.77234626391E+02  0.00000000000E+00 0.  1.
         22    1    1    2    0    0 -0.14745014883E+03 -0.20022345587E+03 -0.73087861596E+03  0.77201977302E+03  0.00000000000E+00 0.  1.
<mgrwt>
<rscale>  0 0.11748348E+04</rscale>
<asrwt>0</asrwt>
<pdfrwt beam="1">  1        2 0.66873957E-01 0.11748348E+04</pdfrwt>
<pdfrwt beam="2">  1       -2 0.12212649E+00 0.11748348E+04</pdfrwt>
<totfact> 0.36331005E+01</totfact>
</mgrwt>
</event>
<event>
 6    1  0.2236204E-005  0.2235939E+04  0.7818608E-02  0.8503617E-01
          2   -1    0    0  501    0  0.00000000000E+00  0.00000000000E+00  0.62440685934E+03  0.62440685934E+03  0.00000000000E+00 0. -1.
         -2   -1    0    0    0  501 -0.00000000000E+00 -0.00000000000E+00 -0.20016682378E+04  0.20016682378E+04  0.00000000000E+00 0.  1.
         23    2    1    2    0    0  0.20321919123E+03 -0.39309959648E+03  0.51458616652E+03  0.68316170074E+03  0.78010602820E+02 0.  0.
         13    1    3    3    0    0  0.12261685593E+03 -0.18693233891E+03  0.21073039758E+03  0.30722287212E+03  0.00000000000E+00 0.  1.
        -13    1    3    3    0    0  0.80602335297E+02 -0.20616725758E+03  0.30385576894E+03  0.37593882863E+03  0.00000000000E+00 0. -1.
         22    1    1    2    0    0 -0.20321919123E+03  0.39309959648E+03 -0.18918475450E+04  0.19429133964E+04  0.00000000000E+00 0.  1.
<mgrwt>
<rscale>  0 0.22359386E+04</rscale>
<asrwt>0</asrwt>
<pdfrwt beam="1">  1        2 0.96062596E-01 0.22359386E+04</pdfrwt>
<pdfrwt beam="2">  1       -2 0.30794895E+00 0.22359386E+04</pdfrwt>
<totfact> 0.12239075E+00</totfact>
</mgrwt>
</event>
<event>
 6    1  0.2236204E-005  0.4384662E+04  0.7818608E-02  0.7931146E-01
          2   -1    0    0  501    0  0.00000000000E+00  0.00000000000E+00  0.15091887621E+04  0.15091887621E+04  0.00000000000E+00 0. -1.
         -2   -1    0    0    0  501 -0.00000000000E+00 -0.00000000000E+00 -0.31847007827E+04  0.31847007827E+04  0.00000000000E+00 0.  1.
         23    2    1    2    0    0  0.14621289395E+04  0.90028692177E+03  0.61952104412E+03  0.18276176900E+04  0.89680094078E+02 0.  0.
         11    1    3    3    0    0  0.13294006111E+04  0.82686414800E+03  0.59021270400E+03  0.16731292060E+04  0.00000000000E+00 0. -1.
        -11    1    3    3    0    0  0.13272832845E+03  0.73422773774E+02  0.29308340116E+02  0.15448848398E+03  0.00000000000E+00 0.  1.
         22    1    1    2    0    0 -0.14621289395E+04 -0.90028692177E+03 -0.22950330648E+04  0.28662718548E+04  0.00000000000E+00 0.  1.
<mgrwt>
<rscale>  0 0.43846617E+04</rscale>
<asrwt>0</asrwt>
<pdfrwt beam="1">  1        2 0.23218289E+00 0.43846617E+04</pdfrwt>
<pdfrwt beam="2">  1       -2 0.48995396E+00 0.43846617E+04</pdfrwt>
<totfact> 0.18346687E-02</totfact>
</mgrwt>
</event>
<event>
 6    1  0.2236204E-005  0.2224373E+04  0.7818608E-02  0.8508352E-01
          2   -1    0    0  501    0  0.00000000000E+00  0.00000000000E+00  0.27935894170E+04  0.27935894170E+04  0.00000000000E+00 0. -1.
         -2   -1    0    0    0  501 -0.00000000000E+00 -0.00000000000E+00 -0.44278464277E+03  0.44278464277E+03  0.00000000000E+00 0.  1.
         23    2    1    2    0    0 -0.57977667604E+03 -0.73531334661E+03  0.20454184125E+04  0.22514438381E+04  0.91848580760E+02 0.  0.
         11    1    3    3    0    0 -0.18019729597E+03 -0.19261244076E+03  0.66169228483E+03  0.71232527515E+03  0.00000000000E+00 0. -1.
        -11    1    3    3    0    0 -0.39957938007E+03 -0.54270090585E+03  0.13837261277E+04  0.15391185629E+04  0.00000000000E+00 0.  1.
         22    1    1    2    0    0  0.57977667604E+03  0.73531334661E+03  0.30538636173E+03  0.98493022175E+03  0.00000000000E+00 0.  1.
<mgrwt>
<rscale>  0 0.22243727E+04</rscale>
<asrwt>0</asrwt>
<pdfrwt beam="1">  1        2 0.42978298E+00 0.22243727E+04</pdfrwt>
<pdfrwt beam="2">  1       -2 0.68120716E-01 0.22243727E+04</pdfrwt>
<totfact> 0.42005903E+00</totfact>
</mgrwt>
</event>
<event>
 6    1  0.2236204E-005  0.2749817E+04  0.7818608E-02  0.8319020E-01
         -2   -1    0    0    0  501 -0.00000000000E+00  0.00000000000E+00  0.75521547236E+03  0.75521547236E+03  0.00000000000E+00 0.  1.
          2   -1    0    0  501    0  0.00000000000E+00 -0.00000000000E+00 -0.25030919147E+04  0.25030919147E+04  0.00000000000E+00 0. -1.
         23    2    1    2    0    0 -0.24130314061E+03 -0.58518359444E+03  0.56938717015E+03  0.85614634029E+03  0.90098621534E+02 0.  0.
         11    1    3    3    0    0 -0.18357831324E+03 -0.32946752938E+03  0.33052439661E+03  0.50149399474E+03  0.00000000000E+00 0.  1.
        -11    1    3    3    0    0 -0.57724827371E+02 -0.25571606505E+03  0.23886277354E+03  0.35465234555E+03  0.00000000000E+00 0. -1.
         22    1    1    2    0    0  0.24130314061E+03  0.58518359444E+03 -0.23172636125E+04  0.24021610468E+04  0.00000000000E+00 0. -1.
<mgrwt>
<rscale>  0 0.27498173E+04</rscale>
<asrwt>0</asrwt>
<pdfrwt beam="1">  1        2 0.38509106E+00 0.27498173E+04</pdfrwt>
<pdfrwt beam="2">  1       -2 0.11618700E+00 0.27498173E+04</pdfrwt>
<totfact> 0.17413492E+00</totfact>
</mgrwt>
</event>
<event>
 6    1  0.2236204E-005  0.1244220E+04  0.7818608E-02  0.9075008E-01
          2   -1    0    0  501    0  0.00000000000E+00  0.00000000000E+00  0.11291459584E+04  0.11291459584E+04  0.00000000000E+00 0. -1.
         -2   -1    0    0    0  501 -0.00000000000E+00 -0.00000000000E+00 -0.34275532265E+03  0.34275532265E+03  0.00000000000E+00 0.  1.
         23    2    1    2    0    0 -0.37207537626E+03  0.27404299139E+03  0.88210867832E+03  0.99998858741E+03  0.91223943325E+02 0.  0.
         13    1    3    3    0    0 -0.25394923048E+03  0.13259044347E+03  0.55268213370E+03  0.62251745218E+03  0.00000000000E+00 0.  1.
        -13    1    3    3    0    0 -0.11812614578E+03  0.14145254792E+03  0.32942654463E+03  0.37747113523E+03  0.00000000000E+00 0. -1.
         22    1    1    2    0    0  0.37207537626E+03 -0.27404299139E+03 -0.95718042569E+02  0.47191269364E+03  0.00000000000E+00 0.  1.
<mgrwt>
<rscale>  0 0.12442199E+04</rscale>
<asrwt>0</asrwt>
<pdfrwt beam="1">  1        2 0.17371476E+00 0.12442199E+04</pdfrwt>
<pdfrwt beam="2">  1       -2 0.52731589E-01 0.12442199E+04</pdfrwt>
<totfact> 0.69770963E+01</totfact>
</mgrwt>
</event>
<event>
 6    1  0.2236204E-005  0.3400472E+04  0.7818608E-02  0.8137790E-01
          2   -1    0    0  501    0  0.00000000000E+00  0.00000000000E+00  0.21766389030E+04  0.21766389030E+04  0.00000000000E+00 0. -1.
         -2   -1    0    0    0  501 -0.00000000000E+00 -0.00000000000E+00 -0.13281040632E+04  0.13281040632E+04  0.00000000000E+00 0.  1.
         23    2    1    2    0    0  0.13655422128E+04 -0.72433118090E+03 -0.30231479297E+03  0.15776165895E+04  0.90103689134E+02 0.  0.
         11    1    3    3    0    0  0.85277629952E+03 -0.40339043731E+03 -0.19223606600E+03  0.96275955826E+03  0.00000000000E+00 0. -1.
        -11    1    3    3    0    0  0.51276591324E+03 -0.32094074359E+03 -0.11007872697E+03  0.61485703119E+03  0.00000000000E+00 0.  1.
         22    1    1    2    0    0 -0.13655422128E+04  0.72433118090E+03  0.11508496328E+04  0.19271263767E+04  0.00000000000E+00 0. -1.
<mgrwt>
<rscale>  0 0.34004723E+04</rscale>
<asrwt>0</asrwt>
<pdfrwt beam="1">  1        2 0.33486752E+00 0.34004723E+04</pdfrwt>
<pdfrwt beam="2">  1       -2 0.20432370E+00 0.34004723E+04</pdfrwt>
<totfact> 0.54946464E-01</totfact>
</mgrwt>
</event>
<event>
 6    1  0.2236204E-005  0.3050762E+04  0.7818608E-02  0.8229382E-01
          2   -1    0    0  501    0  0.00000000000E+00  0.00000000000E+00  0.17679325245E+04  0.17679325245E+04  0.00000000000E+00 0. -1.
         -2   -1    0    0    0  501 -0.00000000000E+00 -0.00000000000E+00 -0.13161063332E+04  0.13161063332E+04  0.00000000000E+00 0.  1.
         23    2    1    2    0    0 -0.73228451190E+03 -0.12662788769E+04 -0.20622878204E+03  0.14800628142E+04  0.91393780118E+02 0.  0.
         13    1    3    3    0    0 -0.50411843444E+03 -0.86580685826E+03 -0.98316757923E+02  0.10066891758E+04  0.00000000000E+00 0. -1.
        -13    1    3    3    0    0 -0.22816607746E+03 -0.40047201862E+03 -0.10791202412E+03  0.47337363842E+03  0.00000000000E+00 0.  1.
         22    1    1    2    0    0  0.73228451190E+03  0.12662788769E+04  0.65805497331E+03  0.16039760435E+04  0.00000000000E+00 0. -1.
<mgrwt>
<rscale>  0 0.30507620E+04</rscale>
<asrwt>0</asrwt>
<pdfrwt beam="1">  1        2 0.27198962E+00 0.30507620E+04</pdfrwt>
<pdfrwt beam="2">  1       -2 0.20247790E+00 0.30507620E+04</pdfrwt>
<totfact> 0.98195262E-01</totfact>
</mgrwt>
</event>
<event>
 6    1  0.2236204E-005  0.1246852E+04  0.7818608E-02  0.9072807E-01
          4   -1    0    0  501    0  0.00000000000E+00  0.00000000000E+00  0.45758053000E+03  0.45758053000E+03  0.00000000000E+00 0. -1.
         -4   -1    0    0    0  501 -0.00000000000E+00 -0.00000000000E+00 -0.84938110906E+03  0.84938110906E+03  0.00000000000E+00 0.  1.
         23    2    1    2    0    0 -0.45497490014E+03 -0.40371221350E+03 -0.32228472179E+03  0.69473768862E+03  0.93847232247E+02 0.  0.
         13    1    3    3    0    0 -0.34751027604E+02 -0.15025503485E+02 -0.69881676471E-01  0.37860329607E+02  0.00000000000E+00 0.  1.
        -13    1    3    3    0    0 -0.42022387253E+03 -0.38868671002E+03 -0.32221484011E+03  0.65687735901E+03  0.00000000000E+00 0. -1.
         22    1    1    2    0    0  0.45497490014E+03  0.40371221350E+03 -0.69515857276E+02  0.61222395045E+03  0.00000000000E+00 0. -1.
<mgrwt>
<rscale>  0 0.12468525E+04</rscale>
<asrwt>0</asrwt>
<pdfrwt beam="1">  1        4 0.70397005E-01 0.12468525E+04</pdfrwt>
<pdfrwt beam="2">  1       -4 0.13067402E+00 0.12468525E+04</pdfrwt>
<totfact> 0.15493113E+00</totfact>
</mgrwt>
</event>
<event>
 6    1  0.2236204E-005  0.2572545E+04  0.7818608E-02  0.8377587E-01
          1   -1    0    0  501    0  0.00000000000E+00  0.00000000000E+00  0.10193399691E+04  0.10193399691E+04  0.00000000000E+00 0. -1.
         -1   -1    0    0    0  501 -0.00000000000E+00 -0.00000000000E+00 -0.16231060629E+04  0.16231060629E+04  0.00000000000E+00 0.  1.
         23    2    1    2    0    0 -0.12382808545E+04  0.21875064598E+03 -0.57200283783E+03  0.13845906253E+04  0.93341487746E+02 0.  0.
         13    1    3    3    0    0 -0.52941046847E+03  0.10731998692E+03 -0.29436083824E+03  0.61517585031E+03  0.00000000000E+00 0. -1.
        -13    1    3    3    0    0 -0.70887038608E+03  0.11143065907E+03 -0.27764199959E+03  0.76941477499E+03  0.00000000000E+00 0.  1.
         22    1    1    2    0    0  0.12382808545E+04 -0.21875064598E+03 -0.31763255965E+02  0.12578554068E+04  0.00000000000E+00 0.  1.
<mgrwt>
<rscale>  0 0.25725450E+04</rscale>
<asrwt>0</asrwt>
<pdfrwt beam="1">  1        1 0.15682154E+00 0.25725450E+04</pdfrwt>
<pdfrwt beam="2">  1       -1 0.24970862E+00 0.25725450E+04</pdfrwt>
<totfact> 0.90344761E-01</totfact>
</mgrwt>
</event>
<event>
 6    1  0.2236204E-005  0.3238243E+04  0.7818608E-02  0.8178790E-01
          2   -1    0    0  501    0  0.00000000000E+00  0.00000000000E+00  0.16629609912E+04  0.16629609912E+04  0.00000000000E+00 0.  1.
         -2   -1    0    0    0  501 -0.00000000000E+00 -0.00000000000E+00 -0.15764373826E+04  0.15764373826E+04  0.00000000000E+00 0. -1.
         23    2    1    2    0    0  0.55313721113E+03  0.56344566513E+03 -0.13691859081E+04  0.15833422186E+04  0.94184597056E+02 0.  0.
         13    1    3    3    0    0  0.13888938461E+03  0.15163672756E+03 -0.27973543504E+03  0.34718276443E+03  0.00000000000E+00 0.  1.
        -13    1    3    3    0    0  0.41424782652E+03  0.41180893758E+03 -0.10894504731E+04  0.12361594542E+04  0.00000000000E+00 0. -1.
         22    1    1    2    0    0 -0.55313721113E+03 -0.56344566513E+03  0.14557095167E+04  0.16560561551E+04  0.00000000000E+00 0.  1.
<mgrwt>
<rscale>  0 0.32382427E+04</rscale>
<asrwt>0</asrwt>
<pdfrwt beam="1">  1        2 0.25584015E+00 0.32382427E+04</pdfrwt>
<pdfrwt beam="2">  1       -2 0.24252883E+00 0.32382427E+04</pdfrwt>
<totfact> 0.61686868E-01</totfact>
</mgrwt>
</event>
<event>
 6    1  0.2236204E-005  0.1861390E+04  0.7818608E-02  0.8674317E-01
          2   -1    0    0  501    0  0.00000000000E+00  0.00000000000E+00  0.35901430585E+04  0.35901430585E+04  0.00000000000E+00 0. -1.
         -2   -1    0    0    0  501 -0.00000000000E+00 -0.00000000000E+00 -0.24126993135E+03  0.24126993135E+03  0.00000000000E+00 0.  1.
         23    2    1    2    0    0  0.46535166640E+03 -0.80244583330E+03  0.16753959335E+04  0.19180396843E+04  0.10701966029E+03 0.  0.
         13    1    3    3    0    0  0.11266800397E+03 -0.24618172576E+03  0.57576192023E+03  0.63623997832E+03  0.00000000000E+00 0.  1.
        -13    1    3    3    0    0  0.35268366242E+03 -0.55626410753E+03  0.10996340133E+04  0.12817997060E+04  0.00000000000E+00 0. -1.
         22    1    1    2    0    0 -0.46535166640E+03  0.80244583330E+03  0.16734771937E+04  0.19133733056E+04  0.00000000000E+00 0. -1.
<mgrwt>
<rscale>  0 0.18613904E+04</rscale>
<asrwt>0</asrwt>
<pdfrwt beam="1">  1        2 0.55232966E+00 0.18613904E+04</pdfrwt>
<pdfrwt beam="2">  1       -2 0.37118454E-01 0.18613904E+04</pdfrwt>
<totfact> 0.45475385E+00</totfact>
</mgrwt>
</event>
<event>
 6    1  0.2236204E-005  0.1818132E+04  0.7818608E-02  0.8696716E-01
         -2   -1    0    0    0  501 -0.00000000000E+00  0.00000000000E+00  0.26360877240E+03  0.26360877240E+03  0.00000000000E+00 0.  1.
          2   -1    0    0  501    0  0.00000000000E+00 -0.00000000000E+00 -0.31349519925E+04  0.31349519925E+04  0.00000000000E+00 0. -1.
         23    2    1    2    0    0  0.64710614370E+03  0.11084287369E+03 -0.27068876579E+03  0.71631616483E+03  0.93829292941E+02 0.  0.
         11    1    3    3    0    0  0.15764411182E+03 -0.23379761802E+01 -0.35484142780E+02  0.16160524903E+03  0.00000000000E+00 0.  1.
        -11    1    3    3    0    0  0.48946203188E+03  0.11318084987E+03 -0.23520462301E+03  0.55471091581E+03  0.00000000000E+00 0. -1.
         22    1    1    2    0    0 -0.64710614370E+03 -0.11084287369E+03 -0.26006544544E+04  0.26822446001E+04  0.00000000000E+00 0. -1.
<mgrwt>
<rscale>  0 0.18181318E+04</rscale>
<asrwt>0</asrwt>
<pdfrwt beam="1">  1        2 0.48230028E+00 0.18181318E+04</pdfrwt>
<pdfrwt beam="2">  1       -2 0.40555198E-01 0.18181318E+04</pdfrwt>
<totfact> 0.77912830E+00</totfact>
</mgrwt>
</event>
<event>
 6    1  0.2236204E-005  0.1578206E+04  0.7818608E-02  0.8834050E-01
          2   -1    0    0  501    0  0.00000000000E+00  0.00000000000E+00  0.61003232047E+03  0.61003232047E+03  0.00000000000E+00 0. -1.
         -2   -1    0    0    0  501 -0.00000000000E+00 -0.00000000000E+00 -0.10207386133E+04  0.10207386133E+04  0.00000000000E+00 0.  1.
         23    2    1    2    0    0 -0.19190035405E+03 -0.28776609322E+03 -0.93612142674E+03  0.10017271092E+04  0.86595643217E+02 0.  0.
         13    1    3    3    0    0 -0.58700478599E+02 -0.14945696164E+03 -0.35301920972E+03  0.38782172709E+03  0.00000000000E+00 0. -1.
        -13    1    3    3    0    0 -0.13319987545E+03 -0.13830913158E+03 -0.58310221702E+03  0.61390538212E+03  0.00000000000E+00 0.  1.
         22    1    1    2    0    0  0.19190035405E+03  0.28776609322E+03  0.52541513390E+03  0.62904382457E+03  0.00000000000E+00 0. -1.
<mgrwt>
<rscale>  0 0.15782060E+04</rscale>
<asrwt>0</asrwt>
<pdfrwt beam="1">  1        2 0.93851127E-01 0.15782060E+04</pdfrwt>
<pdfrwt beam="2">  1       -2 0.15703671E+00 0.15782060E+04</pdfrwt>
<totfact> 0.12363371E+01</totfact>
</mgrwt>
</event>
<event>
 6    1  0.2236204E-005  0.2772548E+04  0.7818608E-02  0.8311842E-01
          2   -1    0    0  501    0  0.00000000000E+00  0.00000000000E+00  0.29018889458E+04  0.29018889458E+04  0.00000000000E+00 0. -1.
         -2   -1    0    0    0  501 -0.00000000000E+00 -0.00000000000E+00 -0.66224314325E+03  0.66224314325E+03  0.00000000000E+00 0.  1.
         23    2    1    2    0    0 -0.48694142535E+03 -0.38600465249E+03 -0.46981879388E+03  0.78432814942E+03  0.91265565331E+02 0.  0.
         11    1    3    3    0    0 -0.12584297040E+03 -0.53702849774E+02 -0.89819162680E+02  0.16367019049E+03  0.00000000000E+00 0. -1.
        -11    1    3    3    0    0 -0.36109845495E+03 -0.33230180272E+03 -0.37999963120E+03  0.62065795892E+03  0.00000000000E+00 0.  1.
         22    1    1    2    0    0  0.48694142535E+03  0.38600465249E+03  0.27094645965E+04  0.27798039397E+04  0.00000000000E+00 0. -1.
<mgrwt>
<rscale>  0 0.27725483E+04</rscale>
<asrwt>0</asrwt>
<pdfrwt beam="1">  1        2 0.44644444E+00 0.27725483E+04</pdfrwt>
<pdfrwt beam="2">  1       -2 0.10188356E+00 0.27725483E+04</pdfrwt>
<totfact> 0.13801223E+00</totfact>
</mgrwt>
</event>
<event>
 6    1  0.2236204E-005  0.1899366E+04  0.7818608E-02  0.8655172E-01
          2   -1    0    0  501    0  0.00000000000E+00  0.00000000000E+00  0.20302459547E+04  0.20302459547E+04  0.00000000000E+00 0. -1.
         -2   -1    0    0    0  501 -0.00000000000E+00 -0.00000000000E+00 -0.44423070317E+03  0.44423070317E+03  0.00000000000E+00 0.  1.
         23    2    1    2    0    0  0.28716540678E+03 -0.59210502543E+03  0.16833079621E+04  0.18092562406E+04  0.82644522039E+02 0.  0.
         13    1    3    3    0    0  0.20009305926E+03 -0.34402903683E+03  0.93817791517E+03  0.10191030424E+04  0.00000000000E+00 0. -1.
        -13    1    3    3    0    0  0.87072347521E+02 -0.24807598860E+03  0.74513004693E+03  0.79015319822E+03  0.00000000000E+00 0.  1.
         22    1    1    2    0    0 -0.28716540678E+03  0.59210502543E+03 -0.97292710552E+02  0.66522041724E+03  0.00000000000E+00 0.  1.
<mgrwt>
<rscale>  0 0.18993658E+04</rscale>
<asrwt>0</asrwt>
<pdfrwt beam="1">  1        2 0.31234553E+00 0.18993658E+04</pdfrwt>
<pdfrwt beam="2">  1       -2 0.68343186E-01 0.18993658E+04</pdfrwt>
<totfact> 0.11789634E+01</totfact>
</mgrwt>
</event>
<event>
 6    1  0.2236204E-005  0.2941105E+04  0.7818608E-02  0.8260751E-01
         -2   -1    0    0    0  501 -0.00000000000E+00  0.00000000000E+00  0.12771659833E+04  0.12771659833E+04  0.00000000000E+00 0.  1.
          2   -1    0    0  501    0  0.00000000000E+00 -0.00000000000E+00 -0.16932217434E+04  0.16932217434E+04  0.00000000000E+00 0. -1.
         23    2    1    2    0    0  0.79635225329E+03  0.11954724609E+04 -0.51954237080E+03  0.15302346811E+04  0.91447186793E+02 0.  0.
         13    1    3    3    0    0  0.23328337076E+03  0.27918523009E+03 -0.13690743591E+03  0.38872762930E+03  0.00000000000E+00 0.  1.
        -13    1    3    3    0    0  0.56306888252E+03  0.91628723082E+03 -0.38263493489E+03  0.11415070518E+04  0.00000000000E+00 0. -1.
         22    1    1    2    0    0 -0.79635225329E+03 -0.11954724609E+04  0.10348661066E+03  0.14401530456E+04  0.00000000000E+00 0.  1.
<mgrwt>
<rscale>  0 0.29411054E+04</rscale>
<asrwt>0</asrwt>
<pdfrwt beam="1">  1        2 0.26049565E+00 0.29411054E+04</pdfrwt>
<pdfrwt beam="2">  1       -2 0.19648707E+00 0.29411054E+04</pdfrwt>
<totfact> 0.11939154E+00</totfact>
</mgrwt>
</event>
<event>
 6    1  0.2236204E-005  0.6921891E+03  0.7818608E-02  0.9730684E-01
          2   -1    0    0  501    0  0.00000000000E+00  0.00000000000E+00  0.16917393353E+04  0.16917393353E+04  0.00000000000E+00 0.  1.
         -2   -1    0    0    0  501 -0.00000000000E+00 -0.00000000000E+00 -0.70803726854E+02  0.70803726854E+02  0.00000000000E+00 0. -1.
         23    2    1    2    0    0 -0.33778311446E+03 -0.17929909369E+02  0.72634212398E+03  0.80613498162E+03  0.88666867868E+02 0.  0.
         11    1    3    3    0    0 -0.17959950648E+03  0.68604246651E+01  0.28816603902E+03  0.33962142777E+03  0.00000000000E+00 0. -1.
        -11    1    3    3    0    0 -0.15818360798E+03 -0.24790334034E+02  0.43817608497E+03  0.46651355385E+03  0.00000000000E+00 0.  1.
         22    1    1    2    0    0  0.33778311446E+03  0.17929909369E+02  0.89459348443E+03  0.95640808050E+03  0.00000000000E+00 0. -1.
<mgrwt>
<rscale>  0 0.69218914E+03</rscale>
<asrwt>0</asrwt>
<pdfrwt beam="1">  1        2 0.26026756E+00 0.69218914E+03</pdfrwt>
<pdfrwt beam="2">  1       -2 0.10892882E-01 0.69218914E+03</pdfrwt>
<totfact> 0.60322223E+02</totfact>
</mgrwt>
</event>
<event>
 6    1  0.2236204E-005  0.3640364E+04  0.7818608E-02  0.8081308E-01
          2   -1    0    0  501    0  0.00000000000E+00  0.00000000000E+00  0.14755373740E+04  0.14755373740E+04  0.00000000000E+00 0. -1.
         -2   -1    0    0    0  501 -0.00000000000E+00 -0.00000000000E+00 -0.22453256372E+04  0.22453256372E+04  0.00000000000E+00 0.  1.
         23    2    1    2    0    0 -0.15907812249E+04  0.26329106721E+03 -0.12458328089E+04  0.20396356318E+04  0.90039054233E+02 0.  0.
         11    1    3    3    0    0 -0.92039874564E+03  0.11096284797E+03 -0.73775938592E+03  0.11847934487E+04  0.00000000000E+00 0.  1.
        -11    1    3    3    0    0 -0.67038247924E+03  0.15232821924E+03 -0.50807342299E+03  0.85484218310E+03  0.00000000000E+00 0. -1.
         22    1    1    2    0    0  0.15907812249E+04 -0.26329106721E+03  0.47604454570E+03  0.16812273793E+04  0.00000000000E+00 0. -1.
<mgrwt>
<rscale>  0 0.36403637E+04</rscale>
<asrwt>0</asrwt>
<pdfrwt beam="1">  1        2 0.22700575E+00 0.36403637E+04</pdfrwt>
<pdfrwt beam="2">  1       -2 0.34543471E+00 0.36403637E+04</pdfrwt>
<totfact> 0.17690159E-01</totfact>
</mgrwt>
</event>
<event>
 6    1  0.2236204E-005  0.2961840E+04  0.7818608E-02  0.8254712E-01
          2   -1    0    0  501    0  0.00000000000E+00  0.00000000000E+00  0.31800914348E+04  0.31800914348E+04  0.00000000000E+00 0. -1.
         -2   -1    0    0    0  501 -0.00000000000E+00 -0.00000000000E+00 -0.68964185880E+03  0.68964185880E+03  0.00000000000E+00 0.  1.
         23    2    1    2    0    0  0.57329869452E+03 -0.11103570973E+04  0.22812298807E+04  0.26027142892E+04  0.92453371126E+02 0.  0.
         13    1    3    3    0    0  0.35179298223E+03 -0.58362836186E+03  0.12626060215E+04  0.14347662989E+04  0.00000000000E+00 0. -1.
        -13    1    3    3    0    0  0.22150571229E+03 -0.52672873545E+03  0.10186238592E+04  0.11679479902E+04  0.00000000000E+00 0.  1.
         22    1    1    2    0    0 -0.57329869452E+03  0.11103570973E+04  0.20921969529E+03  0.12670190044E+04  0.00000000000E+00 0. -1.
<mgrwt>
<rscale>  0 0.29618401E+04</rscale>
<asrwt>0</asrwt>
<pdfrwt beam="1">  1        2 0.48924483E+00 0.29618401E+04</pdfrwt>
<pdfrwt beam="2">  1       -2 0.10609875E+00 0.29618401E+04</pdfrwt>
<totfact> 0.82196742E-01</totfact>
</mgrwt>
</event>
<event>
 6    1  0.2236204E-005  0.3126572E+04  0.7818608E-02  0.8208483E-01
         -2   -1    0    0    0  501 -0.00000000000E+00  0.00000000000E+00  0.11744945005E+04  0.11744945005E+04  0.00000000000E+00 0.  1.
          2   -1    0    0  501    0  0.00000000000E+00 -0.00000000000E+00 -0.20807792780E+04  0.20807792780E+04  0.00000000000E+00 0. -1.
         23    2    1    2    0    0  0.10993767193E+04  0.92020696108E+02 -0.16047463040E+04  0.19495381685E+04  0.91604535110E+02 0.  0.
         13    1    3    3    0    0  0.84660260611E+03  0.74189778434E+02 -0.13009087300E+04  0.15538994883E+04  0.00000000000E+00 0. -1.
        -13    1    3    3    0    0  0.25277411319E+03  0.17830917674E+02 -0.30383757401E+03  0.39563868024E+03  0.00000000000E+00 0.  1.
         22    1    1    2    0    0 -0.10993767193E+04 -0.92020696108E+02  0.69846152648E+03  0.13057356101E+04  0.00000000000E+00 0.  1.
<mgrwt>
<rscale>  0 0.31265724E+04</rscale>
<asrwt>0</asrwt>
<pdfrwt beam="1">  1        2 0.32011989E+00 0.31265724E+04</pdfrwt>
<pdfrwt beam="2">  1       -2 0.18069146E+00 0.31265724E+04</pdfrwt>
<totfact> 0.91515092E-01</totfact>
</mgrwt>
</event>
<event>
 6    1  0.2236204E-005  0.2234988E+04  0.7818608E-02  0.8504005E-01
          2   -1    0    0  501    0  0.00000000000E+00  0.00000000000E+00  0.70921286349E+03  0.70921286349E+03  0.00000000000E+00 0. -1.
         -2   -1    0    0    0  501 -0.00000000000E+00 -0.00000000000E+00 -0.17608158271E+04  0.17608158271E+04  0.00000000000E+00 0.  1.
         23    2    1    2    0    0  0.49732051336E+03 -0.27998976697E+03 -0.15859923257E+04  0.16881757933E+04  0.94041953703E+02 0.  0.
         11    1    3    3    0    0  0.21500572123E+03 -0.15824145934E+03 -0.63891696648E+03  0.69244690025E+03  0.00000000000E+00 0.  1.
        -11    1    3    3    0    0  0.28231479213E+03 -0.12174830763E+03 -0.94707535927E+03  0.99572889302E+03  0.00000000000E+00 0. -1.
         22    1    1    2    0    0 -0.49732051336E+03  0.27998976697E+03  0.53438936215E+03  0.78185289729E+03  0.00000000000E+00 0. -1.
<mgrwt>
<rscale>  0 0.22349884E+04</rscale>
<asrwt>0</asrwt>
<pdfrwt beam="1">  1        2 0.10910967E+00 0.22349884E+04</pdfrwt>
<pdfrwt beam="2">  1       -2 0.27089474E+00 0.22349884E+04</pdfrwt>
<totfact> 0.17579086E+00</totfact>
</mgrwt>
</event>
<event>
 6    1  0.2236204E-005  0.2346232E+04  0.7818608E-02  0.8459912E-01
         -2   -1    0    0    0  501 -0.00000000000E+00  0.00000000000E+00  0.52721528966E+03  0.52721528966E+03  0.00000000000E+00 0.  1.
          2   -1    0    0  501    0  0.00000000000E+00 -0.00000000000E+00 -0.26103204157E+04  0.26103204157E+04  0.00000000000E+00 0. -1.
         23    2    1    2    0    0  0.34013839693E+03 -0.85173211130E+03 -0.69055113097E+02  0.92449725718E+03  0.93727538101E+02 0.  0.
         13    1    3    3    0    0  0.16041117104E+03 -0.48291212816E+03 -0.73852575868E+02  0.51418874967E+03  0.00000000000E+00 0.  1.
        -13    1    3    3    0    0  0.17972722589E+03 -0.36881998314E+03  0.47974627710E+01  0.41030850751E+03  0.00000000000E+00 0. -1.
         22    1    1    2    0    0 -0.34013839693E+03  0.85173211130E+03 -0.20140500130E+04  0.22130384482E+04  0.00000000000E+00 0. -1.
<mgrwt>
<rscale>  0 0.23462317E+04</rscale>
<asrwt>0</asrwt>
<pdfrwt beam="1">  1        2 0.40158774E+00 0.23462317E+04</pdfrwt>
<pdfrwt beam="2">  1       -2 0.81110047E-01 0.23462317E+04</pdfrwt>
<totfact> 0.36321585E+00</totfact>
</mgrwt>
</event>
<event>
 6    1  0.2236204E-005  0.2695048E+04  0.7818608E-02  0.8336613E-01
         -2   -1    0    0    0  501 -0.00000000000E+00  0.00000000000E+00  0.54811210156E+03  0.54811210156E+03  0.00000000000E+00 0.  1.
          2   -1    0    0  501    0  0.00000000000E+00 -0.00000000000E+00 -0.33128645763E+04  0.33128645763E+04  0.00000000000E+00 0. -1.
         23    2    1    2    0    0  0.47771306666E+03 -0.54111693354E+03 -0.30115120454E+04  0.30981479976E+04  0.91098328300E+02 0.  0.
         13    1    3    3    0    0  0.20067577794E+03 -0.29146976930E+03 -0.13963581677E+04  0.14405004432E+04  0.00000000000E+00 0.  1.
        -13    1    3    3    0    0  0.27703728872E+03 -0.24964716425E+03 -0.16151538777E+04  0.16576475544E+04  0.00000000000E+00 0. -1.
         22    1    1    2    0    0 -0.47771306666E+03  0.54111693354E+03  0.24675957063E+03  0.76282868032E+03  0.00000000000E+00 0.  1.
<mgrwt>
<rscale>  0 0.26950482E+04</rscale>
<asrwt>0</asrwt>
<pdfrwt beam="1">  1        2 0.50967147E+00 0.26950482E+04</pdfrwt>
<pdfrwt beam="2">  1       -2 0.84324940E-01 0.26950482E+04</pdfrwt>
<totfact> 0.11759048E+00</totfact>
</mgrwt>
</event>
<event>
 6    1  0.2236204E-005  0.3124018E+04  0.7818608E-02  0.8209177E-01
          2   -1    0    0  501    0  0.00000000000E+00  0.00000000000E+00  0.23611679818E+04  0.23611679818E+04  0.00000000000E+00 0. -1.
         -2   -1    0    0    0  501 -0.00000000000E+00 -0.00000000000E+00 -0.10333324680E+04  0.10333324680E+04  0.00000000000E+00 0.  1.
         23    2    1    2    0    0  0.54728815046E+02 -0.67618114356E+03  0.21917518923E+04  0.22960616982E+04  0.88920088666E+02 0.  0.
         11    1    3    3    0    0  0.59017233718E+02 -0.49668570405E+03  0.14903574678E+04  0.15720512410E+04  0.00000000000E+00 0. -1.
        -11    1    3    3    0    0 -0.42884186715E+01 -0.17949543951E+03  0.70139442450E+03  0.72401045715E+03  0.00000000000E+00 0.  1.
         22    1    1    2    0    0 -0.54728815046E+02  0.67618114356E+03 -0.86391637848E+03  0.10984387516E+04  0.00000000000E+00 0.  1.
<mgrwt>
<rscale>  0 0.31240176E+04</rscale>
<asrwt>0</asrwt>
<pdfrwt beam="1">  1        2 0.36325661E+00 0.31240176E+04</pdfrwt>
<pdfrwt beam="2">  1       -2 0.15897423E+00 0.31240176E+04</pdfrwt>
<totfact> 0.90875925E-01</totfact>
</mgrwt>
</event>
<event>
 6    1  0.2236204E-005  0.1302474E+04  0.7818608E-02  0.9027606E-01
         -2   -1    0    0    0  501 -0.00000000000E+00  0.00000000000E+00  0.56023807674E+03  0.56023807674E+03  0.00000000000E+00 0.  1.
          2   -1    0    0  501    0  0.00000000000E+00 -0.00000000000E+00 -0.75701623552E+03  0.75701623552E+03  0.00000000000E+00 0. -1.
         23    2    1    2    0    0  0.52130308787E+03  0.36824669835E+03  0.12933126222E+02  0.64543486976E+03  0.95164936136E+02 0.  0.
         11    1    3    3    0    0  0.26518067585E+03  0.15219191372E+03  0.44077464621E+02  0.30891097800E+03  0.00000000000E+00 0. -1.
        -11    1    3    3    0    0  0.25612241202E+03  0.21605478464E+03 -0.31144338399E+02  0.33652389175E+03  0.00000000000E+00 0.  1.
         22    1    1    2    0    0 -0.52130308787E+03 -0.36824669835E+03 -0.20971128500E+03  0.67181944251E+03  0.00000000000E+00 0.  1.
<mgrwt>
<rscale>  0 0.13024735E+04</rscale>
<asrwt>0</asrwt>
<pdfrwt beam="1">  1        2 0.11646404E+00 0.13024735E+04</pdfrwt>
<pdfrwt beam="2">  1       -2 0.86190473E-01 0.13024735E+04</pdfrwt>
<totfact> 0.42396994E+01</totfact>
</mgrwt>
</event>
<event>
 6    1  0.2236204E-005  0.1023463E+04  0.7818608E-02  0.9283179E-01
         -2   -1    0    0    0  501 -0.00000000000E+00  0.00000000000E+00  0.89049351369E+02  0.89049351369E+02  0.00000000000E+00 0.  1.
          2   -1    0    0  501    0  0.00000000000E+00 -0.00000000000E+00 -0.29407168317E+04  0.29407168317E+04  0.00000000000E+00 0. -1.
         23    2    1    2    0    0 -0.23940746245E+03  0.42164063279E+03 -0.18808767880E+04  0.19446250288E+04  0.93660316374E+02 0.  0.
         13    1    3    3    0    0 -0.27066586263E+02  0.11903111651E+03 -0.54809960941E+03  0.56152843973E+03  0.00000000000E+00 0.  1.
        -13    1    3    3    0    0 -0.21234087618E+03  0.30260951628E+03 -0.13327771786E+04  0.13830965891E+04  0.00000000000E+00 0. -1.
         22    1    1    2    0    0  0.23940746245E+03 -0.42164063279E+03 -0.97079069240E+03  0.10851411543E+04  0.00000000000E+00 0.  1.
<mgrwt>
<rscale>  0 0.10234626E+04</rscale>
<asrwt>0</asrwt>
<pdfrwt beam="1">  1        2 0.45241802E+00 0.10234626E+04</pdfrwt>
<pdfrwt beam="2">  1       -2 0.13699899E-01 0.10234626E+04</pdfrwt>
<totfact> 0.79019734E+01</totfact>
</mgrwt>
</event>
<event>
 6    1  0.2236204E-005  0.7124980E+03  0.7818608E-02  0.9696095E-01
          2   -1    0    0  501    0  0.00000000000E+00  0.00000000000E+00  0.98787107332E+03  0.98787107332E+03  0.00000000000E+00 0. -1.
         -2   -1    0    0    0  501 -0.00000000000E+00 -0.00000000000E+00 -0.12847156912E+03  0.12847156912E+03  0.00000000000E+00 0.  1.
         23    2    1    2    0    0 -0.34620775201E+03 -0.44740388585E+02  0.47292697562E+03  0.59555235329E+03  0.95714007928E+02 0.  0.
         11    1    3    3    0    0 -0.21204351584E+03 -0.20339673562E+02  0.20871327061E+03  0.29822371512E+03  0.00000000000E+00 0.  1.
        -11    1    3    3    0    0 -0.13416423617E+03 -0.24400715023E+02  0.26421370501E+03  0.29732863817E+03  0.00000000000E+00 0. -1.
         22    1    1    2    0    0  0.34620775201E+03  0.44740388585E+02  0.38647252858E+03  0.52079028915E+03  0.00000000000E+00 0.  1.
<mgrwt>
<rscale>  0 0.71249799E+03</rscale>
<asrwt>0</asrwt>
<pdfrwt beam="1">  1        2 0.15198016E+00 0.71249799E+03</pdfrwt>
<pdfrwt beam="2">  1       -2 0.19764857E-01 0.71249799E+03</pdfrwt>
<totfact> 0.56250532E+02</totfact>
</mgrwt>
</event>
<event>
 6    1  0.2236204E-005  0.2420373E+04  0.7818608E-02  0.8431915E-01
         -2   -1    0    0    0  501 -0.00000000000E+00  0.00000000000E+00  0.70637906629E+03  0.70637906629E+03  0.00000000000E+00 0.  1.
          2   -1    0    0  501    0  0.00000000000E+00 -0.00000000000E+00 -0.20733227331E+04  0.20733227331E+04  0.00000000000E+00 0. -1.
         23    2    1    2    0    0  0.16036002816E+03  0.69327929388E+03 -0.18061597140E+04  0.19434827766E+04  0.92524983025E+02 0.  0.
         11    1    3    3    0    0  0.45220740685E+02  0.39514292784E+03 -0.97563080981E+03  0.10535835638E+04  0.00000000000E+00 0. -1.
        -11    1    3    3    0    0  0.11513928748E+03  0.29813636604E+03 -0.83052890424E+03  0.88989921287E+03  0.00000000000E+00 0.  1.
         22    1    1    2    0    0 -0.16036002816E+03 -0.69327929388E+03  0.43921604721E+03  0.83621902279E+03  0.00000000000E+00 0.  1.
<mgrwt>
<rscale>  0 0.24203733E+04</rscale>
<asrwt>0</asrwt>
<pdfrwt beam="1">  1        2 0.31897272E+00 0.24203733E+04</pdfrwt>
<pdfrwt beam="2">  1       -2 0.10867370E+00 0.24203733E+04</pdfrwt>
<totfact> 0.36934167E+00</totfact>
</mgrwt>
</event>
<event>
 6    1  0.2236204E-005  0.5042757E+03  0.7818608E-02  0.1012669E+00
         -2   -1    0    0    0  501 -0.00000000000E+00  0.00000000000E+00  0.80389144024E+02  0.80389144024E+02  0.00000000000E+00 0.  1.
          2   -1    0    0  501    0  0.00000000000E+00 -0.00000000000E+00 -0.79082185320E+03  0.79082185320E+03  0.00000000000E+00 0. -1.
         23    2    1    2    0    0 -0.97647400444E+02  0.97288660132E+02 -0.71449953584E+03  0.73331017314E+03  0.90742080185E+02 0.  0.
         11    1    3    3    0    0 -0.10131959253E+03  0.53303634374E+02 -0.41212497528E+03  0.42773114514E+03  0.00000000000E+00 0.  1.
        -11    1    3    3    0    0  0.36721920850E+01  0.43985025758E+02 -0.30237456056E+03  0.30557902801E+03  0.00000000000E+00 0. -1.
         22    1    1    2    0    0  0.97647400444E+02 -0.97288660132E+02  0.40668266603E+01  0.13790082408E+03  0.00000000000E+00 0.  1.
<mgrwt>
<rscale>  0 0.50427569E+03</rscale>
<asrwt>0</asrwt>
<pdfrwt beam="1">  1        2 0.12166490E+00 0.50427569E+03</pdfrwt>
<pdfrwt beam="2">  1       -2 0.12367560E-01 0.50427569E+03</pdfrwt>
<totfact> 0.16975919E+03</totfact>
</mgrwt>
</event>
<event>
 6    1  0.2236204E-005  0.3557057E+04  0.7818608E-02  0.8100400E-01
         -2   -1    0    0    0  501 -0.00000000000E+00  0.00000000000E+00  0.98384140931E+03  0.98384140931E+03  0.00000000000E+00 0.  1.
          2   -1    0    0  501    0  0.00000000000E+00 -0.00000000000E+00 -0.32151144567E+04  0.32151144567E+04  0.00000000000E+00 0. -1.
         23    2    1    2    0    0 -0.15789352986E+04  0.21749364472E+03 -0.20449079454E+04  0.25942527428E+04  0.90325110481E+02 0.  0.
         11    1    3    3    0    0 -0.40230314863E+03  0.29723838820E+02 -0.56674267734E+03  0.69564976268E+03  0.00000000000E+00 0.  1.
        -11    1    3    3    0    0 -0.11766321499E+04  0.18776980590E+03 -0.14781652681E+04  0.18986029801E+04  0.00000000000E+00 0. -1.
         22    1    1    2    0    0  0.15789352986E+04 -0.21749364472E+03 -0.18636510198E+03  0.16047031233E+04  0.00000000000E+00 0.  1.
<mgrwt>
<rscale>  0 0.35570565E+04</rscale>
<asrwt>0</asrwt>
<pdfrwt beam="1">  1        2 0.49463300E+00 0.35570565E+04</pdfrwt>
<pdfrwt beam="2">  1       -2 0.15136022E+00 0.35570565E+04</pdfrwt>
<totfact> 0.30293739E-01</totfact>
</mgrwt>
</event>
<event>
 6    1  0.2236204E-005  0.2232177E+04  0.7818608E-02  0.8505154E-01
         -1   -1    0    0    0  501 -0.00000000000E+00  0.00000000000E+00  0.15130755355E+04  0.15130755355E+04  0.00000000000E+00 0.  1.
          1   -1    0    0  501    0  0.00000000000E+00 -0.00000000000E+00 -0.82325902089E+03  0.82325902089E+03  0.00000000000E+00 0. -1.
         23    2    1    2    0    0  0.63571609699E+03  0.43391988430E+03  0.11886163427E+04  0.14191526276E+04  0.93615961756E+02 0.  0.
         13    1    3    3    0    0  0.19876026139E+03  0.18632577067E+03  0.44700735224E+03  0.52348687403E+03  0.00000000000E+00 0. -1.
        -13    1    3    3    0    0  0.43695583560E+03  0.24759411362E+03  0.74160899047E+03  0.89566575356E+03  0.00000000000E+00 0.  1.
         22    1    1    2    0    0 -0.63571609699E+03 -0.43391988430E+03 -0.49879982811E+03  0.91718192878E+03  0.00000000000E+00 0. -1.
<mgrwt>
<rscale>  0 0.22321766E+04</rscale>
<asrwt>0</asrwt>
<pdfrwt beam="1">  1        1 0.12665523E+00 0.22321766E+04</pdfrwt>
<pdfrwt beam="2">  1       -1 0.23278085E+00 0.22321766E+04</pdfrwt>
<totfact> 0.17359693E+00</totfact>
</mgrwt>
</event>
<event>
 6    1  0.2236204E-005  0.3270679E+04  0.7818608E-02  0.8170396E-01
          2   -1    0    0  501    0  0.00000000000E+00  0.00000000000E+00  0.18334938884E+04  0.18334938884E+04  0.00000000000E+00 0. -1.
         -2   -1    0    0    0  501 -0.00000000000E+00 -0.00000000000E+00 -0.14586007662E+04  0.14586007662E+04  0.00000000000E+00 0.  1.
         23    2    1    2    0    0  0.10464483441E+02  0.94630616155E+03 -0.11532623869E+04  0.14946341914E+04  0.91172234221E+02 0.  0.
         13    1    3    3    0    0  0.24796257180E+02  0.68490971008E+03 -0.77440243747E+03  0.10341253795E+04  0.00000000000E+00 0. -1.
        -13    1    3    3    0    0 -0.14331773739E+02  0.26139645147E+03 -0.37885994944E+03  0.46050881194E+03  0.00000000000E+00 0.  1.
         22    1    1    2    0    0 -0.10464483441E+02 -0.94630616155E+03  0.15281555091E+04  0.17974604632E+04  0.00000000000E+00 0. -1.
<mgrwt>
<rscale>  0 0.32706792E+04</rscale>
<asrwt>0</asrwt>
<pdfrwt beam="1">  1        2 0.28207599E+00 0.32706792E+04</pdfrwt>
<pdfrwt beam="2">  1       -2 0.22440012E+00 0.32706792E+04</pdfrwt>
<totfact> 0.64169920E-01</totfact>
</mgrwt>
</event>
<event>
 6    1  0.2236204E-005  0.2896997E+04  0.7818608E-02  0.8273771E-01
         -2   -1    0    0    0  501 -0.00000000000E+00  0.00000000000E+00  0.17824234174E+04  0.17824234174E+04  0.00000000000E+00 0.  1.
          2   -1    0    0  501    0  0.00000000000E+00 -0.00000000000E+00 -0.11771324052E+04  0.11771324052E+04  0.00000000000E+00 0. -1.
         23    2    1    2    0    0  0.28935830590E+03 -0.68113604198E+03  0.15734687523E+04  0.17409325530E+04  0.85835324525E+02 0.  0.
         13    1    3    3    0    0  0.22960143409E+03 -0.45585213564E+03  0.11307081985E+04  0.12405720528E+04  0.00000000000E+00 0. -1.
        -13    1    3    3    0    0  0.59756871814E+02 -0.22528390634E+03  0.44276055383E+03  0.50036050025E+03  0.00000000000E+00 0.  1.
         22    1    1    2    0    0 -0.28935830590E+03  0.68113604198E+03 -0.96817774006E+03  0.12186232696E+04  0.00000000000E+00 0. -1.
<mgrwt>
<rscale>  0 0.28969973E+04</rscale>
<asrwt>0</asrwt>
<pdfrwt beam="1">  1        2 0.18109729E+00 0.28969973E+04</pdfrwt>
<pdfrwt beam="2">  1       -2 0.27421899E+00 0.28969973E+04</pdfrwt>
<totfact> 0.77082090E-01</totfact>
</mgrwt>
</event>
<event>
 6    1  0.2236204E-005  0.2474686E+04  0.7818608E-02  0.8412060E-01
          1   -1    0    0  501    0  0.00000000000E+00  0.00000000000E+00  0.13324957942E+04  0.13324957942E+04  0.00000000000E+00 0. -1.
         -1   -1    0    0    0  501 -0.00000000000E+00 -0.00000000000E+00 -0.11489847254E+04  0.11489847254E+04  0.00000000000E+00 0.  1.
         23    2    1    2    0    0 -0.72500802850E+03 -0.79979564171E+03  0.69445751858E+03  0.12871706835E+04  0.96059427260E+02 0.  0.
         13    1    3    3    0    0 -0.38961332046E+03 -0.38571860369E+03  0.39705326921E+03  0.67692590385E+03  0.00000000000E+00 0.  1.
        -13    1    3    3    0    0 -0.33539470805E+03 -0.41407703801E+03  0.29740424936E+03  0.61024477969E+03  0.00000000000E+00 0. -1.
         22    1    1    2    0    0  0.72500802850E+03  0.79979564171E+03 -0.51094644986E+03  0.11943098361E+04  0.00000000000E+00 0.  1.
<mgrwt>
<rscale>  0 0.24746857E+04</rscale>
<asrwt>0</asrwt>
<pdfrwt beam="1">  1        1 0.20499935E+00 0.24746857E+04</pdfrwt>
<pdfrwt beam="2">  1       -1 0.17676688E+00 0.24746857E+04</pdfrwt>
<totfact> 0.16767853E+00</totfact>
</mgrwt>
</event>
<event>
 6    1  0.2236204E-005  0.1470910E+04  0.7818608E-02  0.8904031E-01
         -2   -1    0    0    0  501 -0.00000000000E+00  0.00000000000E+00  0.12791305401E+04  0.12791305401E+04  0.00000000000E+00 0.  1.
          2   -1    0    0  501    0  0.00000000000E+00 -0.00000000000E+00 -0.42286070775E+03  0.42286070775E+03  0.00000000000E+00 0. -1.
         23    2    1    2    0    0 -0.43231271303E+03 -0.18414430159E+02 -0.25420077238E+03  0.51019498293E+03  0.91910363111E+02 0.  0.
         11    1    3    3    0    0 -0.17917735472E+03  0.37425533353E+02 -0.10006724772E+03  0.20861123905E+03  0.00000000000E+00 0. -1.
        -11    1    3    3    0    0 -0.25313535831E+03 -0.55839963512E+02 -0.15413352467E+03  0.30158374389E+03  0.00000000000E+00 0.  1.
         22    1    1    2    0    0  0.43231271303E+03  0.18414430159E+02  0.11104706047E+04  0.11917962649E+04  0.00000000000E+00 0.  1.
<mgrwt>
<rscale>  0 0.14709100E+04</rscale>
<asrwt>0</asrwt>
<pdfrwt beam="1">  1        2 0.65055494E-01 0.14709100E+04</pdfrwt>
<pdfrwt beam="2">  1       -2 0.19678931E+00 0.14709100E+04</pdfrwt>
<totfact> 0.10085408E+01</totfact>
</mgrwt>
</event>
<event>
 6    1  0.2236204E-005  0.2680169E+04  0.7818608E-02  0.8341468E-01
         -4   -1    0    0    0  501 -0.00000000000E+00  0.00000000000E+00  0.10374901033E+04  0.10374901033E+04  0.00000000000E+00 0.  1.
          4   -1    0    0  501    0  0.00000000000E+00 -0.00000000000E+00 -0.17309332191E+04  0.17309332191E+04  0.00000000000E+00 0. -1.
         23    2    1    2    0    0  0.92647255945E+03  0.48239024261E+03 -0.12116365906E+04  0.16024146489E+04  0.92831727864E+02 0.  0.
         13    1    3    3    0    0  0.13761941262E+03  0.45831693620E+02 -0.13528697658E+03  0.19834871541E+03  0.00000000000E+00 0. -1.
        -13    1    3    3    0    0  0.78885314682E+03  0.43655854899E+03 -0.10763496140E+04  0.14040659334E+04  0.00000000000E+00 0.  1.
         22    1    1    2    0    0 -0.92647255945E+03 -0.48239024261E+03  0.51819347470E+03  0.11660086736E+04  0.00000000000E+00 0.  1.
<mgrwt>
<rscale>  0 0.26801687E+04</rscale>
<asrwt>0</asrwt>
<pdfrwt beam="1">  1        4 0.26629742E+00 0.26801687E+04</pdfrwt>
<pdfrwt beam="2">  1       -4 0.15961386E+00 0.26801687E+04</pdfrwt>
<totfact> 0.22050340E-02</totfact>
</mgrwt>
</event>
<event>
 6    1  0.2236204E-005  0.1542158E+04  0.7818608E-02  0.8856892E-01
          2   -1    0    0  501    0  0.00000000000E+00  0.00000000000E+00  0.12960210586E+04  0.12960210586E+04  0.00000000000E+00 0.  1.
         -2   -1    0    0    0  501 -0.00000000000E+00 -0.00000000000E+00 -0.45876013220E+03  0.45876013220E+03  0.00000000000E+00 0. -1.
         23    2    1    2    0    0 -0.61933962798E+03 -0.39421930991E+03  0.67786364137E+03  0.10035169672E+04  0.92502692672E+02 0.  0.
         11    1    3    3    0    0 -0.35824939047E+03 -0.27586419126E+03  0.38740598650E+03  0.59542176326E+03  0.00000000000E+00 0.  1.
        -11    1    3    3    0    0 -0.26109023752E+03 -0.11835511864E+03  0.29045765487E+03  0.40809520398E+03  0.00000000000E+00 0. -1.
         22    1    1    2    0    0  0.61933962798E+03  0.39421930991E+03  0.15939728502E+03  0.75126422354E+03  0.00000000000E+00 0. -1.
<mgrwt>
<rscale>  0 0.15421580E+04</rscale>
<asrwt>0</asrwt>
<pdfrwt beam="1">  1        2 0.19938785E+00 0.15421580E+04</pdfrwt>
<pdfrwt beam="2">  1       -2 0.70578483E-01 0.15421580E+04</pdfrwt>
<totfact> 0.29226423E+01</totfact>
</mgrwt>
</event>
<event>
 6    1  0.2236204E-005  0.2713894E+04  0.7818608E-02  0.8330511E-01
          2   -1    0    0  501    0  0.00000000000E+00  0.00000000000E+00  0.12666194278E+04  0.12666194278E+04  0.00000000000E+00 0.  1.
         -2   -1    0    0    0  501 -0.00000000000E+00 -0.00000000000E+00 -0.14537161193E+04  0.14537161193E+04  0.00000000000E+00 0. -1.
         23    2    1    2    0    0 -0.67426254633E+03  0.11687849395E+04  0.35308373097E+02  0.13528004546E+04  0.90189648007E+02 0.  0.
         11    1    3    3    0    0 -0.57881171923E+03  0.97191319214E+03  0.20073356512E+00  0.11312109881E+04  0.00000000000E+00 0. -1.
        -11    1    3    3    0    0 -0.95450827101E+02  0.19687174738E+03  0.35107639532E+02  0.22158946650E+03  0.00000000000E+00 0.  1.
         22    1    1    2    0    0  0.67426254633E+03 -0.11687849395E+04 -0.22240506459E+03  0.13675350924E+04  0.00000000000E+00 0. -1.
<mgrwt>
<rscale>  0 0.27138939E+04</rscale>
<asrwt>0</asrwt>
<pdfrwt beam="1">  1        2 0.19486453E+00 0.27138939E+04</pdfrwt>
<pdfrwt beam="2">  1       -2 0.22364863E+00 0.27138939E+04</pdfrwt>
<totfact> 0.14202880E+00</totfact>
</mgrwt>
</event>
<event>
 6    1  0.2236204E-005  0.1484847E+04  0.7818608E-02  0.8894592E-01
         -2   -1    0    0    0  501 -0.00000000000E+00  0.00000000000E+00  0.51057356874E+03  0.51057356874E+03  0.00000000000E+00 0. -1.
          2   -1    0    0  501    0  0.00000000000E+00 -0.00000000000E+00 -0.10795562637E+04  0.10795562637E+04  0.00000000000E+00 0.  1.
         23    2    1    2    0    0 -0.34319644125E+03  0.48767658164E+03  0.18322858805E+03  0.63021626349E+03  0.89373249446E+02 0.  0.
         11    1    3    3    0    0 -0.74166508216E+02  0.17718099806E+03  0.53575036401E+02  0.19940928148E+03  0.00000000000E+00 0. -1.
        -11    1    3    3    0    0 -0.26902993303E+03  0.31049558358E+03  0.12965355165E+03  0.43080698201E+03  0.00000000000E+00 0.  1.
         22    1    1    2    0    0  0.34319644125E+03 -0.48767658164E+03 -0.75221128296E+03  0.95991356891E+03  0.00000000000E+00 0.  1.
<mgrwt>
<rscale>  0 0.14848473E+04</rscale>
<asrwt>0</asrwt>
<pdfrwt beam="1">  1        2 0.16608558E+00 0.14848473E+04</pdfrwt>
<pdfrwt beam="2">  1       -2 0.78549780E-01 0.14848473E+04</pdfrwt>
<totfact> 0.31257545E+01</totfact>
</mgrwt>
</event>
<event>
 6    1  0.2236204E-005  0.1827391E+04  0.7818608E-02  0.8691867E-01
         -2   -1    0    0    0  501 -0.00000000000E+00  0.00000000000E+00  0.51694949951E+03  0.51694949951E+03  0.00000000000E+00 0.  1.
          2   -1    0    0  501    0  0.00000000000E+00 -0.00000000000E+00 -0.16149346822E+04  0.16149346822E+04  0.00000000000E+00 0. -1.
         23    2    1    2    0    0  0.53429312625E+03  0.42896862698E+03  0.15052170203E+03  0.70771682185E+03  0.93397481030E+02 0.  0.
         11    1    3    3    0    0  0.18897385395E+03  0.11536133146E+03  0.14774216028E+02  0.22189554239E+03  0.00000000000E+00 0. -1.
        -11    1    3    3    0    0  0.34531927230E+03  0.31360729552E+03  0.13574748600E+03  0.48582127947E+03  0.00000000000E+00 0.  1.
         22    1    1    2    0    0 -0.53429312625E+03 -0.42896862698E+03 -0.12485068847E+04  0.14241673598E+04  0.00000000000E+00 0. -1.
<mgrwt>
<rscale>  0 0.18273912E+04</rscale>
<asrwt>0</asrwt>
<pdfrwt beam="1">  1        2 0.24845149E+00 0.18273912E+04</pdfrwt>
<pdfrwt beam="2">  1       -2 0.79530692E-01 0.18273912E+04</pdfrwt>
<totfact> 0.14433518E+01</totfact>
</mgrwt>
</event>
<event>
 6    1  0.2236204E-005  0.5347784E+04  0.7818608E-02  0.7776989E-01
         -2   -1    0    0    0  501 -0.00000000000E+00  0.00000000000E+00  0.47055298715E+04  0.47055298715E+04  0.00000000000E+00 0.  1.
          2   -1    0    0  501    0  0.00000000000E+00 -0.00000000000E+00 -0.15194247470E+04  0.15194247470E+04  0.00000000000E+00 0. -1.
         23    2    1    2    0    0  0.86801761852E+03  0.27618012541E+03 -0.13317621362E+04  0.16161744508E+04  0.93270682731E+02 0.  0.
         11    1    3    3    0    0  0.59637433645E+03  0.23067883987E+03 -0.89943469531E+03  0.11035659688E+04  0.00000000000E+00 0. -1.
        -11    1    3    3    0    0  0.27164328207E+03  0.45501285543E+02 -0.43232744091E+03  0.51260848203E+03  0.00000000000E+00 0.  1.
         22    1    1    2    0    0 -0.86801761852E+03 -0.27618012541E+03  0.45178672608E+04  0.46087801677E+04  0.00000000000E+00 0.  1.
<mgrwt>
<rscale>  0 0.53477840E+04</rscale>
<asrwt>0</asrwt>
<pdfrwt beam="1">  1        2 0.23375765E+00 0.53477840E+04</pdfrwt>
<pdfrwt beam="2">  1       -2 0.72392767E+00 0.53477840E+04</pdfrwt>
<totfact> 0.16382666E-03</totfact>
</mgrwt>
</event>
<event>
 6    1  0.2236204E-005  0.2573214E+04  0.7818608E-02  0.8377357E-01
          2   -1    0    0  501    0  0.00000000000E+00  0.00000000000E+00  0.96130606541E+03  0.96130606541E+03  0.00000000000E+00 0. -1.
         -2   -1    0    0    0  501 -0.00000000000E+00 -0.00000000000E+00 -0.17219874824E+04  0.17219874824E+04  0.00000000000E+00 0.  1.
         23    2    1    2    0    0  0.56856036778E+02  0.10895810729E+04 -0.10885349945E+04  0.15440361178E+04  0.93378666978E+02 0.  0.
         13    1    3    3    0    0  0.58480321704E+02  0.32376018374E+03 -0.34171294061E+03  0.47435043837E+03  0.00000000000E+00 0. -1.
        -13    1    3    3    0    0 -0.16242849258E+01  0.76582088920E+03 -0.74682205385E+03  0.10696856794E+04  0.00000000000E+00 0.  1.
         22    1    1    2    0    0 -0.56856036778E+02 -0.10895810729E+04  0.32785357752E+03  0.11392574300E+04  0.00000000000E+00 0. -1.
<mgrwt>
<rscale>  0 0.25732136E+04</rscale>
<asrwt>0</asrwt>
<pdfrwt beam="1">  1        2 0.14789324E+00 0.25732136E+04</pdfrwt>
<pdfrwt beam="2">  1       -2 0.26492115E+00 0.25732136E+04</pdfrwt>
<totfact> 0.12316345E+00</totfact>
</mgrwt>
</event>
<event>
 6    1  0.2236204E-005  0.2480892E+04  0.7818608E-02  0.8409824E-01
          2   -1    0    0  501    0  0.00000000000E+00  0.00000000000E+00  0.79840184647E+03  0.79840184647E+03  0.00000000000E+00 0. -1.
         -2   -1    0    0    0  501 -0.00000000000E+00 -0.00000000000E+00 -0.19272336227E+04  0.19272336227E+04  0.00000000000E+00 0.  1.
         23    2    1    2    0    0 -0.61003206896E+03  0.98038783032E+03 -0.72315123455E+02  0.11605390311E+04  0.91224681761E+02 0.  0.
         13    1    3    3    0    0 -0.26567390676E+03  0.34479744646E+03 -0.18983154487E+02  0.43569285509E+03  0.00000000000E+00 0. -1.
        -13    1    3    3    0    0 -0.34435816220E+03  0.63559038385E+03 -0.53331968968E+02  0.72484617598E+03  0.00000000000E+00 0.  1.
         22    1    1    2    0    0  0.61003206896E+03 -0.98038783032E+03 -0.10565166528E+04  0.15650964381E+04  0.00000000000E+00 0.  1.
<mgrwt>
<rscale>  0 0.24808925E+04</rscale>
<asrwt>0</asrwt>
<pdfrwt beam="1">  1        2 0.12283106E+00 0.24808925E+04</pdfrwt>
<pdfrwt beam="2">  1       -2 0.29649748E+00 0.24808925E+04</pdfrwt>
<totfact> 0.10303789E+00</totfact>
</mgrwt>
</event>
<event>
 6    1  0.2236204E-005  0.1373821E+04  0.7818608E-02  0.8972989E-01
         -2   -1    0    0    0  501 -0.00000000000E+00  0.00000000000E+00  0.49607373191E+03  0.49607373191E+03  0.00000000000E+00 0. -1.
          2   -1    0    0  501    0  0.00000000000E+00 -0.00000000000E+00 -0.95116116423E+03  0.95116116423E+03  0.00000000000E+00 0.  1.
         23    2    1    2    0    0  0.65262817924E+02  0.29557143729E+03  0.41758724722E+03  0.52355594421E+03  0.90055581333E+02 0.  0.
         11    1    3    3    0    0  0.14486952896E+02  0.22549435128E+03  0.26611308829E+03  0.34910421083E+03  0.00000000000E+00 0.  1.
        -11    1    3    3    0    0  0.50775865028E+02  0.70077086010E+02  0.15147415894E+03  0.17445173338E+03  0.00000000000E+00 0. -1.
         22    1    1    2    0    0 -0.65262817924E+02 -0.29557143729E+03 -0.87267467954E+03  0.92367895194E+03  0.00000000000E+00 0.  1.
<mgrwt>
<rscale>  0 0.13738210E+04</rscale>
<asrwt>0</asrwt>
<pdfrwt beam="1">  1        2 0.14633249E+00 0.13738210E+04</pdfrwt>
<pdfrwt beam="2">  1       -2 0.76319036E-01 0.13738210E+04</pdfrwt>
<totfact> 0.40607915E+01</totfact>
</mgrwt>
</event>
<event>
 6    1  0.2236204E-005  0.2659969E+04  0.7818608E-02  0.8348112E-01
          2   -1    0    0  501    0  0.00000000000E+00  0.00000000000E+00  0.23617883510E+04  0.23617883510E+04  0.00000000000E+00 0. -1.
         -2   -1    0    0    0  501 -0.00000000000E+00 -0.00000000000E+00 -0.74894913026E+03  0.74894913026E+03  0.00000000000E+00 0.  1.
         23    2    1    2    0    0 -0.16010616252E+03  0.67406426151E+03 -0.51836092628E+03  0.86975317105E+03  0.88181158619E+02 0.  0.
         13    1    3    3    0    0 -0.15204514187E+03  0.52207810506E+03 -0.43405711636E+03  0.69576494106E+03  0.00000000000E+00 0.  1.
        -13    1    3    3    0    0 -0.80610206445E+01  0.15198615645E+03 -0.84303809916E+02  0.17398822999E+03  0.00000000000E+00 0. -1.
         22    1    1    2    0    0  0.16010616252E+03 -0.67406426151E+03  0.21312001470E+04  0.22409843102E+04  0.00000000000E+00 0. -1.
<mgrwt>
<rscale>  0 0.26599694E+04</rscale>
<asrwt>0</asrwt>
<pdfrwt beam="1">  1        2 0.36335205E+00 0.26599694E+04</pdfrwt>
<pdfrwt beam="2">  1       -2 0.11522294E+00 0.26599694E+04</pdfrwt>
<totfact> 0.21592250E+00</totfact>
</mgrwt>
</event>
<event>
 6    1  0.2236204E-005  0.1172281E+04  0.7818608E-02  0.9137471E-01
          2   -1    0    0  501    0  0.00000000000E+00  0.00000000000E+00  0.14311041018E+04  0.14311041018E+04  0.00000000000E+00 0.  1.
         -2   -1    0    0    0  501 -0.00000000000E+00 -0.00000000000E+00 -0.24006681915E+03  0.24006681915E+03  0.00000000000E+00 0. -1.
         23    2    1    2    0    0  0.24835633150E+03  0.33133068974E+03  0.15577161388E+02  0.42490955590E+03  0.94045677073E+02 0.  0.
         11    1    3    3    0    0  0.16269395232E+03  0.16037427225E+03  0.40706310664E+02  0.23204791111E+03  0.00000000000E+00 0.  1.
        -11    1    3    3    0    0  0.85662379177E+02  0.17095641749E+03 -0.25129149275E+02  0.19286164479E+03  0.00000000000E+00 0. -1.
         22    1    1    2    0    0 -0.24835633150E+03 -0.33133068974E+03  0.11754601213E+04  0.12462613651E+04  0.00000000000E+00 0.  1.
<mgrwt>
<rscale>  0 0.11722809E+04</rscale>
<asrwt>0</asrwt>
<pdfrwt beam="1">  1        2 0.22016986E+00 0.11722809E+04</pdfrwt>
<pdfrwt beam="2">  1       -2 0.36933358E-01 0.11722809E+04</pdfrwt>
<totfact> 0.94780691E+01</totfact>
</mgrwt>
</event>
<event>
 6    1  0.2236204E-005  0.2911468E+04  0.7818608E-02  0.8269474E-01
         -2   -1    0    0    0  501 -0.00000000000E+00  0.00000000000E+00  0.20853640004E+04  0.20853640004E+04  0.00000000000E+00 0.  1.
          2   -1    0    0  501    0  0.00000000000E+00 -0.00000000000E+00 -0.10162067434E+04  0.10162067434E+04  0.00000000000E+00 0. -1.
         23    2    1    2    0    0 -0.12815700206E+04 -0.86361724499E+01 -0.19705711130E+03  0.12999617052E+04  0.92588490887E+02 0.  0.
         13    1    3    3    0    0 -0.73044569527E+03 -0.31983442706E+02 -0.74839102332E+02  0.73496581252E+03  0.00000000000E+00 0. -1.
        -13    1    3    3    0    0 -0.55112432535E+03  0.23347270256E+02 -0.12221800896E+03  0.56499589268E+03  0.00000000000E+00 0.  1.
         22    1    1    2    0    0  0.12815700206E+04  0.86361724499E+01  0.12662143683E+04  0.18016090386E+04  0.00000000000E+00 0.  1.
<mgrwt>
<rscale>  0 0.29114676E+04</rscale>
<asrwt>0</asrwt>
<pdfrwt beam="1">  1        2 0.15633950E+00 0.29114676E+04</pdfrwt>
<pdfrwt beam="2">  1       -2 0.32082523E+00 0.29114676E+04</pdfrwt>
<totfact> 0.50177296E-01</totfact>
</mgrwt>
</event>
<event>
 6    1  0.2236204E-005  0.2322332E+04  0.7818608E-02  0.8469168E-01
         -2   -1    0    0    0  501 -0.00000000000E+00  0.00000000000E+00  0.87258358068E+03  0.87258358068E+03  0.00000000000E+00 0.  1.
          2   -1    0    0  501    0  0.00000000000E+00 -0.00000000000E+00 -0.15451887605E+04  0.15451887605E+04  0.00000000000E+00 0. -1.
         23    2    1    2    0    0  0.34583178701E+03  0.79523243012E+03  0.46448344337E+03  0.98774969107E+03  0.88940093393E+02 0.  0.
         11    1    3    3    0    0  0.20834849705E+03  0.57439783197E+03  0.34206698405E+03  0.70025123147E+03  0.00000000000E+00 0. -1.
        -11    1    3    3    0    0  0.13748328996E+03  0.22083459815E+03  0.12241645932E+03  0.28749845960E+03  0.00000000000E+00 0.  1.
         22    1    1    2    0    0 -0.34583178701E+03 -0.79523243012E+03 -0.11370886232E+04  0.14300226501E+04  0.00000000000E+00 0. -1.
<mgrwt>
<rscale>  0 0.23223319E+04</rscale>
<asrwt>0</asrwt>
<pdfrwt beam="1">  1        2 0.23772134E+00 0.23223319E+04</pdfrwt>
<pdfrwt beam="2">  1       -2 0.13424363E+00 0.23223319E+04</pdfrwt>
<totfact> 0.43362616E+00</totfact>
</mgrwt>
</event>
<event>
 6    1  0.2236204E-005  0.2237323E+04  0.7818608E-02  0.8503052E-01
         -1   -1    0    0    0  501 -0.00000000000E+00  0.00000000000E+00  0.72805668882E+03  0.72805668882E+03  0.00000000000E+00 0.  1.
          1   -1    0    0  501    0  0.00000000000E+00 -0.00000000000E+00 -0.17188264876E+04  0.17188264876E+04  0.00000000000E+00 0. -1.
         23    2    1    2    0    0  0.40996620149E+03 -0.79865838046E+03  0.23031375270E+03  0.93130654202E+03  0.91432792208E+02 0.  0.
         13    1    3    3    0    0  0.25652311770E+03 -0.58541408335E+03  0.14886769188E+03  0.65625859887E+03  0.00000000000E+00 0. -1.
        -13    1    3    3    0    0  0.15344308378E+03 -0.21324429711E+03  0.81446060824E+02  0.27504794315E+03  0.00000000000E+00 0.  1.
         22    1    1    2    0    0 -0.40996620149E+03  0.79865838046E+03 -0.12210835515E+04  0.15155766344E+04  0.00000000000E+00 0. -1.
<mgrwt>
<rscale>  0 0.22373226E+04</rscale>
<asrwt>0</asrwt>
<pdfrwt beam="1">  1        1 0.26443484E+00 0.22373226E+04</pdfrwt>
<pdfrwt beam="2">  1       -1 0.11200872E+00 0.22373226E+04</pdfrwt>
<totfact> 0.30738383E+00</totfact>
</mgrwt>
</event>
<event>
 6    1  0.2236204E-005  0.1574099E+04  0.7818608E-02  0.8836620E-01
         -2   -1    0    0    0  501 -0.00000000000E+00  0.00000000000E+00  0.94868910355E+03  0.94868910355E+03  0.00000000000E+00 0.  1.
          2   -1    0    0  501    0  0.00000000000E+00 -0.00000000000E+00 -0.65295015197E+03  0.65295015197E+03  0.00000000000E+00 0. -1.
         23    2    1    2    0    0 -0.21432701144E+02  0.77974765859E+03  0.23194874305E+03  0.81899312702E+03  0.92107279521E+02 0.  0.
         13    1    3    3    0    0 -0.35742043246E+02  0.44685084590E+03  0.92156583946E+02  0.45765271560E+03  0.00000000000E+00 0.  1.
        -13    1    3    3    0    0  0.14309342101E+02  0.33289681270E+03  0.13979215911E+03  0.36134041142E+03  0.00000000000E+00 0. -1.
         22    1    1    2    0    0  0.21432701144E+02 -0.77974765859E+03  0.63790208531E+02  0.78264612851E+03  0.00000000000E+00 0.  1.
<mgrwt>
<rscale>  0 0.15740987E+04</rscale>
<asrwt>0</asrwt>
<pdfrwt beam="1">  1        2 0.10045387E+00 0.15740987E+04</pdfrwt>
<pdfrwt beam="2">  1       -2 0.14595217E+00 0.15740987E+04</pdfrwt>
<totfact> 0.13828303E+01</totfact>
</mgrwt>
</event>
<event>
 6    1  0.2236204E-005  0.2282130E+04  0.7818608E-02  0.8485000E-01
         -2   -1    0    0    0  501 -0.00000000000E+00  0.00000000000E+00  0.41645595026E+03  0.41645595026E+03  0.00000000000E+00 0.  1.
          2   -1    0    0  501    0  0.00000000000E+00 -0.00000000000E+00 -0.31264527912E+04  0.31264527912E+04  0.00000000000E+00 0. -1.
         23    2    1    2    0    0  0.15202007525E+03  0.10972874358E+04 -0.17701946520E+04  0.20901947385E+04  0.90416363748E+02 0.  0.
         13    1    3    3    0    0  0.10116289297E+03  0.49722719025E+03 -0.86939932076E+03  0.10066399498E+04  0.00000000000E+00 0. -1.
        -13    1    3    3    0    0  0.50857182280E+02  0.60006024557E+03 -0.90079533119E+03  0.10835547886E+04  0.00000000000E+00 0.  1.
         22    1    1    2    0    0 -0.15202007525E+03 -0.10972874358E+04 -0.93980218899E+03  0.14527140030E+04  0.00000000000E+00 0. -1.
<mgrwt>
<rscale>  0 0.22821305E+04</rscale>
<asrwt>0</asrwt>
<pdfrwt beam="1">  1        2 0.48099272E+00 0.22821305E+04</pdfrwt>
<pdfrwt beam="2">  1       -2 0.64070148E-01 0.22821305E+04</pdfrwt>
<totfact> 0.29625306E+00</totfact>
</mgrwt>
</event>
<event>
 6    1  0.2236204E-005  0.3223537E+04  0.7818608E-02  0.8182629E-01
         -2   -1    0    0    0  501 -0.00000000000E+00  0.00000000000E+00  0.14129635902E+04  0.14129635902E+04  0.00000000000E+00 0.  1.
          2   -1    0    0  501    0  0.00000000000E+00 -0.00000000000E+00 -0.18385449243E+04  0.18385449243E+04  0.00000000000E+00 0. -1.
         23    2    1    2    0    0 -0.89995966377E+03 -0.40163365336E+03  0.10719362318E+04  0.14588022228E+04  0.88428798080E+02 0.  0.
         13    1    3    3    0    0 -0.70015371114E+03 -0.27683868115E+03  0.78797081275E+03  0.10898407573E+04  0.00000000000E+00 0. -1.
        -13    1    3    3    0    0 -0.19980595263E+03 -0.12479497221E+03  0.28396541903E+03  0.36896146547E+03  0.00000000000E+00 0.  1.
         22    1    1    2    0    0  0.89995966377E+03  0.40163365336E+03 -0.14975175659E+04  0.17927062917E+04  0.00000000000E+00 0. -1.
<mgrwt>
<rscale>  0 0.32235366E+04</rscale>
<asrwt>0</asrwt>
<pdfrwt beam="1">  1        2 0.28285306E+00 0.32235366E+04</pdfrwt>
<pdfrwt beam="2">  1       -2 0.21737901E+00 0.32235366E+04</pdfrwt>
<totfact> 0.70901513E-01</totfact>
</mgrwt>
</event>
<event>
 6    1  0.2236204E-005  0.1815143E+04  0.7818608E-02  0.8698288E-01
         -2   -1    0    0    0  501 -0.00000000000E+00  0.00000000000E+00  0.95998468435E+03  0.95998468435E+03  0.00000000000E+00 0.  1.
          2   -1    0    0  501    0  0.00000000000E+00 -0.00000000000E+00 -0.85801952899E+03  0.85801952899E+03  0.00000000000E+00 0. -1.
         23    2    1    2    0    0 -0.40322415996E+03 -0.15313300721E+03  0.84665121350E+03  0.95742489320E+03  0.11749343694E+03 0.  0.
         13    1    3    3    0    0 -0.90085386904E+02 -0.21566153882E+02  0.29878027580E+03  0.31281005280E+03  0.00000000000E+00 0. -1.
        -13    1    3    3    0    0 -0.31313877305E+03 -0.13156685332E+03  0.54787093771E+03  0.64461484040E+03  0.00000000000E+00 0.  1.
         22    1    1    2    0    0  0.40322415996E+03  0.15313300721E+03 -0.74468605814E+03  0.86057932014E+03  0.00000000000E+00 0. -1.
<mgrwt>
<rscale>  0 0.18151425E+04</rscale>
<asrwt>0</asrwt>
<pdfrwt beam="1">  1        2 0.13200301E+00 0.18151425E+04</pdfrwt>
<pdfrwt beam="2">  1       -2 0.14768995E+00 0.18151425E+04</pdfrwt>
<totfact> 0.92208519E+00</totfact>
</mgrwt>
</event>
<event>
 6    1  0.2236204E-005  0.2300143E+04  0.7818608E-02  0.8477865E-01
         -2   -1    0    0    0  501 -0.00000000000E+00  0.00000000000E+00  0.62147043336E+03  0.62147043336E+03  0.00000000000E+00 0.  1.
          2   -1    0    0  501    0  0.00000000000E+00 -0.00000000000E+00 -0.21282815050E+04  0.21282815050E+04  0.00000000000E+00 0. -1.
         23    2    1    2    0    0 -0.35750301561E+03 -0.10575942835E+04 -0.43326552762E+03  0.12009413916E+04  0.90703549238E+02 0.  0.
         13    1    3    3    0    0 -0.14587605265E+03 -0.41768574574E+03 -0.21932790670E+03  0.49380758964E+03  0.00000000000E+00 0. -1.
        -13    1    3    3    0    0 -0.21162696296E+03 -0.63990853779E+03 -0.21393762092E+03  0.70713380194E+03  0.00000000000E+00 0.  1.
         22    1    1    2    0    0  0.35750301561E+03  0.10575942835E+04 -0.10735455440E+04  0.15488105468E+04  0.00000000000E+00 0. -1.
<mgrwt>
<rscale>  0 0.23001426E+04</rscale>
<asrwt>0</asrwt>
<pdfrwt beam="1">  1        2 0.32742792E+00 0.23001426E+04</pdfrwt>
<pdfrwt beam="2">  1       -2 0.95610837E-01 0.23001426E+04</pdfrwt>
<totfact> 0.47153519E+00</totfact>
</mgrwt>
</event>
<event>
 6    1  0.2236204E-005  0.2999472E+04  0.7818608E-02  0.8243882E-01
         -2   -1    0    0    0  501 -0.00000000000E+00  0.00000000000E+00  0.12034547705E+04  0.12034547705E+04  0.00000000000E+00 0.  1.
          2   -1    0    0  501    0  0.00000000000E+00 -0.00000000000E+00 -0.18689598021E+04  0.18689598021E+04  0.00000000000E+00 0. -1.
         23    2    1    2    0    0 -0.58106817355E+03 -0.51728514392E+03  0.97846131375E+03  0.12536651432E+04  0.95213477314E+02 0.  0.
         11    1    3    3    0    0 -0.46870020455E+03 -0.40215357113E+03  0.71320060794E+03  0.94343122891E+03  0.00000000000E+00 0.  1.
        -11    1    3    3    0    0 -0.11236796900E+03 -0.11513157280E+03  0.26526070581E+03  0.31023391426E+03  0.00000000000E+00 0. -1.
         22    1    1    2    0    0  0.58106817355E+03  0.51728514392E+03 -0.16439663454E+04  0.18187494295E+04  0.00000000000E+00 0. -1.
<mgrwt>
<rscale>  0 0.29994723E+04</rscale>
<asrwt>0</asrwt>
<pdfrwt beam="1">  1        2 0.28753228E+00 0.29994723E+04</pdfrwt>
<pdfrwt beam="2">  1       -2 0.18514689E+00 0.29994723E+04</pdfrwt>
<totfact> 0.11307624E+00</totfact>
</mgrwt>
</event>
<event>
 6    1  0.2236204E-005  0.4589927E+04  0.7818608E-02  0.7895080E-01
          2   -1    0    0  501    0  0.00000000000E+00  0.00000000000E+00  0.37070905303E+04  0.37070905303E+04  0.00000000000E+00 0. -1.
         -2   -1    0    0    0  501 -0.00000000000E+00 -0.00000000000E+00 -0.14207523497E+04  0.14207523497E+04  0.00000000000E+00 0.  1.
         23    2    1    2    0    0 -0.14838125403E+04 -0.14357438847E+03 -0.80441086026E+03  0.16963646427E+04  0.90900544861E+02 0.  0.
         13    1    3    3    0    0 -0.22234805457E+03 -0.67170363480E+01 -0.88017031338E+02  0.23922954198E+03  0.00000000000E+00 0. -1.
        -13    1    3    3    0    0 -0.12614644857E+04 -0.13685735213E+03 -0.71639382892E+03  0.14571351007E+04  0.00000000000E+00 0.  1.
         22    1    1    2    0    0  0.14838125403E+04  0.14357438847E+03  0.30907490408E+04  0.34314782373E+04  0.00000000000E+00 0. -1.
<mgrwt>
<rscale>  0 0.45899271E+04</rscale>
<asrwt>0</asrwt>
<pdfrwt beam="1">  1        2 0.57032161E+00 0.45899271E+04</pdfrwt>
<pdfrwt beam="2">  1       -2 0.21857729E+00 0.45899271E+04</pdfrwt>
<totfact> 0.43654588E-02</totfact>
</mgrwt>
</event>
<event>
 6    1  0.2236204E-005  0.2002757E+04  0.7818608E-02  0.8605333E-01
          2   -1    0    0  501    0  0.00000000000E+00  0.00000000000E+00  0.10480238132E+04  0.10480238132E+04  0.00000000000E+00 0. -1.
         -2   -1    0    0    0  501 -0.00000000000E+00 -0.00000000000E+00 -0.95680947743E+03  0.95680947743E+03  0.00000000000E+00 0.  1.
         23    2    1    2    0    0  0.83908224310E+03  0.39868653684E+03  0.41412609703E+03  0.10213283486E+04  0.92742687895E+02 0.  0.
         13    1    3    3    0    0  0.60485293005E+03  0.25634026294E+03  0.25713639123E+03  0.70546192037E+03  0.00000000000E+00 0. -1.
        -13    1    3    3    0    0  0.23422931305E+03  0.14234627390E+03  0.15698970579E+03  0.31586642827E+03  0.00000000000E+00 0.  1.
         22    1    1    2    0    0 -0.83908224310E+03 -0.39868653684E+03 -0.32291176126E+03  0.98350494199E+03  0.00000000000E+00 0.  1.
<mgrwt>
<rscale>  0 0.20027572E+04</rscale>
<asrwt>0</asrwt>
<pdfrwt beam="1">  1        2 0.16123443E+00 0.20027572E+04</pdfrwt>
<pdfrwt beam="2">  1       -2 0.14720146E+00 0.20027572E+04</pdfrwt>
<totfact> 0.68668896E+00</totfact>
</mgrwt>
</event>
<event>
 6    1  0.2236204E-005  0.1348776E+04  0.7818608E-02  0.8991755E-01
          2   -1    0    0  501    0  0.00000000000E+00  0.00000000000E+00  0.22582481155E+04  0.22582481155E+04  0.00000000000E+00 0. -1.
         -2   -1    0    0    0  501 -0.00000000000E+00 -0.00000000000E+00 -0.20139474724E+03  0.20139474724E+03  0.00000000000E+00 0.  1.
         23    2    1    2    0    0 -0.43597915839E+03 -0.16544268926E+03  0.19137800326E+04  0.19718733584E+04  0.91002299190E+02 0.  0.
         13    1    3    3    0    0 -0.38837501200E+03 -0.12370532635E+03  0.15540259019E+04  0.16065910062E+04  0.00000000000E+00 0.  1.
        -13    1    3    3    0    0 -0.47604146389E+02 -0.41737362908E+02  0.35975413076E+03  0.36528235218E+03  0.00000000000E+00 0. -1.
         22    1    1    2    0    0  0.43597915839E+03  0.16544268926E+03  0.14307333567E+03  0.48776950433E+03  0.00000000000E+00 0.  1.
<mgrwt>
<rscale>  0 0.13487762E+04</rscale>
<asrwt>0</asrwt>
<pdfrwt beam="1">  1        2 0.34742277E+00 0.13487762E+04</pdfrwt>
<pdfrwt beam="2">  1       -2 0.30983809E-01 0.13487762E+04</pdfrwt>
<totfact> 0.45243919E+01</totfact>
</mgrwt>
</event>
<event>
 6    1  0.2236204E-005  0.2005383E+04  0.7818608E-02  0.8604108E-01
          2   -1    0    0  501    0  0.00000000000E+00  0.00000000000E+00  0.14971339903E+04  0.14971339903E+04  0.00000000000E+00 0. -1.
         -2   -1    0    0    0  501 -0.00000000000E+00 -0.00000000000E+00 -0.67154324689E+03  0.67154324689E+03  0.00000000000E+00 0.  1.
         23    2    1    2    0    0  0.41413086384E+03 -0.13925754497E+03  0.13870404187E+04  0.14572541746E+04  0.93869964557E+02 0.  0.
         13    1    3    3    0    0  0.22885488625E+03 -0.12286260964E+03  0.75642036933E+03  0.79977594046E+03  0.00000000000E+00 0. -1.
        -13    1    3    3    0    0  0.18527597759E+03 -0.16394935327E+02  0.63062004934E+03  0.65747823417E+03  0.00000000000E+00 0.  1.
         22    1    1    2    0    0 -0.41413086384E+03  0.13925754497E+03 -0.56144967521E+03  0.71142306261E+03  0.00000000000E+00 0.  1.
<mgrwt>
<rscale>  0 0.20053830E+04</rscale>
<asrwt>0</asrwt>
<pdfrwt beam="1">  1        2 0.23032830E+00 0.20053830E+04</pdfrwt>
<pdfrwt beam="2">  1       -2 0.10331435E+00 0.20053830E+04</pdfrwt>
<totfact> 0.90431031E+00</totfact>
</mgrwt>
</event>
<event>
 6    1  0.2236204E-005  0.4524613E+04  0.7818608E-02  0.7906342E-01
          2   -1    0    0  501    0  0.00000000000E+00  0.00000000000E+00  0.26449708374E+04  0.26449708374E+04  0.00000000000E+00 0. -1.
         -2   -1    0    0    0  501 -0.00000000000E+00 -0.00000000000E+00 -0.19350048368E+04  0.19350048368E+04  0.00000000000E+00 0.  1.
         23    2    1    2    0    0 -0.78163469801E+03  0.68659871510E+03 -0.16772435931E+04  0.19759134166E+04  0.93365745908E+02 0.  0.
         11    1    3    3    0    0 -0.59699298753E+03  0.48891766801E+03 -0.11812816144E+04  0.14109809942E+04  0.00000000000E+00 0.  1.
        -11    1    3    3    0    0 -0.18464171048E+03  0.19768104709E+03 -0.49596197870E+03  0.56493242246E+03  0.00000000000E+00 0. -1.
         22    1    1    2    0    0  0.78163469801E+03 -0.68659871510E+03  0.23872095938E+04  0.26040622576E+04  0.00000000000E+00 0. -1.
<mgrwt>
<rscale>  0 0.45246133E+04</rscale>
<asrwt>0</asrwt>
<pdfrwt beam="1">  1        2 0.40691859E+00 0.45246133E+04</pdfrwt>
<pdfrwt beam="2">  1       -2 0.29769305E+00 0.45246133E+04</pdfrwt>
<totfact> 0.71081702E-02</totfact>
</mgrwt>
</event>
<event>
 6    1  0.2236204E-005  0.2137487E+04  0.7818608E-02  0.8544908E-01
         -2   -1    0    0    0  501 -0.00000000000E+00  0.00000000000E+00  0.59490478263E+03  0.59490478263E+03  0.00000000000E+00 0.  1.
          2   -1    0    0  501    0  0.00000000000E+00 -0.00000000000E+00 -0.19199915994E+04  0.19199915994E+04  0.00000000000E+00 0. -1.
         23    2    1    2    0    0 -0.78883079326E+03  0.29023826124E+03 -0.14364910307E+04  0.16670148057E+04  0.94549522767E+02 0.  0.
         13    1    3    3    0    0 -0.30222821398E+03  0.10626607334E+03 -0.45951921365E+03  0.56017165171E+03  0.00000000000E+00 0. -1.
        -13    1    3    3    0    0 -0.48660257928E+03  0.18397218790E+03 -0.97697181707E+03  0.11068431539E+04  0.00000000000E+00 0.  1.
         22    1    1    2    0    0  0.78883079326E+03 -0.29023826124E+03  0.11140421393E+03  0.84788157638E+03  0.00000000000E+00 0.  1.
<mgrwt>
<rscale>  0 0.21374865E+04</rscale>
<asrwt>0</asrwt>
<pdfrwt beam="1">  1        2 0.29538332E+00 0.21374865E+04</pdfrwt>
<pdfrwt beam="2">  1       -2 0.91523814E-01 0.21374865E+04</pdfrwt>
<totfact> 0.69122937E+00</totfact>
</mgrwt>
</event>
<event>
 6    1  0.2236204E-005  0.2611885E+04  0.7818608E-02  0.8364175E-01
          2   -1    0    0  501    0  0.00000000000E+00  0.00000000000E+00  0.23471812209E+04  0.23471812209E+04  0.00000000000E+00 0. -1.
         -2   -1    0    0    0  501 -0.00000000000E+00 -0.00000000000E+00 -0.72661028886E+03  0.72661028886E+03  0.00000000000E+00 0.  1.
         23    2    1    2    0    0  0.31857772991E+03 -0.24694184688E+03  0.22715930086E+04  0.23080880489E+04  0.68290548860E+02 0.  0.
         11    1    3    3    0    0  0.23147214007E+03 -0.21359251514E+03  0.18028329855E+04  0.18301387619E+04  0.00000000000E+00 0. -1.
        -11    1    3    3    0    0  0.87105589843E+02 -0.33349331740E+02  0.46876002307E+03  0.47794928700E+03  0.00000000000E+00 0.  1.
         22    1    1    2    0    0 -0.31857772991E+03  0.24694184688E+03 -0.65102207658E+03  0.76570346083E+03  0.00000000000E+00 0.  1.
<mgrwt>
<rscale>  0 0.26118852E+04</rscale>
<asrwt>0</asrwt>
<pdfrwt beam="1">  1        2 0.36110480E+00 0.26118852E+04</pdfrwt>
<pdfrwt beam="2">  1       -2 0.11178620E+00 0.26118852E+04</pdfrwt>
<totfact> 0.23791383E+00</totfact>
</mgrwt>
</event>
<event>
 6    1  0.2236204E-005  0.1468002E+04  0.7818608E-02  0.8906014E-01
          2   -1    0    0  501    0  0.00000000000E+00  0.00000000000E+00  0.39393480070E+03  0.39393480070E+03  0.00000000000E+00 0.  1.
         -2   -1    0    0    0  501 -0.00000000000E+00 -0.00000000000E+00 -0.13676318039E+04  0.13676318039E+04  0.00000000000E+00 0. -1.
         23    2    1    2    0    0  0.30866476747E+03  0.17552680346E+03 -0.12556725669E+04  0.13081420619E+04  0.91861099349E+02 0.  0.
         13    1    3    3    0    0  0.22814232056E+03  0.79982985659E+02 -0.81597970831E+03  0.85103999953E+03  0.00000000000E+00 0. -1.
        -13    1    3    3    0    0  0.80522446909E+02  0.95543817800E+02 -0.43969285857E+03  0.45710206240E+03  0.00000000000E+00 0.  1.
         22    1    1    2    0    0 -0.30866476747E+03 -0.17552680346E+03  0.28197556366E+03  0.45342454269E+03  0.00000000000E+00 0.  1.
<mgrwt>
<rscale>  0 0.14680024E+04</rscale>
<asrwt>0</asrwt>
<pdfrwt beam="1">  1        2 0.60605354E-01 0.14680024E+04</pdfrwt>
<pdfrwt beam="2">  1       -2 0.21040489E+00 0.14680024E+04</pdfrwt>
<totfact> 0.89114254E+00</totfact>
</mgrwt>
</event>
<event>
 6    1  0.2236204E-005  0.3919452E+04  0.7818608E-02  0.8020996E-01
          2   -1    0    0  501    0  0.00000000000E+00  0.00000000000E+00  0.24662734172E+04  0.24662734172E+04  0.00000000000E+00 0. -1.
         -2   -1    0    0    0  501 -0.00000000000E+00 -0.00000000000E+00 -0.15572183899E+04  0.15572183899E+04  0.00000000000E+00 0.  1.
         23    2    1    2    0    0  0.17441657762E+04  0.80416316028E+03  0.84926017565E+03  0.21019382514E+04  0.90049560593E+02 0.  0.
         13    1    3    3    0    0  0.30848304258E+03  0.12803449931E+03  0.11361508110E+03  0.35279315077E+03  0.00000000000E+00 0. -1.
        -13    1    3    3    0    0  0.14356827337E+04  0.67612866097E+03  0.73564509455E+03  0.17491451006E+04  0.00000000000E+00 0.  1.
         22    1    1    2    0    0 -0.17441657762E+04 -0.80416316028E+03  0.59794851635E+02  0.19215535558E+04  0.00000000000E+00 0.  1.
<mgrwt>
<rscale>  0 0.39194522E+04</rscale>
<asrwt>0</asrwt>
<pdfrwt beam="1">  1        2 0.37942668E+00 0.39194522E+04</pdfrwt>
<pdfrwt beam="2">  1       -2 0.23957206E+00 0.39194522E+04</pdfrwt>
<totfact> 0.21548040E-01</totfact>
</mgrwt>
</event>
<event>
 6    1  0.2236204E-005  0.3401734E+04  0.7818608E-02  0.8137481E-01
         -2   -1    0    0    0  501 -0.00000000000E+00  0.00000000000E+00  0.22731674043E+04  0.22731674043E+04  0.00000000000E+00 0.  1.
          2   -1    0    0  501    0  0.00000000000E+00 -0.00000000000E+00 -0.12726506688E+04  0.12726506688E+04  0.00000000000E+00 0. -1.
         23    2    1    2    0    0 -0.30369140175E+02 -0.37441413878E+03 -0.12269514687E+04  0.12868973502E+04  0.97911446566E+02 0.  0.
         13    1    3    3    0    0 -0.38225587729E+02 -0.17478581537E+03 -0.72254203852E+03  0.74436434241E+03  0.00000000000E+00 0. -1.
        -13    1    3    3    0    0  0.78564475539E+01 -0.19962832341E+03 -0.50440943015E+03  0.54253300775E+03  0.00000000000E+00 0.  1.
         22    1    1    2    0    0  0.30369140175E+02  0.37441413878E+03  0.22274682042E+04  0.22589207230E+04  0.00000000000E+00 0.  1.
<mgrwt>
<rscale>  0 0.34017337E+04</rscale>
<asrwt>0</asrwt>
<pdfrwt beam="1">  1        2 0.19579241E+00 0.34017337E+04</pdfrwt>
<pdfrwt beam="2">  1       -2 0.34971806E+00 0.34017337E+04</pdfrwt>
<totfact> 0.22185859E-01</totfact>
</mgrwt>
</event>
<event>
 6    1  0.2236204E-005  0.1551071E+04  0.7818608E-02  0.8851184E-01
         -2   -1    0    0    0  501 -0.00000000000E+00  0.00000000000E+00  0.71828411157E+03  0.71828411157E+03  0.00000000000E+00 0.  1.
          2   -1    0    0  501    0  0.00000000000E+00 -0.00000000000E+00 -0.83734972439E+03  0.83734972439E+03  0.00000000000E+00 0. -1.
         23    2    1    2    0    0 -0.56245689982E+03  0.42730831250E+03 -0.37489461787E+03  0.80436914365E+03  0.86680947512E+02 0.  0.
         11    1    3    3    0    0 -0.12561976688E+03  0.13418989464E+03 -0.72574533650E+02  0.19762165010E+03  0.00000000000E+00 0. -1.
        -11    1    3    3    0    0 -0.43683713294E+03  0.29311841786E+03 -0.30232008422E+03  0.60674749355E+03  0.00000000000E+00 0.  1.
         22    1    1    2    0    0  0.56245689982E+03 -0.42730831250E+03  0.25582900505E+03  0.75126469231E+03  0.00000000000E+00 0.  1.
<mgrwt>
<rscale>  0 0.15510706E+04</rscale>
<asrwt>0</asrwt>
<pdfrwt beam="1">  1        2 0.12882303E+00 0.15510706E+04</pdfrwt>
<pdfrwt beam="2">  1       -2 0.11050525E+00 0.15510706E+04</pdfrwt>
<totfact> 0.20260981E+01</totfact>
</mgrwt>
</event>
<event>
 6    1  0.2236204E-005  0.2527471E+04  0.7818608E-02  0.8393264E-01
          2   -1    0    0  501    0  0.00000000000E+00  0.00000000000E+00  0.26158800160E+04  0.26158800160E+04  0.00000000000E+00 0. -1.
         -2   -1    0    0    0  501 -0.00000000000E+00 -0.00000000000E+00 -0.61051228783E+03  0.61051228783E+03  0.00000000000E+00 0.  1.
         23    2    1    2    0    0 -0.56653270581E+03 -0.11056489933E+04  0.71987441595E+03  0.14386809012E+04  0.90357941321E+02 0.  0.
         13    1    3    3    0    0 -0.22862569967E+03 -0.47239345292E+03  0.35398439012E+03  0.63303256896E+03  0.00000000000E+00 0. -1.
        -13    1    3    3    0    0 -0.33790700614E+03 -0.63325554043E+03  0.36589002583E+03  0.80564833226E+03  0.00000000000E+00 0.  1.
         22    1    1    2    0    0  0.56653270581E+03  0.11056489933E+04  0.12854933122E+04  0.17877114026E+04  0.00000000000E+00 0. -1.
<mgrwt>
<rscale>  0 0.25274706E+04</rscale>
<asrwt>0</asrwt>
<pdfrwt beam="1">  1        2 0.40244307E+00 0.25274706E+04</pdfrwt>
<pdfrwt beam="2">  1       -2 0.93924969E-01 0.25274706E+04</pdfrwt>
<totfact> 0.25363360E+00</totfact>
</mgrwt>
</event>
<event>
 6    1  0.2236204E-005  0.3629923E+04  0.7818608E-02  0.8083672E-01
         -2   -1    0    0    0  501 -0.00000000000E+00  0.00000000000E+00  0.12753057403E+04  0.12753057403E+04  0.00000000000E+00 0.  1.
          2   -1    0    0  501    0  0.00000000000E+00 -0.00000000000E+00 -0.25829765686E+04  0.25829765686E+04  0.00000000000E+00 0. -1.
         23    2    1    2    0    0 -0.98944661305E+03  0.71640798838E+03 -0.20795134800E+04  0.24132957744E+04  0.85878843583E+02 0.  0.
         11    1    3    3    0    0 -0.18327376991E+03  0.11186145199E+03 -0.31249496967E+03  0.37915084761E+03  0.00000000000E+00 0. -1.
        -11    1    3    3    0    0 -0.80617284313E+03  0.60454653639E+03 -0.17670185103E+04  0.20341449268E+04  0.00000000000E+00 0.  1.
         22    1    1    2    0    0  0.98944661305E+03 -0.71640798838E+03  0.77184265168E+03  0.14449865345E+04  0.00000000000E+00 0.  1.
<mgrwt>
<rscale>  0 0.36299228E+04</rscale>
<asrwt>0</asrwt>
<pdfrwt beam="1">  1        2 0.39738101E+00 0.36299228E+04</pdfrwt>
<pdfrwt beam="2">  1       -2 0.19620089E+00 0.36299228E+04</pdfrwt>
<totfact> 0.35670520E-01</totfact>
</mgrwt>
</event>
<event>
 6    1  0.2236204E-005  0.5926517E+03  0.7818608E-02  0.9920770E-01
          2   -1    0    0  501    0  0.00000000000E+00  0.00000000000E+00  0.37595857268E+04  0.37595857268E+04  0.00000000000E+00 0. -1.
         -2   -1    0    0    0  501 -0.00000000000E+00 -0.00000000000E+00 -0.23356029377E+02  0.23356029377E+02  0.00000000000E+00 0.  1.
         23    2    1    2    0    0  0.25352164309E+03  0.70508966060E+02  0.26771430825E+04  0.26916538951E+04  0.93063790250E+02 0.  0.
         13    1    3    3    0    0  0.76777112393E+02  0.57111384849E+02  0.68683800767E+03  0.69347161733E+03  0.00000000000E+00 0.  1.
        -13    1    3    3    0    0  0.17674453070E+03  0.13397581211E+02  0.19903050748E+04  0.19981822778E+04  0.00000000000E+00 0. -1.
         22    1    1    2    0    0 -0.25352164309E+03 -0.70508966060E+02  0.10590866149E+04  0.10912878611E+04  0.00000000000E+00 0. -1.
<mgrwt>
<rscale>  0 0.59265165E+03</rscale>
<asrwt>0</asrwt>
<pdfrwt beam="1">  1        2 0.57839732E+00 0.59265165E+03</pdfrwt>
<pdfrwt beam="2">  1       -2 0.35932383E-02 0.59265165E+03</pdfrwt>
<totfact> 0.20191533E+02</totfact>
</mgrwt>
</event>
<event>
 6    1  0.2236204E-005  0.1028240E+04  0.7818608E-02  0.9278103E-01
          2   -1    0    0  501    0  0.00000000000E+00  0.00000000000E+00  0.52718529551E+03  0.52718529551E+03  0.00000000000E+00 0. -1.
         -2   -1    0    0    0  501 -0.00000000000E+00 -0.00000000000E+00 -0.50137825111E+03  0.50137825111E+03  0.00000000000E+00 0.  1.
         23    2    1    2    0    0  0.28503495133E+03 -0.39944621030E+03  0.15146785413E+03  0.52201361078E+03  0.93560144332E+02 0.  0.
         11    1    3    3    0    0  0.18182057834E+03 -0.29270962394E+03  0.66497673028E+02  0.35094100241E+03  0.00000000000E+00 0. -1.
        -11    1    3    3    0    0  0.10321437299E+03 -0.10673658636E+03  0.84970181099E+02  0.17107260837E+03  0.00000000000E+00 0.  1.
         22    1    1    2    0    0 -0.28503495133E+03  0.39944621030E+03 -0.12566080972E+03  0.50654993584E+03  0.00000000000E+00 0. -1.
<mgrwt>
<rscale>  0 0.10282397E+04</rscale>
<asrwt>0</asrwt>
<pdfrwt beam="1">  1        2 0.81105430E-01 0.10282397E+04</pdfrwt>
<pdfrwt beam="2">  1       -2 0.77135116E-01 0.10282397E+04</pdfrwt>
<totfact> 0.86616540E+01</totfact>
</mgrwt>
</event>
<event>
 6    1  0.2236204E-005  0.8651852E+03  0.7818608E-02  0.9470179E-01
          2   -1    0    0  501    0  0.00000000000E+00  0.00000000000E+00  0.32452335651E+03  0.32452335651E+03  0.00000000000E+00 0. -1.
         -2   -1    0    0    0  501 -0.00000000000E+00 -0.00000000000E+00 -0.57664992986E+03  0.57664992986E+03  0.00000000000E+00 0.  1.
         23    2    1    2    0    0  0.10393387955E+03 -0.11241994277E+03  0.28858238840E+03  0.33920649361E+03  0.91327737080E+02 0.  0.
         13    1    3    3    0    0  0.10599098117E+03 -0.85805728329E+02  0.27952871564E+03  0.31101931447E+03  0.00000000000E+00 0. -1.
        -13    1    3    3    0    0 -0.20571016230E+01 -0.26614214439E+02  0.90536727562E+01  0.28187179137E+02  0.00000000000E+00 0.  1.
         22    1    1    2    0    0 -0.10393387955E+03  0.11241994277E+03 -0.54070896175E+03  0.56196679276E+03  0.00000000000E+00 0.  1.
<mgrwt>
<rscale>  0 0.86518523E+03</rscale>
<asrwt>0</asrwt>
<pdfrwt beam="1">  1        2 0.49926670E-01 0.86518523E+03</pdfrwt>
<pdfrwt beam="2">  1       -2 0.88715374E-01 0.86518523E+03</pdfrwt>
<totfact> 0.11042866E+02</totfact>
</mgrwt>
</event>
<event>
 6    1  0.2236204E-005  0.1576742E+04  0.7818608E-02  0.8834965E-01
          2   -1    0    0  501    0  0.00000000000E+00  0.00000000000E+00  0.26912188264E+04  0.26912188264E+04  0.00000000000E+00 0. -1.
         -2   -1    0    0    0  501 -0.00000000000E+00 -0.00000000000E+00 -0.23094689526E+03  0.23094689526E+03  0.00000000000E+00 0.  1.
         23    2    1    2    0    0  0.49571271014E+03  0.21288804601E+03  0.17471572617E+03  0.57380042272E+03  0.87572421558E+02 0.  0.
         13    1    3    3    0    0  0.24202095110E+03  0.66716533030E+02  0.52234383422E+02  0.25642477915E+03  0.00000000000E+00 0.  1.
        -13    1    3    3    0    0  0.25369175904E+03  0.14617151298E+03  0.12248134275E+03  0.31737564357E+03  0.00000000000E+00 0. -1.
         22    1    1    2    0    0 -0.49571271014E+03 -0.21288804601E+03  0.22855562049E+04  0.23483652989E+04  0.00000000000E+00 0. -1.
<mgrwt>
<rscale>  0 0.15767417E+04</rscale>
<asrwt>0</asrwt>
<pdfrwt beam="1">  1        2 0.41403364E+00 0.15767417E+04</pdfrwt>
<pdfrwt beam="2">  1       -2 0.35530293E-01 0.15767417E+04</pdfrwt>
<totfact> 0.19285661E+01</totfact>
</mgrwt>
</event>
<event>
 6    1  0.2236204E-005  0.5249380E+03  0.7818608E-02  0.1007467E+00
          1   -1    0    0  501    0  0.00000000000E+00  0.00000000000E+00  0.47006643392E+03  0.47006643392E+03  0.00000000000E+00 0. -1.
         -1   -1    0    0    0  501 -0.00000000000E+00 -0.00000000000E+00 -0.14655372910E+03  0.14655372910E+03  0.00000000000E+00 0.  1.
         23    2    1    2    0    0  0.22499511024E+03  0.11099873366E+03  0.11893218266E+03  0.29289696560E+03  0.93275130012E+02 0.  0.
         11    1    3    3    0    0  0.13209487623E+03  0.10140963075E+03  0.10887284149E+03  0.19896297431E+03  0.00000000000E+00 0. -1.
        -11    1    3    3    0    0  0.92900234010E+02  0.95891029129E+01  0.10059341172E+02  0.93933991284E+02  0.00000000000E+00 0.  1.
         22    1    1    2    0    0 -0.22499511024E+03 -0.11099873366E+03  0.20458052216E+03  0.32372319743E+03  0.00000000000E+00 0.  1.
<mgrwt>
<rscale>  0 0.52493805E+03</rscale>
<asrwt>0</asrwt>
<pdfrwt beam="1">  1        1 0.72317912E-01 0.52493805E+03</pdfrwt>
<pdfrwt beam="2">  1       -1 0.22546728E-01 0.52493805E+03</pdfrwt>
<totfact> 0.81097960E+02</totfact>
</mgrwt>
</event>
<event>
 6    1  0.2236204E-005  0.1750133E+04  0.7818608E-02  0.8733277E-01
         -2   -1    0    0    0  501 -0.00000000000E+00  0.00000000000E+00  0.32822238315E+03  0.32822238315E+03  0.00000000000E+00 0.  1.
          2   -1    0    0  501    0  0.00000000000E+00 -0.00000000000E+00 -0.23329951238E+04  0.23329951238E+04  0.00000000000E+00 0. -1.
         23    2    1    2    0    0  0.71081721099E+03 -0.29639484190E+03 -0.38102942710E+03  0.86409387235E+03  0.91453737890E+02 0.  0.
         11    1    3    3    0    0  0.31814942810E+03 -0.96770106284E+02 -0.19847169248E+03  0.38726544486E+03  0.00000000000E+00 0. -1.
        -11    1    3    3    0    0  0.39266778290E+03 -0.19962473562E+03 -0.18255773462E+03  0.47682842749E+03  0.00000000000E+00 0.  1.
         22    1    1    2    0    0 -0.71081721099E+03  0.29639484190E+03 -0.16237433136E+04  0.17971236346E+04  0.00000000000E+00 0. -1.
<mgrwt>
<rscale>  0 0.17501328E+04</rscale>
<asrwt>0</asrwt>
<pdfrwt beam="1">  1        2 0.35892233E+00 0.17501328E+04</pdfrwt>
<pdfrwt beam="2">  1       -2 0.50495751E-01 0.17501328E+04</pdfrwt>
<totfact> 0.15274101E+01</totfact>
</mgrwt>
</event>
<event>
 6    1  0.2236204E-005  0.1899834E+04  0.7818608E-02  0.8654939E-01
          2   -1    0    0  501    0  0.00000000000E+00  0.00000000000E+00  0.28329847661E+04  0.28329847661E+04  0.00000000000E+00 0. -1.
         -2   -1    0    0    0  501 -0.00000000000E+00 -0.00000000000E+00 -0.31851305120E+03  0.31851305120E+03  0.00000000000E+00 0.  1.
         23    2    1    2    0    0  0.12751926514E+03 -0.65446104677E+03  0.14322655797E+03  0.68829177253E+03  0.93012324487E+02 0.  0.
         13    1    3    3    0    0  0.10695447514E+03 -0.31791754057E+03  0.86280769501E+02  0.34634548292E+03  0.00000000000E+00 0.  1.
        -13    1    3    3    0    0  0.20564789993E+02 -0.33654350620E+03  0.56945788467E+02  0.34194628961E+03  0.00000000000E+00 0. -1.
         22    1    1    2    0    0 -0.12751926514E+03  0.65446104677E+03  0.23712451570E+04  0.24632060448E+04  0.00000000000E+00 0. -1.
<mgrwt>
<rscale>  0 0.18998343E+04</rscale>
<asrwt>0</asrwt>
<pdfrwt beam="1">  1        2 0.43584379E+00 0.18998343E+04</pdfrwt>
<pdfrwt beam="2">  1       -2 0.49002010E-01 0.18998343E+04</pdfrwt>
<totfact> 0.81724583E+00</totfact>
</mgrwt>
</event>
<event>
 6    1  0.2236204E-005  0.2108848E+04  0.7818608E-02  0.8557356E-01
          2   -1    0    0  501    0  0.00000000000E+00  0.00000000000E+00  0.21469283077E+04  0.21469283077E+04  0.00000000000E+00 0. -1.
         -2   -1    0    0    0  501 -0.00000000000E+00 -0.00000000000E+00 -0.51786068816E+03  0.51786068816E+03  0.00000000000E+00 0.  1.
         23    2    1    2    0    0 -0.13463251593E+03  0.27745928587E+03  0.20876172775E+04  0.21121794063E+04  0.89701602151E+02 0.  0.
         11    1    3    3    0    0 -0.13230430008E+03  0.24348135100E+03  0.16380010912E+04  0.16612751641E+04  0.00000000000E+00 0. -1.
        -11    1    3    3    0    0 -0.23282158581E+01  0.33977934866E+02  0.44961618633E+03  0.45090424223E+03  0.00000000000E+00 0.  1.
         22    1    1    2    0    0  0.13463251593E+03 -0.27745928587E+03 -0.45854965796E+03  0.55260958956E+03  0.00000000000E+00 0.  1.
<mgrwt>
<rscale>  0 0.21088478E+04</rscale>
<asrwt>0</asrwt>
<pdfrwt beam="1">  1        2 0.33029666E+00 0.21088478E+04</pdfrwt>
<pdfrwt beam="2">  1       -2 0.79670876E-01 0.21088478E+04</pdfrwt>
<totfact> 0.71054301E+00</totfact>
</mgrwt>
</event>
<event>
 6    1  0.2236204E-005  0.1414452E+04  0.7818608E-02  0.8943423E-01
          2   -1    0    0  501    0  0.00000000000E+00  0.00000000000E+00  0.39209052395E+03  0.39209052395E+03  0.00000000000E+00 0. -1.
         -2   -1    0    0    0  501 -0.00000000000E+00 -0.00000000000E+00 -0.12756456682E+04  0.12756456682E+04  0.00000000000E+00 0.  1.
         23    2    1    2    0    0 -0.23363490960E+03 -0.39043190449E+03 -0.10775453494E+04  0.11731105329E+04  0.89788636958E+02 0.  0.
         13    1    3    3    0    0 -0.11766011054E+03 -0.15275376847E+03 -0.55333624155E+03  0.58596809777E+03  0.00000000000E+00 0.  1.
        -13    1    3    3    0    0 -0.11597479906E+03 -0.23767813602E+03 -0.52420910789E+03  0.58714243515E+03  0.00000000000E+00 0. -1.
         22    1    1    2    0    0  0.23363490960E+03  0.39043190449E+03  0.19399020522E+03  0.49462565921E+03  0.00000000000E+00 0.  1.
<mgrwt>
<rscale>  0 0.14144519E+04</rscale>
<asrwt>0</asrwt>
<pdfrwt beam="1">  1        2 0.60321617E-01 0.14144519E+04</pdfrwt>
<pdfrwt beam="2">  1       -2 0.19625318E+00 0.14144519E+04</pdfrwt>
<totfact> 0.11122356E+01</totfact>
</mgrwt>
</event>
<event>
 6    1  0.2236204E-005  0.2077750E+04  0.7818608E-02  0.8571108E-01
          2   -1    0    0  501    0  0.00000000000E+00  0.00000000000E+00  0.21735102588E+04  0.21735102588E+04  0.00000000000E+00 0. -1.
         -2   -1    0    0    0  501 -0.00000000000E+00 -0.00000000000E+00 -0.49655227362E+03  0.49655227362E+03  0.00000000000E+00 0.  1.
         23    2    1    2    0    0  0.53705120167E+03 -0.66297132372E+03  0.82686792594E+02  0.86184362841E+03  0.89344081337E+02 0.  0.
         11    1    3    3    0    0  0.27869475019E+03 -0.27508043571E+03  0.27897105401E+02  0.39257898363E+03  0.00000000000E+00 0.  1.
        -11    1    3    3    0    0  0.25835645148E+03 -0.38789088800E+03  0.54789687193E+02  0.46926464478E+03  0.00000000000E+00 0. -1.
         22    1    1    2    0    0 -0.53705120167E+03  0.66297132372E+03  0.15942711925E+04  0.18082189040E+04  0.00000000000E+00 0. -1.
<mgrwt>
<rscale>  0 0.20777502E+04</rscale>
<asrwt>0</asrwt>
<pdfrwt beam="1">  1        2 0.33438619E+00 0.20777502E+04</pdfrwt>
<pdfrwt beam="2">  1       -2 0.76392659E-01 0.20777502E+04</pdfrwt>
<totfact> 0.75619384E+00</totfact>
</mgrwt>
</event>
<event>
 6    1  0.2236204E-005  0.5436639E+04  0.7818608E-02  0.7764468E-01
          2   -1    0    0  501    0  0.00000000000E+00  0.00000000000E+00  0.25131777788E+04  0.25131777788E+04  0.00000000000E+00 0. -1.
         -2   -1    0    0    0  501 -0.00000000000E+00 -0.00000000000E+00 -0.29402058784E+04  0.29402058784E+04  0.00000000000E+00 0.  1.
         23    2    1    2    0    0  0.21424732154E+04 -0.83348431752E+02 -0.18885930986E+04  0.28585212936E+04  0.84980316237E+02 0.  0.
         13    1    3    3    0    0  0.82855651651E+03 -0.93328014423E+01 -0.77585373600E+03  0.11351396486E+04  0.00000000000E+00 0.  1.
        -13    1    3    3    0    0  0.13139166989E+04 -0.74015630310E+02 -0.11127393626E+04  0.17233816450E+04  0.00000000000E+00 0. -1.
         22    1    1    2    0    0 -0.21424732154E+04  0.83348431752E+02  0.14615649990E+04  0.25948623636E+04  0.00000000000E+00 0. -1.
<mgrwt>
<rscale>  0 0.54366387E+04</rscale>
<asrwt>0</asrwt>
<pdfrwt beam="1">  1        2 0.38664274E+00 0.54366387E+04</pdfrwt>
<pdfrwt beam="2">  1       -2 0.45233937E+00 0.54366387E+04</pdfrwt>
<totfact> 0.80895205E-03</totfact>
</mgrwt>
</event>
<event>
 6    1  0.2236204E-005  0.7393091E+03  0.7818608E-02  0.9652274E-01
          1   -1    0    0  501    0  0.00000000000E+00  0.00000000000E+00  0.15054220704E+04  0.15054220704E+04  0.00000000000E+00 0. -1.
         -1   -1    0    0    0  501 -0.00000000000E+00 -0.00000000000E+00 -0.90768219871E+02  0.90768219871E+02  0.00000000000E+00 0.  1.
         23    2    1    2    0    0  0.28434948782E+03  0.22344246583E+03  0.63279028802E+03  0.73474278918E+03  0.92963707285E+02 0.  0.
         13    1    3    3    0    0  0.10631876250E+03  0.49361809796E+02  0.27396256461E+03  0.29798616467E+03  0.00000000000E+00 0.  1.
        -13    1    3    3    0    0  0.17803072533E+03  0.17408065603E+03  0.35882772341E+03  0.43675662451E+03  0.00000000000E+00 0. -1.
         22    1    1    2    0    0 -0.28434948782E+03 -0.22344246583E+03  0.78186356246E+03  0.86144750105E+03  0.00000000000E+00 0. -1.
<mgrwt>
<rscale>  0 0.73930909E+03</rscale>
<asrwt>0</asrwt>
<pdfrwt beam="1">  1        1 0.23160338E+00 0.73930909E+03</pdfrwt>
<pdfrwt beam="2">  1       -1 0.13964343E-01 0.73930909E+03</pdfrwt>
<totfact> 0.24424444E+02</totfact>
</mgrwt>
</event>
<event>
 6    1  0.2236204E-005  0.2605354E+04  0.7818608E-02  0.8366385E-01
          2   -1    0    0  501    0  0.00000000000E+00  0.00000000000E+00  0.11645771163E+04  0.11645771163E+04  0.00000000000E+00 0. -1.
         -2   -1    0    0    0  501 -0.00000000000E+00 -0.00000000000E+00 -0.14571528951E+04  0.14571528951E+04  0.00000000000E+00 0.  1.
         23    2    1    2    0    0  0.50752309142E+03 -0.38065184336E+03  0.99662818750E+03  0.11848854197E+04  0.90610151229E+02 0.  0.
         13    1    3    3    0    0  0.27305022738E+03 -0.15442830467E+03  0.45064050655E+03  0.54907321378E+03  0.00000000000E+00 0.  1.
        -13    1    3    3    0    0  0.23447286403E+03 -0.22622353870E+03  0.54598768095E+03  0.63581220591E+03  0.00000000000E+00 0. -1.
         22    1    1    2    0    0 -0.50752309142E+03  0.38065184336E+03 -0.12892039662E+04  0.14368445917E+04  0.00000000000E+00 0.  1.
<mgrwt>
<rscale>  0 0.26053537E+04</rscale>
<asrwt>0</asrwt>
<pdfrwt beam="1">  1        2 0.17916571E+00 0.26053537E+04</pdfrwt>
<pdfrwt beam="2">  1       -2 0.22417737E+00 0.26053537E+04</pdfrwt>
<totfact> 0.16358252E+00</totfact>
</mgrwt>
</event>
<event>
 6    1  0.2236204E-005  0.3335130E+04  0.7818608E-02  0.8154014E-01
          2   -1    0    0  501    0  0.00000000000E+00  0.00000000000E+00  0.23724947102E+04  0.23724947102E+04  0.00000000000E+00 0. -1.
         -2   -1    0    0    0  501 -0.00000000000E+00 -0.00000000000E+00 -0.11720881852E+04  0.11720881852E+04  0.00000000000E+00 0.  1.
         23    2    1    2    0    0  0.78155877291E+03 -0.53075027020E+03  0.20595061469E+04  0.22676404045E+04  0.89985945120E+02 0.  0.
         11    1    3    3    0    0  0.12315094794E+03 -0.10441312978E+03  0.28623300600E+03  0.32862986987E+03  0.00000000000E+00 0.  1.
        -11    1    3    3    0    0  0.65840782497E+03 -0.42633714042E+03  0.17732731409E+04  0.19390105346E+04  0.00000000000E+00 0. -1.
         22    1    1    2    0    0 -0.78155877291E+03  0.53075027020E+03 -0.85909962189E+03  0.12769424909E+04  0.00000000000E+00 0.  1.
<mgrwt>
<rscale>  0 0.33351300E+04</rscale>
<asrwt>0</asrwt>
<pdfrwt beam="1">  1        2 0.36499919E+00 0.33351300E+04</pdfrwt>
<pdfrwt beam="2">  1       -2 0.18032126E+00 0.33351300E+04</pdfrwt>
<totfact> 0.61930980E-01</totfact>
</mgrwt>
</event>
<event>
 6    1  0.2236204E-005  0.1323930E+04  0.7818608E-02  0.9010801E-01
         -2   -1    0    0    0  501 -0.00000000000E+00  0.00000000000E+00  0.34361642303E+03  0.34361642303E+03  0.00000000000E+00 0.  1.
          2   -1    0    0  501    0  0.00000000000E+00 -0.00000000000E+00 -0.12752522917E+04  0.12752522917E+04  0.00000000000E+00 0. -1.
         23    2    1    2    0    0 -0.51413468230E+03 -0.40903857184E+03 -0.52541347740E+03  0.84642864848E+03  0.93461810059E+02 0.  0.
         13    1    3    3    0    0 -0.56407771029E+02 -0.84529174789E+02 -0.96984231421E+02  0.14047405158E+03  0.00000000000E+00 0.  1.
        -13    1    3    3    0    0 -0.45772691127E+03 -0.32450939705E+03 -0.42842924598E+03  0.70595459690E+03  0.00000000000E+00 0. -1.
         22    1    1    2    0    0  0.51413468230E+03  0.40903857184E+03 -0.40622239132E+03  0.77244006629E+03  0.00000000000E+00 0.  1.
<mgrwt>
<rscale>  0 0.13239300E+04</rscale>
<asrwt>0</asrwt>
<pdfrwt beam="1">  1        2 0.19619266E+00 0.13239300E+04</pdfrwt>
<pdfrwt beam="2">  1       -2 0.52864065E-01 0.13239300E+04</pdfrwt>
<totfact> 0.56440597E+01</totfact>
</mgrwt>
</event>
<event>
 6    1  0.2236204E-005  0.4497002E+04  0.7818608E-02  0.7911162E-01
         -2   -1    0    0    0  501 -0.00000000000E+00  0.00000000000E+00  0.29650189814E+04  0.29650189814E+04  0.00000000000E+00 0.  1.
          2   -1    0    0  501    0  0.00000000000E+00 -0.00000000000E+00 -0.17051349881E+04  0.17051349881E+04  0.00000000000E+00 0. -1.
         23    2    1    2    0    0  0.18296839689E+04  0.50936830349E+03  0.18785162619E+04  0.26726792192E+04  0.84801934878E+02 0.  0.
         11    1    3    3    0    0  0.33302811670E+03  0.11358642709E+03  0.38532067676E+03  0.52180612000E+03  0.00000000000E+00 0. -1.
        -11    1    3    3    0    0  0.14966558521E+04  0.39578187639E+03  0.14931955852E+04  0.21508730992E+04  0.00000000000E+00 0.  1.
         22    1    1    2    0    0 -0.18296839689E+04 -0.50936830349E+03 -0.61863226862E+03  0.19974747503E+04  0.00000000000E+00 0. -1.
<mgrwt>
<rscale>  0 0.44970024E+04</rscale>
<asrwt>0</asrwt>
<pdfrwt beam="1">  1        2 0.26232846E+00 0.44970024E+04</pdfrwt>
<pdfrwt beam="2">  1       -2 0.45615677E+00 0.44970024E+04</pdfrwt>
<totfact> 0.23374142E-02</totfact>
</mgrwt>
</event>
<event>
 6    1  0.2236204E-005  0.1134918E+04  0.7818608E-02  0.9171811E-01
         -2   -1    0    0    0  501 -0.00000000000E+00  0.00000000000E+00  0.77660014569E+03  0.77660014569E+03  0.00000000000E+00 0.  1.
          2   -1    0    0  501    0  0.00000000000E+00 -0.00000000000E+00 -0.41464023422E+03  0.41464023422E+03  0.00000000000E+00 0. -1.
         23    2    1    2    0    0  0.13582679711E+03 -0.21714248041E+03  0.70923626021E+03  0.75973066043E+03  0.92600367101E+02 0.  0.
         11    1    3    3    0    0  0.86271033306E+02 -0.61350998216E+02  0.33542288304E+03  0.35173164009E+03  0.00000000000E+00 0.  1.
        -11    1    3    3    0    0  0.49555763802E+02 -0.15579148219E+03  0.37381337716E+03  0.40799902034E+03  0.00000000000E+00 0. -1.
         22    1    1    2    0    0 -0.13582679711E+03  0.21714248041E+03 -0.34727634874E+03  0.43150971948E+03  0.00000000000E+00 0. -1.
<mgrwt>
<rscale>  0 0.11349179E+04</rscale>
<asrwt>0</asrwt>
<pdfrwt beam="1">  1        2 0.63790805E-01 0.11349179E+04</pdfrwt>
<pdfrwt beam="2">  1       -2 0.11947695E+00 0.11349179E+04</pdfrwt>
<totfact> 0.40591070E+01</totfact>
</mgrwt>
</event>
<event>
 6    1  0.2236204E-005  0.4774626E+04  0.7818608E-02  0.7864246E-01
         -1   -1    0    0    0  501 -0.00000000000E+00  0.00000000000E+00  0.30774078537E+04  0.30774078537E+04  0.00000000000E+00 0.  1.
          1   -1    0    0  501    0  0.00000000000E+00 -0.00000000000E+00 -0.18519691208E+04  0.18519691208E+04  0.00000000000E+00 0. -1.
         23    2    1    2    0    0  0.92519346541E+03  0.14229746969E+04 -0.11190732875E+04  0.20349726230E+04  0.89155017076E+02 0.  0.
         13    1    3    3    0    0  0.11467718613E+03  0.22770539755E+03 -0.18629614285E+03  0.31576392753E+03  0.00000000000E+00 0.  1.
        -13    1    3    3    0    0  0.81051627928E+03  0.11952692993E+04 -0.93277714468E+03  0.17192086955E+04  0.00000000000E+00 0. -1.
         22    1    1    2    0    0 -0.92519346541E+03 -0.14229746969E+04  0.23445120203E+04  0.28944043515E+04  0.00000000000E+00 0.  1.
<mgrwt>
<rscale>  0 0.47746264E+04</rscale>
<asrwt>0</asrwt>
<pdfrwt beam="1">  1        1 0.28491833E+00 0.47746264E+04</pdfrwt>
<pdfrwt beam="2">  1       -1 0.47344736E+00 0.47746264E+04</pdfrwt>
<totfact> 0.61904411E-03</totfact>
</mgrwt>
</event>
<event>
 6    1  0.2236204E-005  0.5864369E+03  0.7818608E-02  0.9933952E-01
          2   -1    0    0  501    0  0.00000000000E+00  0.00000000000E+00  0.36402646168E+03  0.36402646168E+03  0.00000000000E+00 0. -1.
         -2   -1    0    0    0  501 -0.00000000000E+00 -0.00000000000E+00 -0.23618350382E+03  0.23618350382E+03  0.00000000000E+00 0.  1.
         23    2    1    2    0    0 -0.92761992300E+02 -0.31487876450E+02  0.33993391881E+03  0.36658879930E+03  0.96104136415E+02 0.  0.
         13    1    3    3    0    0 -0.49124529259E+02 -0.10928702777E+01  0.44136016433E+02  0.66048479823E+02  0.00000000000E+00 0. -1.
        -13    1    3    3    0    0 -0.43637463041E+02 -0.30395006173E+02  0.29579790238E+03  0.30054031948E+03  0.00000000000E+00 0.  1.
         22    1    1    2    0    0  0.92761992300E+02  0.31487876450E+02 -0.21209096095E+03  0.23362116620E+03  0.00000000000E+00 0.  1.
<mgrwt>
<rscale>  0 0.58643685E+03</rscale>
<asrwt>0</asrwt>
<pdfrwt beam="1">  1        2 0.56004071E-01 0.58643685E+03</pdfrwt>
<pdfrwt beam="2">  1       -2 0.36335924E-01 0.58643685E+03</pdfrwt>
<totfact> 0.63444645E+02</totfact>
</mgrwt>
</event>
<event>
 6    1  0.2236204E-005  0.2946797E+04  0.7818608E-02  0.8259089E-01
         -2   -1    0    0    0  501 -0.00000000000E+00  0.00000000000E+00  0.14754221770E+04  0.14754221770E+04  0.00000000000E+00 0.  1.
          2   -1    0    0  501    0  0.00000000000E+00 -0.00000000000E+00 -0.14713776839E+04  0.14713776839E+04  0.00000000000E+00 0. -1.
         23    2    1    2    0    0  0.19318281973E+03  0.48596877530E+03 -0.13740436832E+04  0.14728214779E+04  0.87873830089E+02 0.  0.
         13    1    3    3    0    0  0.80665063183E+02  0.23359730828E+03 -0.53198878755E+03  0.58658897444E+03  0.00000000000E+00 0.  1.
        -13    1    3    3    0    0  0.11251775655E+03  0.25237146702E+03 -0.84205489561E+03  0.88623250343E+03  0.00000000000E+00 0. -1.
         22    1    1    2    0    0 -0.19318281973E+03 -0.48596877530E+03  0.13780881762E+04  0.14739783831E+04  0.00000000000E+00 0.  1.
<mgrwt>
<rscale>  0 0.29467971E+04</rscale>
<asrwt>0</asrwt>
<pdfrwt beam="1">  1        2 0.22636580E+00 0.29467971E+04</pdfrwt>
<pdfrwt beam="2">  1       -2 0.22698803E+00 0.29467971E+04</pdfrwt>
<totfact> 0.10116797E+00</totfact>
</mgrwt>
</event>
<event>
 6    1  0.2236204E-005  0.1752520E+04  0.7818608E-02  0.8731964E-01
         -2   -1    0    0    0  501 -0.00000000000E+00  0.00000000000E+00  0.28771925118E+03  0.28771925118E+03  0.00000000000E+00 0.  1.
          2   -1    0    0  501    0  0.00000000000E+00 -0.00000000000E+00 -0.26686848708E+04  0.26686848708E+04  0.00000000000E+00 0. -1.
         23    2    1    2    0    0  0.84843071744E+03 -0.89783880967E+02 -0.87272046519E+03  0.12235742765E+04  0.87161758476E+02 0.  0.
         13    1    3    3    0    0  0.62436537535E+03 -0.94643788764E+02 -0.60647677186E+03  0.87555904626E+03  0.00000000000E+00 0. -1.
        -13    1    3    3    0    0  0.22406534210E+03  0.48599077972E+01 -0.26624369333E+03  0.34801523023E+03  0.00000000000E+00 0.  1.
         22    1    1    2    0    0 -0.84843071744E+03  0.89783880967E+02 -0.15082451544E+04  0.17328298455E+04  0.00000000000E+00 0. -1.
<mgrwt>
<rscale>  0 0.17525205E+04</rscale>
<asrwt>0</asrwt>
<pdfrwt beam="1">  1        2 0.41056691E+00 0.17525205E+04</pdfrwt>
<pdfrwt beam="2">  1       -2 0.44264500E-01 0.17525205E+04</pdfrwt>
<totfact> 0.12741476E+01</totfact>
</mgrwt>
</event>
<event>
 6    1  0.2236204E-005  0.1003949E+04  0.7818608E-02  0.9304224E-01
         -2   -1    0    0    0  501 -0.00000000000E+00  0.00000000000E+00  0.73431315722E+03  0.73431315722E+03  0.00000000000E+00 0.  1.
          2   -1    0    0  501    0  0.00000000000E+00 -0.00000000000E+00 -0.34314874904E+03  0.34314874904E+03  0.00000000000E+00 0. -1.
         23    2    1    2    0    0 -0.79493305897E+02  0.44844845546E+03 -0.18763545365E+02  0.46470899522E+03  0.90427743077E+02 0.  0.
         11    1    3    3    0    0 -0.67176947822E+00 -0.11668413580E+01 -0.79974381119E+01  0.81099820801E+01  0.00000000000E+00 0. -1.
        -11    1    3    3    0    0 -0.78821536419E+02  0.44961529682E+03 -0.10766107253E+02  0.45659901314E+03  0.00000000000E+00 0.  1.
         22    1    1    2    0    0  0.79493305897E+02 -0.44844845546E+03  0.40992795355E+03  0.61275291104E+03  0.00000000000E+00 0.  1.
<mgrwt>
<rscale>  0 0.10039495E+04</rscale>
<asrwt>0</asrwt>
<pdfrwt beam="1">  1        2 0.52792115E-01 0.10039495E+04</pdfrwt>
<pdfrwt beam="2">  1       -2 0.11297125E+00 0.10039495E+04</pdfrwt>
<totfact> 0.58066732E+01</totfact>
</mgrwt>
</event>
<event>
 6    1  0.2236204E-005  0.2046825E+04  0.7818608E-02  0.8585036E-01
          2   -1    0    0  501    0  0.00000000000E+00  0.00000000000E+00  0.56649277681E+03  0.56649277681E+03  0.00000000000E+00 0. -1.
         -2   -1    0    0    0  501 -0.00000000000E+00 -0.00000000000E+00 -0.18488725472E+04  0.18488725472E+04  0.00000000000E+00 0.  1.
         23    2    1    2    0    0  0.66439583924E+03  0.76146400437E+03 -0.81784627133E+03  0.13031420403E+04  0.89762979194E+02 0.  0.
         13    1    3    3    0    0  0.47112174495E+03  0.58720975211E+03 -0.57647192302E+03  0.94820402318E+03  0.00000000000E+00 0.  1.
        -13    1    3    3    0    0  0.19327409429E+03  0.17425425226E+03 -0.24137434831E+03  0.35493801709E+03  0.00000000000E+00 0. -1.
         22    1    1    2    0    0 -0.66439583924E+03 -0.76146400437E+03 -0.46453349909E+03  0.11122232838E+04  0.00000000000E+00 0. -1.
<mgrwt>
<rscale>  0 0.20468248E+04</rscale>
<asrwt>0</asrwt>
<pdfrwt beam="1">  1        2 0.87152736E-01 0.20468248E+04</pdfrwt>
<pdfrwt beam="2">  1       -2 0.28444193E+00 0.20468248E+04</pdfrwt>
<totfact> 0.19472216E+00</totfact>
</mgrwt>
</event>
<event>
 6    1  0.2236204E-005  0.1976080E+04  0.7818608E-02  0.8617886E-01
          2   -1    0    0  501    0  0.00000000000E+00  0.00000000000E+00  0.11488092997E+04  0.11488092997E+04  0.00000000000E+00 0.  1.
         -2   -1    0    0    0  501 -0.00000000000E+00 -0.00000000000E+00 -0.84976977333E+03  0.84976977333E+03  0.00000000000E+00 0. -1.
         23    2    1    2    0    0  0.91232492826E+03 -0.37287922508E+03  0.10813239163E+03  0.99467607709E+03  0.79449310840E+02 0.  0.
         11    1    3    3    0    0  0.58984651031E+03 -0.20370131827E+03  0.84840127836E+02  0.62977057734E+03  0.00000000000E+00 0. -1.
        -11    1    3    3    0    0  0.32247841795E+03 -0.16917790680E+03  0.23292263798E+02  0.36490549975E+03  0.00000000000E+00 0.  1.
         22    1    1    2    0    0 -0.91232492826E+03  0.37287922508E+03  0.19090713477E+03  0.10039029960E+04  0.00000000000E+00 0.  1.
<mgrwt>
<rscale>  0 0.19760804E+04</rscale>
<asrwt>0</asrwt>
<pdfrwt beam="1">  1        2 0.17673989E+00 0.19760804E+04</pdfrwt>
<pdfrwt beam="2">  1       -2 0.13073381E+00 0.19760804E+04</pdfrwt>
<totfact> 0.81057489E+00</totfact>
</mgrwt>
</event>
<event>
 6    1  0.2236204E-005  0.1901583E+04  0.7818608E-02  0.8654069E-01
          2   -1    0    0  501    0  0.00000000000E+00  0.00000000000E+00  0.10790311669E+04  0.10790311669E+04  0.00000000000E+00 0. -1.
         -2   -1    0    0    0  501 -0.00000000000E+00 -0.00000000000E+00 -0.83779285814E+03  0.83779285814E+03  0.00000000000E+00 0.  1.
         23    2    1    2    0    0  0.60780045679E+03 -0.64901390401E+03  0.45405816113E+03  0.10025304549E+04  0.90873848760E+02 0.  0.
         13    1    3    3    0    0  0.23027493562E+03 -0.28426032166E+03  0.14613918040E+03  0.39393798559E+03  0.00000000000E+00 0.  1.
        -13    1    3    3    0    0  0.37752552117E+03 -0.36475358235E+03  0.30791898073E+03  0.60859246928E+03  0.00000000000E+00 0. -1.
         22    1    1    2    0    0 -0.60780045679E+03  0.64901390401E+03 -0.21281985237E+03  0.91429357016E+03  0.00000000000E+00 0.  1.
<mgrwt>
<rscale>  0 0.19015831E+04</rscale>
<asrwt>0</asrwt>
<pdfrwt beam="1">  1        2 0.16600479E+00 0.19015831E+04</pdfrwt>
<pdfrwt beam="2">  1       -2 0.12889121E+00 0.19015831E+04</pdfrwt>
<totfact> 0.93307046E+00</totfact>
</mgrwt>
</event>
<event>
 6    1  0.2236204E-005  0.8807850E+03  0.7818608E-02  0.9449925E-01
          1   -1    0    0  501    0  0.00000000000E+00  0.00000000000E+00  0.97439803822E+03  0.97439803822E+03  0.00000000000E+00 0. -1.
         -1   -1    0    0    0  501 -0.00000000000E+00 -0.00000000000E+00 -0.19904140567E+03  0.19904140567E+03  0.00000000000E+00 0.  1.
         23    2    1    2    0    0 -0.29166192866E+03  0.32018190020E+03  0.32810136977E+03  0.55084776394E+03  0.90551755124E+02 0.  0.
         11    1    3    3    0    0 -0.33124066161E+02  0.73095289932E+02  0.31416882039E+02  0.86180889102E+02  0.00000000000E+00 0. -1.
        -11    1    3    3    0    0 -0.25853786250E+03  0.24708661027E+03  0.29668448773E+03  0.46466687484E+03  0.00000000000E+00 0.  1.
         22    1    1    2    0    0  0.29166192866E+03 -0.32018190020E+03  0.44725526279E+03  0.62259167994E+03  0.00000000000E+00 0. -1.
<mgrwt>
<rscale>  0 0.88078500E+03</rscale>
<asrwt>0</asrwt>
<pdfrwt beam="1">  1        1 0.14990739E+00 0.88078500E+03</pdfrwt>
<pdfrwt beam="2">  1       -1 0.30621755E-01 0.88078500E+03</pdfrwt>
<totfact> 0.15708420E+02</totfact>
</mgrwt>
</event>
<event>
 6    1  0.2236204E-005  0.2165223E+04  0.7818608E-02  0.8533044E-01
         -2   -1    0    0    0  501 -0.00000000000E+00  0.00000000000E+00  0.74666456303E+03  0.74666456303E+03  0.00000000000E+00 0.  1.
          2   -1    0    0  501    0  0.00000000000E+00 -0.00000000000E+00 -0.15697115842E+04  0.15697115842E+04  0.00000000000E+00 0. -1.
         23    2    1    2    0    0 -0.48346797401E+03 -0.92676682511E+03 -0.11928827169E+03  0.10562513885E+04  0.93804445432E+02 0.  0.
         13    1    3    3    0    0 -0.22358883787E+03 -0.43995265336E+03 -0.95081952870E+01  0.49359974817E+03  0.00000000000E+00 0.  1.
        -13    1    3    3    0    0 -0.25987913614E+03 -0.48681417174E+03 -0.10978007640E+03  0.56265164035E+03  0.00000000000E+00 0. -1.
         22    1    1    2    0    0  0.48346797401E+03  0.92676682511E+03 -0.70375874946E+03  0.12601247587E+04  0.00000000000E+00 0. -1.
<mgrwt>
<rscale>  0 0.21652233E+04</rscale>
<asrwt>0</asrwt>
<pdfrwt beam="1">  1        2 0.24149409E+00 0.21652233E+04</pdfrwt>
<pdfrwt beam="2">  1       -2 0.11487147E+00 0.21652233E+04</pdfrwt>
<totfact> 0.62860058E+00</totfact>
</mgrwt>
</event>
<event>
 6    1  0.2236204E-005  0.2155244E+04  0.7818608E-02  0.8537291E-01
         -2   -1    0    0    0  501 -0.00000000000E+00  0.00000000000E+00  0.10517833930E+04  0.10517833930E+04  0.00000000000E+00 0.  1.
          2   -1    0    0  501    0  0.00000000000E+00 -0.00000000000E+00 -0.11040956353E+04  0.11040956353E+04  0.00000000000E+00 0. -1.
         23    2    1    2    0    0 -0.27442932148E+03  0.88309804608E+03  0.52293631505E+03  0.10668039555E+04  0.97132273104E+02 0.  0.
         11    1    3    3    0    0 -0.11842862012E+03  0.50028280356E+03  0.25202001861E+03  0.57255769262E+03  0.00000000000E+00 0. -1.
        -11    1    3    3    0    0 -0.15600070136E+03  0.38281524253E+03  0.27091629644E+03  0.49424626292E+03  0.00000000000E+00 0.  1.
         22    1    1    2    0    0  0.27442932148E+03 -0.88309804608E+03 -0.57524855726E+03  0.10890750728E+04  0.00000000000E+00 0.  1.
<mgrwt>
<rscale>  0 0.21552443E+04</rscale>
<asrwt>0</asrwt>
<pdfrwt beam="1">  1        2 0.16986087E+00 0.21552443E+04</pdfrwt>
<pdfrwt beam="2">  1       -2 0.16181283E+00 0.21552443E+04</pdfrwt>
<totfact> 0.48533887E+00</totfact>
</mgrwt>
</event>
<event>
 6    1  0.2236204E-005  0.4324271E+04  0.7818608E-02  0.7942145E-01
         -2   -1    0    0    0  501 -0.00000000000E+00  0.00000000000E+00  0.13863741961E+04  0.13863741961E+04  0.00000000000E+00 0. -1.
          2   -1    0    0  501    0  0.00000000000E+00 -0.00000000000E+00 -0.33719826624E+04  0.33719826624E+04  0.00000000000E+00 0.  1.
         23    2    1    2    0    0  0.70234088434E+03  0.19760528220E+04 -0.15678102755E+04  0.26199876665E+04  0.90768054392E+02 0.  0.
         11    1    3    3    0    0  0.19348339494E+03  0.63027521364E+03 -0.53138885848E+03  0.84679205710E+03  0.00000000000E+00 0. -1.
        -11    1    3    3    0    0  0.50885748940E+03  0.13457776083E+04 -0.10364214170E+04  0.17731956094E+04  0.00000000000E+00 0.  1.
         22    1    1    2    0    0 -0.70234088434E+03 -0.19760528220E+04 -0.41779819074E+03  0.21383691920E+04  0.00000000000E+00 0.  1.
<mgrwt>
<rscale>  0 0.43242709E+04</rscale>
<asrwt>0</asrwt>
<pdfrwt beam="1">  1        2 0.51876656E+00 0.43242709E+04</pdfrwt>
<pdfrwt beam="2">  1       -2 0.21328834E+00 0.43242709E+04</pdfrwt>
<totfact> 0.83384670E-02</totfact>
</mgrwt>
</event>
<event>
 6    1  0.2236204E-005  0.1218944E+04  0.7818608E-02  0.9096435E-01
          2   -1    0    0  501    0  0.00000000000E+00  0.00000000000E+00  0.20351532239E+04  0.20351532239E+04  0.00000000000E+00 0. -1.
         -2   -1    0    0    0  501 -0.00000000000E+00 -0.00000000000E+00 -0.18251983745E+03  0.18251983745E+03  0.00000000000E+00 0.  1.
         23    2    1    2    0    0  0.30452706676E+03 -0.75846951914E+02  0.18749266232E+04  0.19030518877E+04  0.88131438225E+02 0.  0.
         11    1    3    3    0    0  0.14996323668E+03 -0.81860205054E+02  0.10331855900E+04  0.10472165625E+04  0.00000000000E+00 0.  1.
        -11    1    3    3    0    0  0.15456383007E+03  0.60132531401E+01  0.84174103317E+03  0.85583532511E+03  0.00000000000E+00 0. -1.
         22    1    1    2    0    0 -0.30452706676E+03  0.75846951914E+02 -0.22293236748E+02  0.31462117365E+03  0.00000000000E+00 0.  1.
<mgrwt>
<rscale>  0 0.12189435E+04</rscale>
<asrwt>0</asrwt>
<pdfrwt beam="1">  1        2 0.31310048E+00 0.12189435E+04</pdfrwt>
<pdfrwt beam="2">  1       -2 0.28079976E-01 0.12189435E+04</pdfrwt>
<totfact> 0.73094941E+01</totfact>
</mgrwt>
</event>
<event>
 6    1  0.2236204E-005  0.3229959E+03  0.7818608E-02  0.1074279E+00
          2   -1    0    0  501    0  0.00000000000E+00  0.00000000000E+00  0.22903097050E+03  0.22903097050E+03  0.00000000000E+00 0. -1.
         -2   -1    0    0    0  501 -0.00000000000E+00 -0.00000000000E+00 -0.11387801497E+03  0.11387801497E+03  0.00000000000E+00 0.  1.
         23    2    1    2    0    0  0.59278546413E+02  0.13645788376E+03  0.56107226933E+02  0.18284306726E+03  0.90271070806E+02 0.  0.
         13    1    3    3    0    0  0.36516147745E+02  0.78300143532E+02 -0.15555060931E+02  0.87785542340E+02  0.00000000000E+00 0.  1.
        -13    1    3    3    0    0  0.22762398668E+02  0.58157740232E+02  0.71662287863E+02  0.95057524920E+02  0.00000000000E+00 0. -1.
         22    1    1    2    0    0 -0.59278546413E+02 -0.13645788376E+03  0.59045728598E+02  0.16006591821E+03  0.00000000000E+00 0.  1.
<mgrwt>
<rscale>  0 0.32299593E+03</rscale>
<asrwt>0</asrwt>
<pdfrwt beam="1">  1        2 0.35235534E-01 0.32299593E+03</pdfrwt>
<pdfrwt beam="2">  1       -2 0.17519695E-01 0.32299593E+03</pdfrwt>
<totfact> 0.38743342E+03</totfact>
</mgrwt>
</event>
<event>
 6    1  0.2236204E-005  0.2571944E+04  0.7818608E-02  0.8377794E-01
          1   -1    0    0  501    0  0.00000000000E+00  0.00000000000E+00  0.24840184248E+04  0.24840184248E+04  0.00000000000E+00 0. -1.
         -1   -1    0    0    0  501 -0.00000000000E+00 -0.00000000000E+00 -0.66574525265E+03  0.66574525265E+03  0.00000000000E+00 0.  1.
         23    2    1    2    0    0 -0.56213340924E+03  0.57704043663E+03 -0.31477670418E+03  0.86966030037E+03  0.90857191519E+02 0.  0.
         11    1    3    3    0    0 -0.33233762962E+03  0.27683684484E+03 -0.16115337434E+03  0.46158135662E+03  0.00000000000E+00 0. -1.
        -11    1    3    3    0    0 -0.22979577962E+03  0.30020359179E+03 -0.15362332984E+03  0.40807894375E+03  0.00000000000E+00 0.  1.
         22    1    1    2    0    0  0.56213340924E+03 -0.57704043663E+03  0.21330498763E+04  0.22801033771E+04  0.00000000000E+00 0. -1.
<mgrwt>
<rscale>  0 0.25719436E+04</rscale>
<asrwt>0</asrwt>
<pdfrwt beam="1">  1        1 0.38215668E+00 0.25719436E+04</pdfrwt>
<pdfrwt beam="2">  1       -1 0.10242235E+00 0.25719436E+04</pdfrwt>
<totfact> 0.11063266E+00</totfact>
</mgrwt>
</event>
<event>
 6    1  0.2236204E-005  0.1107675E+04  0.7818608E-02  0.9197743E-01
         -2   -1    0    0    0  501 -0.00000000000E+00  0.00000000000E+00  0.39255936729E+03  0.39255936729E+03  0.00000000000E+00 0.  1.
          2   -1    0    0  501    0  0.00000000000E+00 -0.00000000000E+00 -0.78137502168E+03  0.78137502168E+03  0.00000000000E+00 0. -1.
         23    2    1    2    0    0  0.29515105517E+03  0.98427100782E+01 -0.68745712688E+03  0.75393706349E+03  0.92805011192E+02 0.  0.
         11    1    3    3    0    0  0.12159910761E+03 -0.27186098766E+02 -0.20521805020E+03  0.24008305868E+03  0.00000000000E+00 0.  1.
        -11    1    3    3    0    0  0.17355194757E+03  0.37028808844E+02 -0.48223907668E+03  0.51385400482E+03  0.00000000000E+00 0. -1.
         22    1    1    2    0    0 -0.29515105517E+03 -0.98427100782E+01  0.29864147250E+03  0.41999732547E+03  0.00000000000E+00 0.  1.
<mgrwt>
<rscale>  0 0.11076752E+04</rscale>
<asrwt>0</asrwt>
<pdfrwt beam="1">  1        2 0.12021154E+00 0.11076752E+04</pdfrwt>
<pdfrwt beam="2">  1       -2 0.60393749E-01 0.11076752E+04</pdfrwt>
<totfact> 0.90124282E+01</totfact>
</mgrwt>
</event>
<event>
 6    1  0.2236204E-005  0.1612936E+04  0.7818608E-02  0.8812640E-01
          2   -1    0    0  501    0  0.00000000000E+00  0.00000000000E+00  0.75991409716E+03  0.75991409716E+03  0.00000000000E+00 0. -1.
         -2   -1    0    0    0  501 -0.00000000000E+00 -0.00000000000E+00 -0.85587385055E+03  0.85587385055E+03  0.00000000000E+00 0.  1.
         23    2    1    2    0    0 -0.10413987076E+03  0.19591851442E+03  0.72604003081E+03  0.76436982351E+03  0.88870263758E+02 0.  0.
         13    1    3    3    0    0 -0.41719813046E+02  0.62636711328E+02  0.12798883933E+03  0.14847573337E+03  0.00000000000E+00 0. -1.
        -13    1    3    3    0    0 -0.62420057717E+02  0.13328180309E+03  0.59805119148E+03  0.61589409014E+03  0.00000000000E+00 0.  1.
         22    1    1    2    0    0  0.10413987076E+03 -0.19591851442E+03 -0.82199978420E+03  0.85141812419E+03  0.00000000000E+00 0.  1.
<mgrwt>
<rscale>  0 0.16129360E+04</rscale>
<asrwt>0</asrwt>
<pdfrwt beam="1">  1        2 0.11690986E+00 0.16129360E+04</pdfrwt>
<pdfrwt beam="2">  1       -2 0.13167290E+00 0.16129360E+04</pdfrwt>
<totfact> 0.14843789E+01</totfact>
</mgrwt>
</event>
<event>
 6    1  0.2236204E-005  0.5119352E+04  0.7818608E-02  0.7810355E-01
         -2   -1    0    0    0  501 -0.00000000000E+00  0.00000000000E+00  0.28019844904E+04  0.28019844904E+04  0.00000000000E+00 0.  1.
          2   -1    0    0  501    0  0.00000000000E+00 -0.00000000000E+00 -0.23383218390E+04  0.23383218390E+04  0.00000000000E+00 0. -1.
         23    2    1    2    0    0 -0.44137198047E+03 -0.11474323621E+04  0.24852687288E+04  0.27742333417E+04  0.91650033897E+02 0.  0.
         13    1    3    3    0    0 -0.27854736201E+03 -0.83499566514E+03  0.17490983330E+04  0.19580989179E+04  0.00000000000E+00 0. -1.
        -13    1    3    3    0    0 -0.16282461846E+03 -0.31243669701E+03  0.73617039576E+03  0.81613442374E+03  0.00000000000E+00 0.  1.
         22    1    1    2    0    0  0.44137198047E+03  0.11474323621E+04 -0.20216060774E+04  0.23660729877E+04  0.00000000000E+00 0. -1.
<mgrwt>
<rscale>  0 0.51193521E+04</rscale>
<asrwt>0</asrwt>
<pdfrwt beam="1">  1        2 0.35974182E+00 0.51193521E+04</pdfrwt>
<pdfrwt beam="2">  1       -2 0.43107453E+00 0.51193521E+04</pdfrwt>
<totfact> 0.14431480E-02</totfact>
</mgrwt>
</event>
<event>
 6    1  0.2236204E-005  0.2220131E+04  0.7818608E-02  0.8510095E-01
          2   -1    0    0  501    0  0.00000000000E+00  0.00000000000E+00  0.17826544121E+04  0.17826544121E+04  0.00000000000E+00 0.  1.
         -2   -1    0    0    0  501 -0.00000000000E+00 -0.00000000000E+00 -0.69124208387E+03  0.69124208387E+03  0.00000000000E+00 0. -1.
         23    2    1    2    0    0 -0.13762764760E+03  0.10599963160E+04  0.22117394860E+03  0.10955466141E+04  0.93653130599E+02 0.  0.
         11    1    3    3    0    0  0.10791145673E+02  0.14703605213E+03  0.43239704037E+02  0.15364153558E+03  0.00000000000E+00 0.  1.
        -11    1    3    3    0    0 -0.14841879327E+03  0.91296026389E+03  0.17793424456E+03  0.94190507857E+03  0.00000000000E+00 0. -1.
         22    1    1    2    0    0  0.13762764760E+03 -0.10599963160E+04  0.87023837969E+03  0.13783498819E+04  0.00000000000E+00 0.  1.
<mgrwt>
<rscale>  0 0.22201313E+04</rscale>
<asrwt>0</asrwt>
<pdfrwt beam="1">  1        2 0.27425452E+00 0.22201313E+04</pdfrwt>
<pdfrwt beam="2">  1       -2 0.10634494E+00 0.22201313E+04</pdfrwt>
<totfact> 0.57396237E+00</totfact>
</mgrwt>
</event>
<event>
 6    1  0.2236204E-005  0.2182342E+04  0.7818608E-02  0.8525814E-01
         -2   -1    0    0    0  501 -0.00000000000E+00  0.00000000000E+00  0.76659828361E+03  0.76659828361E+03  0.00000000000E+00 0.  1.
          2   -1    0    0  501    0  0.00000000000E+00 -0.00000000000E+00 -0.15531662278E+04  0.15531662278E+04  0.00000000000E+00 0. -1.
         23    2    1    2    0    0 -0.50377439288E+03 -0.79364371404E+03  0.19103627525E+03  0.96353112676E+03  0.90765577366E+02 0.  0.
         13    1    3    3    0    0 -0.38113016401E+03 -0.52630421384E+03  0.14542378111E+03  0.66588617911E+03  0.00000000000E+00 0.  1.
        -13    1    3    3    0    0 -0.12264422887E+03 -0.26733950020E+03  0.45612494142E+02  0.29764494765E+03  0.00000000000E+00 0. -1.
         22    1    1    2    0    0  0.50377439288E+03  0.79364371404E+03 -0.97760421946E+03  0.13562333847E+04  0.00000000000E+00 0. -1.
<mgrwt>
<rscale>  0 0.21823424E+04</rscale>
<asrwt>0</asrwt>
<pdfrwt beam="1">  1        2 0.23894865E+00 0.21823424E+04</pdfrwt>
<pdfrwt beam="2">  1       -2 0.11793820E+00 0.21823424E+04</pdfrwt>
<totfact> 0.60122147E+00</totfact>
</mgrwt>
</event>
<event>
 6    1  0.2236204E-005  0.2475566E+04  0.7818608E-02  0.8411742E-01
         -2   -1    0    0    0  501 -0.00000000000E+00  0.00000000000E+00  0.72139550152E+03  0.72139550152E+03  0.00000000000E+00 0.  1.
          2   -1    0    0  501    0  0.00000000000E+00 -0.00000000000E+00 -0.21238103246E+04  0.21238103246E+04  0.00000000000E+00 0. -1.
         23    2    1    2    0    0  0.12129870267E+04 -0.84747728767E+02 -0.44686960637E+03  0.12987303606E+04  0.92132513260E+02 0.  0.
         11    1    3    3    0    0  0.71666055682E+03 -0.94078462468E+02 -0.27663987216E+03  0.77393974551E+03  0.00000000000E+00 0. -1.
        -11    1    3    3    0    0  0.49632646985E+03  0.93307337004E+01 -0.17022973421E+03  0.52479061507E+03  0.00000000000E+00 0.  1.
         22    1    1    2    0    0 -0.12129870267E+04  0.84747728767E+02 -0.95554521676E+03  0.15464754656E+04  0.00000000000E+00 0. -1.
<mgrwt>
<rscale>  0 0.24755664E+04</rscale>
<asrwt>0</asrwt>
<pdfrwt beam="1">  1        2 0.32674004E+00 0.24755664E+04</pdfrwt>
<pdfrwt beam="2">  1       -2 0.11098393E+00 0.24755664E+04</pdfrwt>
<totfact> 0.32740492E+00</totfact>
</mgrwt>
</event>
<event>
 6    1  0.2236204E-005  0.9724009E+03  0.7818608E-02  0.9339344E-01
          2   -1    0    0  501    0  0.00000000000E+00  0.00000000000E+00  0.12042368445E+04  0.12042368445E+04  0.00000000000E+00 0.  1.
         -2   -1    0    0    0  501 -0.00000000000E+00 -0.00000000000E+00 -0.19629933987E+03  0.19629933987E+03  0.00000000000E+00 0. -1.
         23    2    1    2    0    0  0.23355103619E+03  0.31737533534E+03  0.10881886135E+03  0.41886030879E+03  0.91264580819E+02 0.  0.
         11    1    3    3    0    0  0.15182389321E+03  0.26154519640E+03  0.59257258625E+02  0.30816847180E+03  0.00000000000E+00 0.  1.
        -11    1    3    3    0    0  0.81727142973E+02  0.55830138935E+02  0.49561602728E+02  0.11069183699E+03  0.00000000000E+00 0. -1.
         22    1    1    2    0    0 -0.23355103619E+03 -0.31737533534E+03  0.89911864328E+03  0.98167587557E+03  0.00000000000E+00 0.  1.
<mgrwt>
<rscale>  0 0.97240094E+03</rscale>
<asrwt>0</asrwt>
<pdfrwt beam="1">  1        2 0.18526720E+00 0.97240094E+03</pdfrwt>
<pdfrwt beam="2">  1       -2 0.30199899E-01 0.97240094E+03</pdfrwt>
<totfact> 0.19037163E+02</totfact>
</mgrwt>
</event>
<event>
 6    1  0.2236204E-005  0.3905019E+04  0.7818608E-02  0.8023986E-01
         -2   -1    0    0    0  501 -0.00000000000E+00  0.00000000000E+00  0.98857255869E+03  0.98857255869E+03  0.00000000000E+00 0.  1.
          2   -1    0    0  501    0  0.00000000000E+00 -0.00000000000E+00 -0.38563607967E+04  0.38563607967E+04  0.00000000000E+00 0. -1.
         23    2    1    2    0    0  0.17125898896E+04  0.21570900148E+03 -0.30543469854E+03  0.17554107119E+04  0.93176763630E+02 0.  0.
         13    1    3    3    0    0  0.14962347678E+04  0.21947638118E+03 -0.26748769019E+03  0.15357206864E+04  0.00000000000E+00 0.  1.
        -13    1    3    3    0    0  0.21635512178E+03 -0.37673796997E+01 -0.37947008352E+02  0.21969002552E+03  0.00000000000E+00 0. -1.
         22    1    1    2    0    0 -0.17125898896E+04 -0.21570900148E+03 -0.25623535395E+04  0.30895226434E+04  0.00000000000E+00 0. -1.
<mgrwt>
<rscale>  0 0.39050185E+04</rscale>
<asrwt>0</asrwt>
<pdfrwt beam="1">  1        2 0.59328628E+00 0.39050185E+04</pdfrwt>
<pdfrwt beam="2">  1       -2 0.15208809E+00 0.39050185E+04</pdfrwt>
<totfact> 0.10175891E-01</totfact>
</mgrwt>
</event>
<event>
 6    1  0.2236204E-005  0.4391456E+04  0.7818608E-02  0.7929920E-01
         -2   -1    0    0    0  501 -0.00000000000E+00  0.00000000000E+00  0.14685079014E+04  0.14685079014E+04  0.00000000000E+00 0.  1.
          2   -1    0    0  501    0  0.00000000000E+00 -0.00000000000E+00 -0.32830746971E+04  0.32830746971E+04  0.00000000000E+00 0. -1.
         23    2    1    2    0    0  0.27231580800E+02 -0.21178601687E+04 -0.15301274931E+04  0.26145334717E+04  0.91770781920E+02 0.  0.
         13    1    3    3    0    0 -0.80221357321E+01 -0.16243468092E+04 -0.12044961258E+04  0.20222210137E+04  0.00000000000E+00 0.  1.
        -13    1    3    3    0    0  0.35253716532E+02 -0.49351335955E+03 -0.32563136725E+03  0.59231245802E+03  0.00000000000E+00 0. -1.
         22    1    1    2    0    0 -0.27231580800E+02  0.21178601687E+04 -0.28443930265E+03  0.21370491268E+04  0.00000000000E+00 0.  1.
<mgrwt>
<rscale>  0 0.43914559E+04</rscale>
<asrwt>0</asrwt>
<pdfrwt beam="1">  1        2 0.50508841E+00 0.43914559E+04</pdfrwt>
<pdfrwt beam="2">  1       -2 0.22592430E+00 0.43914559E+04</pdfrwt>
<totfact> 0.79142854E-02</totfact>
</mgrwt>
</event>
<event>
 6    1  0.2236204E-005  0.3081780E+04  0.7818608E-02  0.8220756E-01
          2   -1    0    0  501    0  0.00000000000E+00  0.00000000000E+00  0.10542086175E+04  0.10542086175E+04  0.00000000000E+00 0. -1.
         -2   -1    0    0    0  501 -0.00000000000E+00 -0.00000000000E+00 -0.22522511769E+04  0.22522511769E+04  0.00000000000E+00 0.  1.
         23    2    1    2    0    0 -0.10869087531E+04  0.44366133179E+03  0.46898248885E+03  0.12675437769E+04  0.92285624828E+02 0.  0.
         11    1    3    3    0    0 -0.99517620524E+02  0.49139194056E+02  0.73335493101E+02  0.13302823661E+03  0.00000000000E+00 0.  1.
        -11    1    3    3    0    0 -0.98739113258E+03  0.39452213774E+03  0.39564699575E+03  0.11345155403E+04  0.00000000000E+00 0. -1.
         22    1    1    2    0    0  0.10869087531E+04 -0.44366133179E+03 -0.16670250483E+04  0.20389160175E+04  0.00000000000E+00 0.  1.
<mgrwt>
<rscale>  0 0.30817804E+04</rscale>
<asrwt>0</asrwt>
<pdfrwt beam="1">  1        2 0.16218594E+00 0.30817804E+04</pdfrwt>
<pdfrwt beam="2">  1       -2 0.34650017E+00 0.30817804E+04</pdfrwt>
<totfact> 0.32371581E-01</totfact>
</mgrwt>
</event>
<event>
 6    1  0.2236204E-005  0.3353491E+04  0.7818608E-02  0.8149416E-01
          2   -1    0    0  501    0  0.00000000000E+00  0.00000000000E+00  0.22738443780E+04  0.22738443780E+04  0.00000000000E+00 0. -1.
         -2   -1    0    0    0  501 -0.00000000000E+00 -0.00000000000E+00 -0.12364418259E+04  0.12364418259E+04  0.00000000000E+00 0.  1.
         23    2    1    2    0    0  0.50212540127E+03 -0.10537539473E+04 -0.73904688044E+03  0.13846569121E+04  0.92504987530E+02 0.  0.
         13    1    3    3    0    0  0.18371279066E+03 -0.42868073087E+03 -0.24664069055E+03  0.52758808621E+03  0.00000000000E+00 0.  1.
        -13    1    3    3    0    0  0.31841261061E+03 -0.62507321638E+03 -0.49240618989E+03  0.85706882587E+03  0.00000000000E+00 0. -1.
         22    1    1    2    0    0 -0.50212540127E+03  0.10537539473E+04  0.17764494325E+04  0.21256292918E+04  0.00000000000E+00 0. -1.
<mgrwt>
<rscale>  0 0.33534915E+04</rscale>
<asrwt>0</asrwt>
<pdfrwt beam="1">  1        2 0.34982221E+00 0.33534915E+04</pdfrwt>
<pdfrwt beam="2">  1       -2 0.19022182E+00 0.33534915E+04</pdfrwt>
<totfact> 0.60258554E-01</totfact>
</mgrwt>
</event>
<event>
 6    1  0.2236204E-005  0.1604522E+04  0.7818608E-02  0.8817775E-01
          1   -1    0    0  501    0  0.00000000000E+00  0.00000000000E+00  0.97774609283E+03  0.97774609283E+03  0.00000000000E+00 0. -1.
         -1   -1    0    0    0  501 -0.00000000000E+00 -0.00000000000E+00 -0.65827199959E+03  0.65827199959E+03  0.00000000000E+00 0.  1.
         23    2    1    2    0    0  0.67201127828E+03 -0.47602452731E+02 -0.27905699429E+03  0.73484962072E+03  0.90917585587E+02 0.  0.
         11    1    3    3    0    0  0.42422768616E+03 -0.58688641942E+02 -0.14041310122E+03  0.45069870799E+03  0.00000000000E+00 0. -1.
        -11    1    3    3    0    0  0.24778359213E+03  0.11086189211E+02 -0.13864389307E+03  0.28415091273E+03  0.00000000000E+00 0.  1.
         22    1    1    2    0    0 -0.67201127828E+03  0.47602452731E+02  0.59853108753E+03  0.90116847170E+03  0.00000000000E+00 0. -1.
<mgrwt>
<rscale>  0 0.16045222E+04</rscale>
<asrwt>0</asrwt>
<pdfrwt beam="1">  1        1 0.15042248E+00 0.16045222E+04</pdfrwt>
<pdfrwt beam="2">  1       -1 0.10127261E+00 0.16045222E+04</pdfrwt>
<totfact> 0.13992536E+01</totfact>
</mgrwt>
</event>
<event>
 6    1  0.2236204E-005  0.2860306E+04  0.7818608E-02  0.8284787E-01
         -2   -1    0    0    0  501 -0.00000000000E+00  0.00000000000E+00  0.61154114701E+03  0.61154114701E+03  0.00000000000E+00 0.  1.
          2   -1    0    0  501    0  0.00000000000E+00 -0.00000000000E+00 -0.33445617136E+04  0.33445617136E+04  0.00000000000E+00 0. -1.
         23    2    1    2    0    0 -0.13804080964E+04  0.13484735821E+03 -0.89415465478E+03  0.16528143063E+04  0.92586510599E+02 0.  0.
         13    1    3    3    0    0 -0.27754651823E+03 -0.47455922091E+00 -0.14971786872E+03  0.31535334975E+03  0.00000000000E+00 0. -1.
        -13    1    3    3    0    0 -0.11028615782E+04  0.13532191744E+03 -0.74443678606E+03  0.13374609566E+04  0.00000000000E+00 0.  1.
         22    1    1    2    0    0  0.13804080964E+04 -0.13484735821E+03 -0.18388659118E+04  0.23032885542E+04  0.00000000000E+00 0.  1.
<mgrwt>
<rscale>  0 0.28603057E+04</rscale>
<asrwt>0</asrwt>
<pdfrwt beam="1">  1        2 0.51454794E+00 0.28603057E+04</pdfrwt>
<pdfrwt beam="2">  1       -2 0.94083257E-01 0.28603057E+04</pdfrwt>
<totfact> 0.85789778E-01</totfact>
</mgrwt>
</event>
<event>
 6    1  0.2236204E-005  0.4232206E+04  0.7818608E-02  0.7959274E-01
         -2   -1    0    0    0  501 -0.00000000000E+00  0.00000000000E+00  0.13636129556E+04  0.13636129556E+04  0.00000000000E+00 0.  1.
          2   -1    0    0  501    0  0.00000000000E+00 -0.00000000000E+00 -0.32838431396E+04  0.32838431396E+04  0.00000000000E+00 0. -1.
         23    2    1    2    0    0 -0.18648750674E+04 -0.99573857738E+03 -0.10331553419E+04  0.23548252686E+04  0.92399967435E+02 0.  0.
         11    1    3    3    0    0 -0.15219867709E+03 -0.10184842664E+03 -0.69183636872E+02  0.19576494816E+03  0.00000000000E+00 0.  1.
        -11    1    3    3    0    0 -0.17126763903E+04 -0.89389015075E+03 -0.96397170504E+03  0.21590603205E+04  0.00000000000E+00 0. -1.
         22    1    1    2    0    0  0.18648750674E+04  0.99573857738E+03 -0.88707484213E+03  0.22926308266E+04  0.00000000000E+00 0.  1.
<mgrwt>
<rscale>  0 0.42322056E+04</rscale>
<asrwt>0</asrwt>
<pdfrwt beam="1">  1        2 0.50520663E+00 0.42322056E+04</pdfrwt>
<pdfrwt beam="2">  1       -2 0.20978661E+00 0.42322056E+04</pdfrwt>
<totfact> 0.10143103E-01</totfact>
</mgrwt>
</event>
<event>
 6    1  0.2236204E-005  0.4280992E+04  0.7818608E-02  0.7950142E-01
          2   -1    0    0  501    0  0.00000000000E+00  0.00000000000E+00  0.25264523290E+04  0.25264523290E+04  0.00000000000E+00 0. -1.
         -2   -1    0    0    0  501 -0.00000000000E+00 -0.00000000000E+00 -0.18135007991E+04  0.18135007991E+04  0.00000000000E+00 0.  1.
         23    2    1    2    0    0 -0.18001152591E+04  0.45049438079E+03  0.14363010393E+04  0.23483219761E+04  0.91078508710E+02 0.  0.
         11    1    3    3    0    0 -0.71028777728E+03  0.15790282355E+03  0.51271654665E+03  0.89012374727E+03  0.00000000000E+00 0.  1.
        -11    1    3    3    0    0 -0.10898274818E+04  0.29259155724E+03  0.92358449261E+03  0.14581982288E+04  0.00000000000E+00 0. -1.
         22    1    1    2    0    0  0.18001152591E+04 -0.45049438079E+03 -0.72334950939E+03  0.19916311521E+04  0.00000000000E+00 0.  1.
<mgrwt>
<rscale>  0 0.42809921E+04</rscale>
<asrwt>0</asrwt>
<pdfrwt beam="1">  1        2 0.38868497E+00 0.42809921E+04</pdfrwt>
<pdfrwt beam="2">  1       -2 0.27900012E+00 0.42809921E+04</pdfrwt>
<totfact> 0.11067064E-01</totfact>
</mgrwt>
</event>
<event>
 6    1  0.2236204E-005  0.3366255E+04  0.7818608E-02  0.8146238E-01
         -2   -1    0    0    0  501 -0.00000000000E+00  0.00000000000E+00  0.19911459811E+04  0.19911459811E+04  0.00000000000E+00 0.  1.
          2   -1    0    0  501    0  0.00000000000E+00 -0.00000000000E+00 -0.14227576539E+04  0.14227576539E+04  0.00000000000E+00 0. -1.
         23    2    1    2    0    0  0.14688346088E+04 -0.47383035703E+03 -0.39311560800E+03  0.15955306995E+04  0.95854141510E+02 0.  0.
         13    1    3    3    0    0  0.88349456611E+03 -0.23885541936E+03 -0.21514037263E+03  0.94015952883E+03  0.00000000000E+00 0.  1.
        -13    1    3    3    0    0  0.58534004271E+03 -0.23497493767E+03 -0.17797523537E+03  0.65537117066E+03  0.00000000000E+00 0. -1.
         22    1    1    2    0    0 -0.14688346088E+04  0.47383035703E+03  0.96150393518E+03  0.18183729355E+04  0.00000000000E+00 0.  1.
<mgrwt>
<rscale>  0 0.33662550E+04</rscale>
<asrwt>0</asrwt>
<pdfrwt beam="1">  1        2 0.21888579E+00 0.33662550E+04</pdfrwt>
<pdfrwt beam="2">  1       -2 0.30633015E+00 0.33662550E+04</pdfrwt>
<totfact> 0.33903617E-01</totfact>
</mgrwt>
</event>
<event>
 6    1  0.2236204E-005  0.1620544E+04  0.7818608E-02  0.8808026E-01
         -1   -1    0    0    0  501 -0.00000000000E+00  0.00000000000E+00  0.10430655216E+04  0.10430655216E+04  0.00000000000E+00 0.  1.
          1   -1    0    0  501    0  0.00000000000E+00 -0.00000000000E+00 -0.62943384033E+03  0.62943384033E+03  0.00000000000E+00 0. -1.
         23    2    1    2    0    0  0.47193621127E+03 -0.64841813793E+03  0.30798809402E+03  0.86359242255E+03  0.88121150242E+02 0.  0.
         11    1    3    3    0    0  0.40682084404E+03 -0.53854127964E+03  0.22574450949E+03  0.71168145444E+03  0.00000000000E+00 0. -1.
        -11    1    3    3    0    0  0.65115367230E+02 -0.10987685829E+03  0.82243584522E+02  0.15191096811E+03  0.00000000000E+00 0.  1.
         22    1    1    2    0    0 -0.47193621127E+03  0.64841813793E+03  0.10564358730E+03  0.80890693942E+03  0.00000000000E+00 0.  1.
<mgrwt>
<rscale>  0 0.16205440E+04</rscale>
<asrwt>0</asrwt>
<pdfrwt beam="1">  1        1 0.96835976E-01 0.16205440E+04</pdfrwt>
<pdfrwt beam="2">  1       -1 0.16047162E+00 0.16205440E+04</pdfrwt>
<totfact> 0.88672666E+00</totfact>
</mgrwt>
</event>
<event>
 6    1  0.2236204E-005  0.1192151E+04  0.7818608E-02  0.9119755E-01
          1   -1    0    0  501    0  0.00000000000E+00  0.00000000000E+00  0.81000779616E+03  0.81000779616E+03  0.00000000000E+00 0. -1.
         -1   -1    0    0    0  501 -0.00000000000E+00 -0.00000000000E+00 -0.43864523736E+03  0.43864523736E+03  0.00000000000E+00 0.  1.
         23    2    1    2    0    0 -0.45380591609E+03 -0.84276086305E+02  0.57577652667E+03  0.74384877595E+03  0.93542100803E+02 0.  0.
         11    1    3    3    0    0 -0.35217077253E+03 -0.10435212900E+03  0.44488701103E+03  0.57692120124E+03  0.00000000000E+00 0. -1.
        -11    1    3    3    0    0 -0.10163514356E+03  0.20076042698E+02  0.13088951564E+03  0.16692757472E+03  0.00000000000E+00 0.  1.
         22    1    1    2    0    0  0.45380591609E+03  0.84276086305E+02 -0.20441396786E+03  0.50480425757E+03  0.00000000000E+00 0.  1.
<mgrwt>
<rscale>  0 0.11921511E+04</rscale>
<asrwt>0</asrwt>
<pdfrwt beam="1">  1        1 0.12461658E+00 0.11921511E+04</pdfrwt>
<pdfrwt beam="2">  1       -1 0.67483883E-01 0.11921511E+04</pdfrwt>
<totfact> 0.47735181E+01</totfact>
</mgrwt>
</event>
<event>
 6    1  0.2236204E-005  0.8642702E+03  0.7818608E-02  0.9471382E-01
         -2   -1    0    0    0  501 -0.00000000000E+00  0.00000000000E+00  0.28273835214E+03  0.28273835214E+03  0.00000000000E+00 0.  1.
          2   -1    0    0  501    0  0.00000000000E+00 -0.00000000000E+00 -0.66047189795E+03  0.66047189795E+03  0.00000000000E+00 0. -1.
         23    2    1    2    0    0  0.37353520214E+03  0.13887933352E+03 -0.19055384143E+02  0.40705165399E+03  0.80696498246E+02 0.  0.
         11    1    3    3    0    0  0.31324223350E+03  0.10245260097E+03  0.12625175482E+02  0.32981301877E+03  0.00000000000E+00 0.  1.
        -11    1    3    3    0    0  0.60292968642E+02  0.36426732551E+02 -0.31680559625E+02  0.77238635217E+02  0.00000000000E+00 0. -1.
         22    1    1    2    0    0 -0.37353520214E+03 -0.13887933352E+03 -0.35867816167E+03  0.53615859611E+03  0.00000000000E+00 0. -1.
<mgrwt>
<rscale>  0 0.86427018E+03</rscale>
<asrwt>0</asrwt>
<pdfrwt beam="1">  1        2 0.10161106E+00 0.86427018E+03</pdfrwt>
<pdfrwt beam="2">  1       -2 0.43498208E-01 0.86427018E+03</pdfrwt>
<totfact> 0.22182456E+02</totfact>
</mgrwt>
</event>
<event>
 6    1  0.2236204E-005  0.2087433E+04  0.7818608E-02  0.8566799E-01
          2   -1    0    0  501    0  0.00000000000E+00  0.00000000000E+00  0.16215648932E+04  0.16215648932E+04  0.00000000000E+00 0.  1.
         -2   -1    0    0    0  501 -0.00000000000E+00 -0.00000000000E+00 -0.67178599043E+03  0.67178599043E+03  0.00000000000E+00 0. -1.
         23    2    1    2    0    0  0.13468285905E+03  0.13332564771E+03  0.16014050869E+04  0.16147258879E+04  0.83224034069E+02 0.  0.
         11    1    3    3    0    0  0.51502105114E+02  0.63761994255E+02  0.10205480861E+04  0.10238341930E+04  0.00000000000E+00 0.  1.
        -11    1    3    3    0    0  0.83180753932E+02  0.69563653454E+02  0.58085700082E+03  0.59089169491E+03  0.00000000000E+00 0. -1.
         22    1    1    2    0    0 -0.13468285905E+03 -0.13332564771E+03 -0.65162618418E+03  0.67862499569E+03  0.00000000000E+00 0. -1.
<mgrwt>
<rscale>  0 0.20874334E+04</rscale>
<asrwt>0</asrwt>
<pdfrwt beam="1">  1        2 0.24947152E+00 0.20874334E+04</pdfrwt>
<pdfrwt beam="2">  1       -2 0.10335169E+00 0.20874334E+04</pdfrwt>
<totfact> 0.76401834E+00</totfact>
</mgrwt>
</event>
<event>
 6    1  0.2236204E-005  0.4631212E+03  0.7818608E-02  0.1023880E+00
         -2   -1    0    0    0  501 -0.00000000000E+00  0.00000000000E+00  0.12889629923E+03  0.12889629923E+03  0.00000000000E+00 0.  1.
          2   -1    0    0  501    0  0.00000000000E+00 -0.00000000000E+00 -0.41599576839E+03  0.41599576839E+03  0.00000000000E+00 0. -1.
         23    2    1    2    0    0 -0.15178235188E+03  0.14440125980E+03 -0.60011024461E+02  0.23592804401E+03  0.90394207346E+02 0.  0.
         11    1    3    3    0    0 -0.65459681076E+02  0.63290128276E+02  0.19692623350E+02  0.93157981935E+02  0.00000000000E+00 0. -1.
        -11    1    3    3    0    0 -0.86322670802E+02  0.81111131519E+02 -0.79703647811E+02  0.14277006208E+03  0.00000000000E+00 0.  1.
         22    1    1    2    0    0  0.15178235188E+03 -0.14440125980E+03 -0.22708844470E+03  0.30896402361E+03  0.00000000000E+00 0.  1.
<mgrwt>
<rscale>  0 0.46312122E+03</rscale>
<asrwt>0</asrwt>
<pdfrwt beam="1">  1        2 0.63999349E-01 0.46312122E+03</pdfrwt>
<pdfrwt beam="2">  1       -2 0.19830200E-01 0.46312122E+03</pdfrwt>
<totfact> 0.16412078E+03</totfact>
</mgrwt>
</event>
<event>
 6    1  0.2236204E-005  0.2426414E+04  0.7818608E-02  0.8429680E-01
         -2   -1    0    0    0  501 -0.00000000000E+00  0.00000000000E+00  0.79118119397E+03  0.79118119397E+03  0.00000000000E+00 0.  1.
          2   -1    0    0  501    0  0.00000000000E+00 -0.00000000000E+00 -0.18603471853E+04  0.18603471853E+04  0.00000000000E+00 0. -1.
         23    2    1    2    0    0 -0.10879277075E+03  0.92771341286E+03  0.30796449950E+03  0.98750421113E+03  0.88512093359E+02 0.  0.
         11    1    3    3    0    0 -0.99372529307E+02  0.79476709361E+03  0.23101168103E+03  0.83360424030E+03  0.00000000000E+00 0.  1.
        -11    1    3    3    0    0 -0.94202414383E+01  0.13294631925E+03  0.76952818470E+02  0.15389997083E+03  0.00000000000E+00 0. -1.
         22    1    1    2    0    0  0.10879277075E+03 -0.92771341286E+03 -0.13771304909E+04  0.16640241682E+04  0.00000000000E+00 0. -1.
<mgrwt>
<rscale>  0 0.24264144E+04</rscale>
<asrwt>0</asrwt>
<pdfrwt beam="1">  1        2 0.28620726E+00 0.24264144E+04</pdfrwt>
<pdfrwt beam="2">  1       -2 0.12172018E+00 0.24264144E+04</pdfrwt>
<totfact> 0.36736736E+00</totfact>
</mgrwt>
</event>
<event>
 6    1  0.2236204E-005  0.3388310E+04  0.7818608E-02  0.8140781E-01
         -2   -1    0    0    0  501 -0.00000000000E+00  0.00000000000E+00  0.12087715326E+04  0.12087715326E+04  0.00000000000E+00 0.  1.
          2   -1    0    0  501    0  0.00000000000E+00 -0.00000000000E+00 -0.23744446017E+04  0.23744446017E+04  0.00000000000E+00 0. -1.
         23    2    1    2    0    0  0.14594317298E+04 -0.80945659418E+03 -0.28186989104E+03  0.16947593545E+04  0.87164685733E+02 0.  0.
         13    1    3    3    0    0  0.60726826047E+03 -0.38544504875E+03 -0.12877161347E+03  0.73070154935E+03  0.00000000000E+00 0.  1.
        -13    1    3    3    0    0  0.85216346929E+03 -0.42401154543E+03 -0.15309827757E+03  0.96405780514E+03  0.00000000000E+00 0. -1.
         22    1    1    2    0    0 -0.14594317298E+04  0.80945659418E+03 -0.88380317805E+03  0.18884567798E+04  0.00000000000E+00 0.  1.
<mgrwt>
<rscale>  0 0.33883099E+04</rscale>
<asrwt>0</asrwt>
<pdfrwt beam="1">  1        2 0.36529917E+00 0.33883099E+04</pdfrwt>
<pdfrwt beam="2">  1       -2 0.18596485E+00 0.33883099E+04</pdfrwt>
<totfact> 0.56267805E-01</totfact>
</mgrwt>
</event>
<event>
 6    1  0.2236204E-005  0.3471945E+04  0.7818608E-02  0.8120471E-01
          2   -1    0    0  501    0  0.00000000000E+00  0.00000000000E+00  0.36397063696E+04  0.36397063696E+04  0.00000000000E+00 0.  1.
         -2   -1    0    0    0  501 -0.00000000000E+00 -0.00000000000E+00 -0.82797917607E+03  0.82797917607E+03  0.00000000000E+00 0. -1.
         23    2    1    2    0    0  0.77617248029E+03  0.11558208598E+04  0.75015883686E+02  0.13971881312E+04  0.90231435347E+02 0.  0.
         13    1    3    3    0    0  0.50624552524E+03  0.71493073486E+03  0.92845690913E+01  0.87606888467E+03  0.00000000000E+00 0.  1.
        -13    1    3    3    0    0  0.26992695505E+03  0.44089012494E+03  0.65731314595E+02  0.52111924648E+03  0.00000000000E+00 0. -1.
         22    1    1    2    0    0 -0.77617248029E+03 -0.11558208598E+04  0.27367113098E+04  0.30704974145E+04  0.00000000000E+00 0.  1.
<mgrwt>
<rscale>  0 0.34719453E+04</rscale>
<asrwt>0</asrwt>
<pdfrwt beam="1">  1        2 0.55995482E+00 0.34719453E+04</pdfrwt>
<pdfrwt beam="2">  1       -2 0.12738141E+00 0.34719453E+04</pdfrwt>
<totfact> 0.24290290E-01</totfact>
</mgrwt>
</event>
<event>
 6    1  0.2236204E-005  0.4323645E+04  0.7818608E-02  0.7942260E-01
         -2   -1    0    0    0  501 -0.00000000000E+00  0.00000000000E+00  0.15183722561E+04  0.15183722561E+04  0.00000000000E+00 0.  1.
          2   -1    0    0  501    0  0.00000000000E+00 -0.00000000000E+00 -0.30779523302E+04  0.30779523302E+04  0.00000000000E+00 0. -1.
         23    2    1    2    0    0 -0.11145570083E+04 -0.13008105160E+04  0.61991140103E+03  0.18242263893E+04  0.95741585346E+02 0.  0.
         13    1    3    3    0    0 -0.51932787119E+03 -0.56495299579E+03  0.23578415229E+03  0.80278732658E+03  0.00000000000E+00 0.  1.
        -13    1    3    3    0    0 -0.59522913712E+03 -0.73585752021E+03  0.38412724874E+03  0.10214390628E+04  0.00000000000E+00 0. -1.
         22    1    1    2    0    0  0.11145570083E+04  0.13008105160E+04 -0.21794914752E+04  0.27720981970E+04  0.00000000000E+00 0. -1.
<mgrwt>
<rscale>  0 0.43236454E+04</rscale>
<asrwt>0</asrwt>
<pdfrwt beam="1">  1        2 0.47353113E+00 0.43236454E+04</pdfrwt>
<pdfrwt beam="2">  1       -2 0.23359573E+00 0.43236454E+04</pdfrwt>
<totfact> 0.96922421E-02</totfact>
</mgrwt>
</event>
<event>
 6    1  0.2236204E-005  0.1494031E+04  0.7818608E-02  0.8888432E-01
          2   -1    0    0  501    0  0.00000000000E+00  0.00000000000E+00  0.18261057713E+04  0.18261057713E+04  0.00000000000E+00 0. -1.
         -2   -1    0    0    0  501 -0.00000000000E+00 -0.00000000000E+00 -0.30558609289E+03  0.30558609289E+03  0.00000000000E+00 0.  1.
         23    2    1    2    0    0  0.22399967169E+03  0.39864750644E+03  0.16007782281E+04  0.16674321071E+04  0.93505127140E+02 0.  0.
         11    1    3    3    0    0  0.17887801014E+02  0.10428158811E+03  0.30957883898E+03  0.32716002290E+03  0.00000000000E+00 0.  1.
        -11    1    3    3    0    0  0.20611187067E+03  0.29436591833E+03  0.12911993891E+04  0.13402720842E+04  0.00000000000E+00 0. -1.
         22    1    1    2    0    0 -0.22399967169E+03 -0.39864750644E+03 -0.80258549672E+02  0.46425975715E+03  0.00000000000E+00 0.  1.
<mgrwt>
<rscale>  0 0.14940315E+04</rscale>
<asrwt>0</asrwt>
<pdfrwt beam="1">  1        2 0.28093934E+00 0.14940315E+04</pdfrwt>
<pdfrwt beam="2">  1       -2 0.47013246E-01 0.14940315E+04</pdfrwt>
<totfact> 0.34596810E+01</totfact>
</mgrwt>
</event>
<event>
 6    1  0.2236204E-005  0.4050712E+04  0.7818608E-02  0.7994394E-01
         -1   -1    0    0    0  501 -0.00000000000E+00  0.00000000000E+00  0.15218651867E+04  0.15218651867E+04  0.00000000000E+00 0.  1.
          1   -1    0    0  501    0  0.00000000000E+00 -0.00000000000E+00 -0.26954210513E+04  0.26954210513E+04  0.00000000000E+00 0. -1.
         23    2    1    2    0    0  0.99008763346E+03 -0.15544057462E+04  0.28483656986E+03  0.18671034283E+04  0.92155274923E+02 0.  0.
         11    1    3    3    0    0  0.47191973039E+03 -0.82653508823E+03  0.14904746552E+03  0.96337097267E+03  0.00000000000E+00 0.  1.
        -11    1    3    3    0    0  0.51816790306E+03 -0.72787065800E+03  0.13578910434E+03  0.90373245565E+03  0.00000000000E+00 0. -1.
         22    1    1    2    0    0 -0.99008763346E+03  0.15544057462E+04 -0.14583924345E+04  0.23501828096E+04  0.00000000000E+00 0.  1.
<mgrwt>
<rscale>  0 0.40507123E+04</rscale>
<asrwt>0</asrwt>
<pdfrwt beam="1">  1        1 0.41468016E+00 0.40507123E+04</pdfrwt>
<pdfrwt beam="2">  1       -1 0.23413311E+00 0.40507123E+04</pdfrwt>
<totfact> 0.68289243E-02</totfact>
</mgrwt>
</event>
<event>
 6    1  0.2236204E-005  0.1052468E+04  0.7818608E-02  0.9252800E-01
          2   -1    0    0  501    0  0.00000000000E+00  0.00000000000E+00  0.98333134834E+03  0.98333134834E+03  0.00000000000E+00 0. -1.
         -2   -1    0    0    0  501 -0.00000000000E+00 -0.00000000000E+00 -0.28161616154E+03  0.28161616154E+03  0.00000000000E+00 0.  1.
         23    2    1    2    0    0  0.12631096658E+03 -0.41550500783E+03  0.46750853169E+01  0.44369007466E+03  0.90775294670E+02 0.  0.
         11    1    3    3    0    0  0.13060220471E+03 -0.35472601857E+03 -0.18609042270E+02  0.37846238991E+03  0.00000000000E+00 0.  1.
        -11    1    3    3    0    0 -0.42912381331E+01 -0.60778989262E+02  0.23284127587E+02  0.65227684751E+02  0.00000000000E+00 0. -1.
         22    1    1    2    0    0 -0.12631096658E+03  0.41550500783E+03  0.69704010148E+03  0.82125743521E+03  0.00000000000E+00 0. -1.
<mgrwt>
<rscale>  0 0.10524676E+04</rscale>
<asrwt>0</asrwt>
<pdfrwt beam="1">  1        2 0.15128174E+00 0.10524676E+04</pdfrwt>
<pdfrwt beam="2">  1       -2 0.43325564E-01 0.10524676E+04</pdfrwt>
<totfact> 0.12977853E+02</totfact>
</mgrwt>
</event>
<event>
 6    1  0.2236204E-005  0.1727042E+04  0.7818608E-02  0.8746090E-01
         -2   -1    0    0    0  501 -0.00000000000E+00  0.00000000000E+00  0.37310704295E+03  0.37310704295E+03  0.00000000000E+00 0.  1.
          2   -1    0    0  501    0  0.00000000000E+00 -0.00000000000E+00 -0.19985373080E+04  0.19985373080E+04  0.00000000000E+00 0. -1.
         23    2    1    2    0    0 -0.53953513804E+03 -0.54877361950E+03 -0.28456559058E+03  0.82562729868E+03  0.91827067643E+02 0.  0.
         11    1    3    3    0    0 -0.30330296631E+03 -0.33573961868E+03 -0.21046452367E+03  0.49900811281E+03  0.00000000000E+00 0. -1.
        -11    1    3    3    0    0 -0.23623217173E+03 -0.21303400082E+03 -0.74101066904E+02  0.32661918587E+03  0.00000000000E+00 0.  1.
         22    1    1    2    0    0  0.53953513804E+03  0.54877361950E+03 -0.13408646745E+04  0.15460170523E+04  0.00000000000E+00 0. -1.
<mgrwt>
<rscale>  0 0.17270418E+04</rscale>
<asrwt>0</asrwt>
<pdfrwt beam="1">  1        2 0.30746727E+00 0.17270418E+04</pdfrwt>
<pdfrwt beam="2">  1       -2 0.57401084E-01 0.17270418E+04</pdfrwt>
<totfact> 0.18073227E+01</totfact>
</mgrwt>
</event>
<event>
 6    1  0.2236204E-005  0.2360619E+04  0.7818608E-02  0.8454396E-01
         -2   -1    0    0    0  501 -0.00000000000E+00  0.00000000000E+00  0.11831967719E+04  0.11831967719E+04  0.00000000000E+00 0.  1.
          2   -1    0    0  501    0  0.00000000000E+00 -0.00000000000E+00 -0.11774292098E+04  0.11774292098E+04  0.00000000000E+00 0. -1.
         23    2    1    2    0    0 -0.64234910124E+03  0.98039025626E+03 -0.11845052129E+03  0.11819794890E+04  0.96268188362E+02 0.  0.
         13    1    3    3    0    0 -0.28127804797E+03  0.51650587520E+03 -0.53472533930E+02  0.59055479955E+03  0.00000000000E+00 0. -1.
        -13    1    3    3    0    0 -0.36107105327E+03  0.46388438106E+03 -0.64977987361E+02  0.59142468949E+03  0.00000000000E+00 0.  1.
         22    1    1    2    0    0  0.64234910124E+03 -0.98039025626E+03  0.12421808329E+03  0.11786464927E+04  0.00000000000E+00 0.  1.
<mgrwt>
<rscale>  0 0.23606189E+04</rscale>
<asrwt>0</asrwt>
<pdfrwt beam="1">  1        2 0.18114296E+00 0.23606189E+04</pdfrwt>
<pdfrwt beam="2">  1       -2 0.18203027E+00 0.23606189E+04</pdfrwt>
<totfact> 0.30951577E+00</totfact>
</mgrwt>
</event>
<event>
 6    1  0.2236204E-005  0.1417727E+04  0.7818608E-02  0.8941086E-01
          2   -1    0    0  501    0  0.00000000000E+00  0.00000000000E+00  0.31218040760E+04  0.31218040760E+04  0.00000000000E+00 0. -1.
         -2   -1    0    0    0  501 -0.00000000000E+00 -0.00000000000E+00 -0.16096052380E+03  0.16096052380E+03  0.00000000000E+00 0.  1.
         23    2    1    2    0    0 -0.42215735451E+03  0.55712437648E+03  0.12649387775E+04  0.14484534464E+04  0.96658535920E+02 0.  0.
         11    1    3    3    0    0 -0.23005740847E+03  0.23659486401E+03  0.64729228716E+03  0.72656097189E+03  0.00000000000E+00 0.  1.
        -11    1    3    3    0    0 -0.19209994604E+03  0.32052951248E+03  0.61764649038E+03  0.72189247448E+03  0.00000000000E+00 0. -1.
         22    1    1    2    0    0  0.42215735451E+03 -0.55712437648E+03  0.16959047746E+04  0.18343111534E+04  0.00000000000E+00 0.  1.
<mgrwt>
<rscale>  0 0.14177267E+04</rscale>
<asrwt>0</asrwt>
<pdfrwt beam="1">  1        2 0.48027751E+00 0.14177267E+04</pdfrwt>
<pdfrwt beam="2">  1       -2 0.24763160E-01 0.14177267E+04</pdfrwt>
<totfact> 0.20892619E+01</totfact>
</mgrwt>
</event>
<event>
 6    1  0.2236204E-005  0.8561358E+03  0.7818608E-02  0.9482139E-01
         -2   -1    0    0    0  501 -0.00000000000E+00  0.00000000000E+00  0.10524386438E+03  0.10524386438E+03  0.00000000000E+00 0.  1.
          2   -1    0    0  501    0  0.00000000000E+00 -0.00000000000E+00 -0.17411191318E+04  0.17411191318E+04  0.00000000000E+00 0. -1.
         23    2    1    2    0    0  0.40830265477E+02  0.30667511129E+03 -0.20887056896E+03  0.38620576360E+03  0.99051717786E+02 0.  0.
         11    1    3    3    0    0 -0.14679965832E+02  0.15063827216E+03 -0.57721509144E+02  0.16198507047E+03  0.00000000000E+00 0. -1.
        -11    1    3    3    0    0  0.55510231310E+02  0.15603683913E+03 -0.15114905982E+03  0.22422069313E+03  0.00000000000E+00 0.  1.
         22    1    1    2    0    0 -0.40830265477E+02 -0.30667511129E+03 -0.14270046985E+04  0.14601572326E+04  0.00000000000E+00 0. -1.
<mgrwt>
<rscale>  0 0.85613575E+03</rscale>
<asrwt>0</asrwt>
<pdfrwt beam="1">  1        2 0.26786447E+00 0.85613575E+03</pdfrwt>
<pdfrwt beam="2">  1       -2 0.16191365E-01 0.85613575E+03</pdfrwt>
<totfact> 0.28916236E+02</totfact>
</mgrwt>
</event>
<event>
 6    1  0.2236204E-005  0.1789129E+04  0.7818608E-02  0.8712102E-01
         -1   -1    0    0    0  501 -0.00000000000E+00  0.00000000000E+00  0.30565758278E+03  0.30565758278E+03  0.00000000000E+00 0.  1.
          1   -1    0    0  501    0  0.00000000000E+00 -0.00000000000E+00 -0.26181105601E+04  0.26181105601E+04  0.00000000000E+00 0. -1.
         23    2    1    2    0    0 -0.42775024541E+02  0.74331796549E+03 -0.35594204775E+03  0.83037703798E+03  0.92086824815E+02 0.  0.
         13    1    3    3    0    0 -0.21021089340E+00  0.48270668268E+03 -0.19155624262E+03  0.51932608232E+03  0.00000000000E+00 0.  1.
        -13    1    3    3    0    0 -0.42564813647E+02  0.26061128281E+03 -0.16438580513E+03  0.31105095566E+03  0.00000000000E+00 0. -1.
         22    1    1    2    0    0  0.42775024541E+02 -0.74331796549E+03 -0.19565109295E+04  0.20933911049E+04  0.00000000000E+00 0. -1.
<mgrwt>
<rscale>  0 0.17891287E+04</rscale>
<asrwt>0</asrwt>
<pdfrwt beam="1">  1        1 0.40278625E+00 0.17891287E+04</pdfrwt>
<pdfrwt beam="2">  1       -1 0.47024243E-01 0.17891287E+04</pdfrwt>
<totfact> 0.47797613E+00</totfact>
</mgrwt>
</event>
<event>
 6    1  0.2236204E-005  0.2637543E+04  0.7818608E-02  0.8355560E-01
          2   -1    0    0  501    0  0.00000000000E+00  0.00000000000E+00  0.13829657808E+04  0.13829657808E+04  0.00000000000E+00 0. -1.
         -2   -1    0    0    0  501 -0.00000000000E+00 -0.00000000000E+00 -0.12575565511E+04  0.12575565511E+04  0.00000000000E+00 0.  1.
         23    2    1    2    0    0  0.76090769163E+03  0.91377173448E+03  0.63012029491E+03  0.13487434975E+04  0.89989655118E+02 0.  0.
         11    1    3    3    0    0  0.65612273505E+02  0.12368435628E+03  0.70930649487E+02  0.15695205465E+03  0.00000000000E+00 0.  1.
        -11    1    3    3    0    0  0.69529541813E+03  0.79008737820E+03  0.55918964542E+03  0.11917914428E+04  0.00000000000E+00 0. -1.
         22    1    1    2    0    0 -0.76090769163E+03 -0.91377173448E+03 -0.50471106519E+03  0.12917788345E+04  0.00000000000E+00 0. -1.
<mgrwt>
<rscale>  0 0.26375426E+04</rscale>
<asrwt>0</asrwt>
<pdfrwt beam="1">  1        2 0.21276397E+00 0.26375426E+04</pdfrwt>
<pdfrwt beam="2">  1       -2 0.19347024E+00 0.26375426E+04</pdfrwt>
<totfact> 0.19177085E+00</totfact>
</mgrwt>
</event>
<event>
 6    1  0.2236204E-005  0.1419850E+04  0.7818608E-02  0.8939574E-01
          1   -1    0    0  501    0  0.00000000000E+00  0.00000000000E+00  0.74026122284E+03  0.74026122284E+03  0.00000000000E+00 0. -1.
         -1   -1    0    0    0  501 -0.00000000000E+00 -0.00000000000E+00 -0.68083160961E+03  0.68083160961E+03  0.00000000000E+00 0.  1.
         23    2    1    2    0    0  0.42119081394E+03 -0.43171143792E+03 -0.33867843848E+03  0.69841275924E+03  0.96440811912E+02 0.  0.
         13    1    3    3    0    0  0.28112166549E+03 -0.34364150194E+03 -0.22562820911E+03  0.49802305309E+03  0.00000000000E+00 0. -1.
        -13    1    3    3    0    0  0.14006914845E+03 -0.88069935980E+02 -0.11305022937E+03  0.20038970615E+03  0.00000000000E+00 0.  1.
         22    1    1    2    0    0 -0.42119081394E+03  0.43171143792E+03  0.39810805171E+03  0.72268007321E+03  0.00000000000E+00 0. -1.
<mgrwt>
<rscale>  0 0.14198496E+04</rscale>
<asrwt>0</asrwt>
<pdfrwt beam="1">  1        1 0.11388634E+00 0.14198496E+04</pdfrwt>
<pdfrwt beam="2">  1       -1 0.10474332E+00 0.14198496E+04</pdfrwt>
<totfact> 0.20845797E+01</totfact>
</mgrwt>
</event>
<event>
 6    1  0.2236204E-005  0.1176171E+04  0.7818608E-02  0.9133973E-01
          2   -1    0    0  501    0  0.00000000000E+00  0.00000000000E+00  0.14965394301E+04  0.14965394301E+04  0.00000000000E+00 0. -1.
         -2   -1    0    0    0  501 -0.00000000000E+00 -0.00000000000E+00 -0.23109631022E+03  0.23109631022E+03  0.00000000000E+00 0.  1.
         23    2    1    2    0    0 -0.18789555967E+03  0.50259656894E+03  0.29600946573E+03  0.61961513480E+03  0.91614731436E+02 0.  0.
         11    1    3    3    0    0 -0.16426729182E+03  0.45904158819E+03  0.29540766037E+03  0.57006017985E+03  0.00000000000E+00 0. -1.
        -11    1    3    3    0    0 -0.23628267858E+02  0.43554980749E+02  0.60180535910E+00  0.49554954947E+02  0.00000000000E+00 0.  1.
         22    1    1    2    0    0  0.18789555967E+03 -0.50259656894E+03  0.96943365419E+03  0.11080206056E+04  0.00000000000E+00 0. -1.
<mgrwt>
<rscale>  0 0.11761713E+04</rscale>
<asrwt>0</asrwt>
<pdfrwt beam="1">  1        2 0.23023683E+00 0.11761713E+04</pdfrwt>
<pdfrwt beam="2">  1       -2 0.35553279E-01 0.11761713E+04</pdfrwt>
<totfact> 0.93616862E+01</totfact>
</mgrwt>
</event>
<event>
 6    1  0.2236204E-005  0.1652702E+04  0.7818608E-02  0.8788810E-01
         -2   -1    0    0    0  501 -0.00000000000E+00  0.00000000000E+00  0.16374205242E+04  0.16374205242E+04  0.00000000000E+00 0.  1.
          2   -1    0    0  501    0  0.00000000000E+00 -0.00000000000E+00 -0.41703159921E+03  0.41703159921E+03  0.00000000000E+00 0. -1.
         23    2    1    2    0    0 -0.80866919578E+03  0.22529356824E+02  0.41915598856E+03  0.91584435138E+03  0.92874609487E+02 0.  0.
         13    1    3    3    0    0 -0.29128478635E+03  0.14492494635E+02  0.10216947123E+03  0.30902339719E+03  0.00000000000E+00 0.  1.
        -13    1    3    3    0    0 -0.51738440944E+03  0.80368621893E+01  0.31698651733E+03  0.60682095420E+03  0.00000000000E+00 0. -1.
         22    1    1    2    0    0  0.80866919578E+03 -0.22529356824E+02  0.80123293644E+03  0.11386077720E+04  0.00000000000E+00 0.  1.
<mgrwt>
<rscale>  0 0.16527022E+04</rscale>
<asrwt>0</asrwt>
<pdfrwt beam="1">  1        2 0.64158708E-01 0.16527022E+04</pdfrwt>
<pdfrwt beam="2">  1       -2 0.25191085E+00 0.16527022E+04</pdfrwt>
<totfact> 0.45320102E+00</totfact>
</mgrwt>
</event>
<event>
 6    1  0.2236204E-005  0.4979816E+04  0.7818608E-02  0.7831628E-01
          1   -1    0    0  501    0  0.00000000000E+00  0.00000000000E+00  0.33650311344E+04  0.33650311344E+04  0.00000000000E+00 0. -1.
         -1   -1    0    0    0  501 -0.00000000000E+00 -0.00000000000E+00 -0.18423731625E+04  0.18423731625E+04  0.00000000000E+00 0.  1.
         23    2    1    2    0    0 -0.57509253987E+03 -0.15103453849E+04 -0.12179561191E+04  0.20257631784E+04  0.91786359534E+02 0.  0.
         11    1    3    3    0    0 -0.41748720949E+03 -0.11434340596E+04 -0.96120426759E+03  0.15510160098E+04  0.00000000000E+00 0. -1.
        -11    1    3    3    0    0 -0.15760533038E+03 -0.36691132539E+03 -0.25675185149E+03  0.47474716861E+03  0.00000000000E+00 0.  1.
         22    1    1    2    0    0  0.57509253987E+03  0.15103453849E+04  0.27406140910E+04  0.31816411185E+04  0.00000000000E+00 0. -1.
<mgrwt>
<rscale>  0 0.49798165E+04</rscale>
<asrwt>0</asrwt>
<pdfrwt beam="1">  1        1 0.51769710E+00 0.49798165E+04</pdfrwt>
<pdfrwt beam="2">  1       -1 0.28344203E+00 0.49798165E+04</pdfrwt>
<totfact> 0.97274919E-03</totfact>
</mgrwt>
</event>
<event>
 6    1  0.2236204E-005  0.2515639E+04  0.7818608E-02  0.8397435E-01
         -2   -1    0    0    0  501 -0.00000000000E+00  0.00000000000E+00  0.30402560038E+04  0.30402560038E+04  0.00000000000E+00 0.  1.
          2   -1    0    0  501    0  0.00000000000E+00 -0.00000000000E+00 -0.52038722625E+03  0.52038722625E+03  0.00000000000E+00 0. -1.
         23    2    1    2    0    0 -0.11355534072E+04  0.32447404930E+03  0.65712115654E+03  0.13550608469E+04  0.98064953389E+02 0.  0.
         11    1    3    3    0    0 -0.48936214141E+03  0.16737226570E+03  0.33433952778E+03  0.61585038816E+03  0.00000000000E+00 0. -1.
        -11    1    3    3    0    0 -0.64619126580E+03  0.15710178361E+03  0.32278162876E+03  0.73921045872E+03  0.00000000000E+00 0.  1.
         22    1    1    2    0    0  0.11355534072E+04 -0.32447404930E+03  0.18627476210E+04  0.22055823831E+04  0.00000000000E+00 0.  1.
<mgrwt>
<rscale>  0 0.25156394E+04</rscale>
<asrwt>0</asrwt>
<pdfrwt beam="1">  1        2 0.80059575E-01 0.25156394E+04</pdfrwt>
<pdfrwt beam="2">  1       -2 0.46773168E+00 0.25156394E+04</pdfrwt>
<totfact> 0.13863866E-01</totfact>
</mgrwt>
</event>
<event>
 6    1  0.2236204E-005  0.3526522E+04  0.7818608E-02  0.8107533E-01
          2   -1    0    0  501    0  0.00000000000E+00  0.00000000000E+00  0.11699777104E+04  0.11699777104E+04  0.00000000000E+00 0. -1.
         -2   -1    0    0    0  501 -0.00000000000E+00 -0.00000000000E+00 -0.26573926691E+04  0.26573926691E+04  0.00000000000E+00 0.  1.
         23    2    1    2    0    0  0.16196159967E+04  0.67705597558E+03 -0.57731491705E+03  0.18500381219E+04  0.88248331675E+02 0.  0.
         13    1    3    3    0    0  0.14188986986E+04  0.56916081892E+03 -0.52294727673E+03  0.16157634137E+04  0.00000000000E+00 0.  1.
        -13    1    3    3    0    0  0.20071729814E+03  0.10789515666E+03 -0.54367640315E+02  0.23427470823E+03  0.00000000000E+00 0. -1.
         22    1    1    2    0    0 -0.16196159967E+04 -0.67705597558E+03 -0.91010004170E+03  0.19773322576E+04  0.00000000000E+00 0. -1.
<mgrwt>
<rscale>  0 0.35265225E+04</rscale>
<asrwt>0</asrwt>
<pdfrwt beam="1">  1        2 0.17999657E+00 0.35265225E+04</pdfrwt>
<pdfrwt beam="2">  1       -2 0.40882964E+00 0.35265225E+04</pdfrwt>
<totfact> 0.10506796E-01</totfact>
</mgrwt>
</event>
<event>
 6    1  0.2236204E-005  0.3781513E+04  0.7818608E-02  0.8050134E-01
         -2   -1    0    0    0  501 -0.00000000000E+00  0.00000000000E+00  0.11625895867E+04  0.11625895867E+04  0.00000000000E+00 0.  1.
          2   -1    0    0  501    0  0.00000000000E+00 -0.00000000000E+00 -0.30749968696E+04  0.30749968696E+04  0.00000000000E+00 0. -1.
         23    2    1    2    0    0  0.14226843968E+03 -0.17656415065E+04 -0.16941778023E+04  0.24528303540E+04  0.91695590418E+02 0.  0.
         13    1    3    3    0    0 -0.90904035872E+01 -0.38584635709E+02 -0.46144103181E+02  0.60833278792E+02  0.00000000000E+00 0. -1.
        -13    1    3    3    0    0  0.15135884326E+03 -0.17270568708E+04 -0.16480336991E+04  0.23919970752E+04  0.00000000000E+00 0.  1.
         22    1    1    2    0    0 -0.14226843968E+03  0.17656415065E+04 -0.21822948055E+03  0.17847561023E+04  0.00000000000E+00 0.  1.
<mgrwt>
<rscale>  0 0.37815126E+04</rscale>
<asrwt>0</asrwt>
<pdfrwt beam="1">  1        2 0.47307644E+00 0.37815126E+04</pdfrwt>
<pdfrwt beam="2">  1       -2 0.17885994E+00 0.37815126E+04</pdfrwt>
<totfact> 0.23131219E-01</totfact>
</mgrwt>
</event>
<event>
 6    1  0.2236204E-005  0.1325425E+04  0.7818608E-02  0.9009643E-01
          2   -1    0    0  501    0  0.00000000000E+00  0.00000000000E+00  0.18711120953E+04  0.18711120953E+04  0.00000000000E+00 0. -1.
         -2   -1    0    0    0  501 -0.00000000000E+00 -0.00000000000E+00 -0.23472007572E+03  0.23472007572E+03  0.00000000000E+00 0.  1.
         23    2    1    2    0    0 -0.65683642743E+03  0.54340846499E+02  0.76004048780E+03  0.10093017212E+04  0.81494793864E+02 0.  0.
         11    1    3    3    0    0 -0.33889605787E+03 -0.11161121187E+02  0.37073193058E+03  0.50241145788E+03  0.00000000000E+00 0. -1.
        -11    1    3    3    0    0 -0.31794036956E+03  0.65501967687E+02  0.38930855722E+03  0.50689026337E+03  0.00000000000E+00 0.  1.
         22    1    1    2    0    0  0.65683642743E+03 -0.54340846499E+02  0.87635153175E+03  0.10965304497E+04  0.00000000000E+00 0.  1.
<mgrwt>
<rscale>  0 0.13254246E+04</rscale>
<asrwt>0</asrwt>
<pdfrwt beam="1">  1        2 0.28786339E+00 0.13254246E+04</pdfrwt>
<pdfrwt beam="2">  1       -2 0.36110782E-01 0.13254246E+04</pdfrwt>
<totfact> 0.55636183E+01</totfact>
</mgrwt>
</event>
<event>
 6    1  0.2831792E-005  0.3541291E+04  0.7818608E-02  0.8104074E-01
         -2   -1    0    0    0  501 -0.00000000000E+00  0.00000000000E+00  0.13918622562E+04  0.13918622562E+04  0.00000000000E+00 0.  1.
          2   -1    0    0  501    0  0.00000000000E+00 -0.00000000000E+00 -0.22525117692E+04  0.22525117692E+04  0.00000000000E+00 0. -1.
         23    2    1    2    0    0 -0.12564292853E+04 -0.11999513761E+04 -0.85442946102E+02  0.17418906285E+04  0.91567520620E+02 0.  0.
         13    1    3    3    0    0 -0.64042446820E+03 -0.54871444571E+03 -0.46283064610E+02  0.84461421043E+03  0.00000000000E+00 0. -1.
        -13    1    3    3    0    0 -0.61600481714E+03 -0.65123693034E+03 -0.39159881492E+02  0.89727641811E+03  0.00000000000E+00 0.  1.
         22    1    1    2    0    0  0.12564292853E+04  0.11999513761E+04 -0.77520656691E+03  0.19024833969E+04  0.00000000000E+00 0. -1.
<mgrwt>
<rscale>  0 0.35412914E+04</rscale>
<asrwt>0</asrwt>
<pdfrwt beam="1">  1        2 0.34654027E+00 0.35412914E+04</pdfrwt>
<pdfrwt beam="2">  1       -2 0.21413265E+00 0.35412914E+04</pdfrwt>
<totfact> 0.42550329E-01</totfact>
</mgrwt>
</event>
<event>
 6    1  0.2236204E-005  0.4689858E+03  0.7818608E-02  0.1022207E+00
         -2   -1    0    0    0  501 -0.00000000000E+00  0.00000000000E+00  0.22442492136E+03  0.22442492136E+03  0.00000000000E+00 0.  1.
          2   -1    0    0  501    0  0.00000000000E+00 -0.00000000000E+00 -0.24501256453E+03  0.24501256453E+03  0.00000000000E+00 0. -1.
         23    2    1    2    0    0  0.12912431654E+02 -0.63988784245E+02 -0.21869218231E+03  0.26085487918E+03  0.12632379818E+03 0.  0.
         11    1    3    3    0    0 -0.21654898443E+02 -0.41207602545E+01 -0.18056787769E+03  0.18190842131E+03  0.00000000000E+00 0. -1.
        -11    1    3    3    0    0  0.34567330097E+02 -0.59868023990E+02 -0.38124304619E+02  0.78946457864E+02  0.00000000000E+00 0.  1.
         22    1    1    2    0    0 -0.12912431654E+02  0.63988784245E+02  0.19810453914E+03  0.20858260672E+03  0.00000000000E+00 0.  1.
<mgrwt>
<rscale>  0 0.46898582E+03</rscale>
<asrwt>0</asrwt>
<pdfrwt beam="1">  1        2 0.37694241E-01 0.46898582E+03</pdfrwt>
<pdfrwt beam="2">  1       -2 0.34526911E-01 0.46898582E+03</pdfrwt>
<totfact> 0.10820124E+03</totfact>
</mgrwt>
</event>
<event>
 6    1  0.2236204E-005  0.2101634E+04  0.7818608E-02  0.8560524E-01
         -2   -1    0    0    0  501 -0.00000000000E+00  0.00000000000E+00  0.11827413702E+04  0.11827413702E+04  0.00000000000E+00 0.  1.
          2   -1    0    0  501    0  0.00000000000E+00 -0.00000000000E+00 -0.93360758113E+03  0.93360758113E+03  0.00000000000E+00 0. -1.
         23    2    1    2    0    0  0.23512192378E+03  0.93824897480E+03  0.53327600214E+03  0.11082168890E+04  0.90376550690E+02 0.  0.
         11    1    3    3    0    0  0.59971179642E+02  0.33358611630E+03  0.14546933587E+03  0.36883270877E+03  0.00000000000E+00 0. -1.
        -11    1    3    3    0    0  0.17515074414E+03  0.60466285850E+03  0.38780666627E+03  0.73938418027E+03  0.00000000000E+00 0.  1.
         22    1    1    2    0    0 -0.23512192378E+03 -0.93824897480E+03 -0.28414221308E+03  0.10081320623E+04  0.00000000000E+00 0. -1.
<mgrwt>
<rscale>  0 0.21016339E+04</rscale>
<asrwt>0</asrwt>
<pdfrwt beam="1">  1        2 0.14363194E+00 0.21016339E+04</pdfrwt>
<pdfrwt beam="2">  1       -2 0.18196021E+00 0.21016339E+04</pdfrwt>
<totfact> 0.45071532E+00</totfact>
</mgrwt>
</event>
<event>
 6    1  0.2236204E-005  0.3503853E+04  0.7818608E-02  0.8112877E-01
          2   -1    0    0  501    0  0.00000000000E+00  0.00000000000E+00  0.11466305647E+04  0.11466305647E+04  0.00000000000E+00 0. -1.
         -2   -1    0    0    0  501 -0.00000000000E+00 -0.00000000000E+00 -0.26767527730E+04  0.26767527730E+04  0.00000000000E+00 0.  1.
         23    2    1    2    0    0  0.47746649447E+03 -0.13032592290E+04  0.39879100742E+03  0.14470068808E+04  0.91300461141E+02 0.  0.
         11    1    3    3    0    0  0.28829859632E+03 -0.80673192213E+03  0.29156144368E+03  0.90495334148E+03  0.00000000000E+00 0. -1.
        -11    1    3    3    0    0  0.18916789815E+03 -0.49652730684E+03  0.10722956374E+03  0.54205353930E+03  0.00000000000E+00 0.  1.
         22    1    1    2    0    0 -0.47746649447E+03  0.13032592290E+04 -0.19289132157E+04  0.23763764569E+04  0.00000000000E+00 0.  1.
<mgrwt>
<rscale>  0 0.35038530E+04</rscale>
<asrwt>0</asrwt>
<pdfrwt beam="1">  1        2 0.17640471E+00 0.35038530E+04</pdfrwt>
<pdfrwt beam="2">  1       -2 0.41180811E+00 0.35038530E+04</pdfrwt>
<totfact> 0.10394871E-01</totfact>
</mgrwt>
</event>
<event>
 6    1  0.2236204E-005  0.2349778E+04  0.7818608E-02  0.8458549E-01
          2   -1    0    0  501    0  0.00000000000E+00  0.00000000000E+00  0.31934907164E+04  0.31934907164E+04  0.00000000000E+00 0. -1.
         -2   -1    0    0    0  501 -0.00000000000E+00 -0.00000000000E+00 -0.43224311521E+03  0.43224311521E+03  0.00000000000E+00 0.  1.
         23    2    1    2    0    0 -0.35520677601E+03  0.55790706271E+03  0.28777341264E+04  0.29541675617E+04  0.91214779549E+02 0.  0.
         11    1    3    3    0    0 -0.28591775005E+03  0.48159923103E+03  0.22923661419E+04  0.23597943359E+04  0.00000000000E+00 0. -1.
        -11    1    3    3    0    0 -0.69289025959E+02  0.76307831683E+02  0.58536798450E+03  0.59437322582E+03  0.00000000000E+00 0.  1.
         22    1    1    2    0    0  0.35520677601E+03 -0.55790706271E+03 -0.11648652520E+03  0.67156626992E+03  0.00000000000E+00 0.  1.
<mgrwt>
<rscale>  0 0.23497782E+04</rscale>
<asrwt>0</asrwt>
<pdfrwt beam="1">  1        2 0.49130625E+00 0.23497782E+04</pdfrwt>
<pdfrwt beam="2">  1       -2 0.66498943E-01 0.23497782E+04</pdfrwt>
<totfact> 0.24603002E+00</totfact>
</mgrwt>
</event>
<event>
 6    1  0.2236204E-005  0.1141781E+04  0.7818608E-02  0.9165399E-01
          2   -1    0    0  501    0  0.00000000000E+00  0.00000000000E+00  0.61408297880E+03  0.61408297880E+03  0.00000000000E+00 0. -1.
         -2   -1    0    0    0  501 -0.00000000000E+00 -0.00000000000E+00 -0.53073646477E+03  0.53073646477E+03  0.00000000000E+00 0.  1.
         23    2    1    2    0    0 -0.31272847267E+03  0.71644497425E+02  0.51103470765E+03  0.61017075276E+03  0.90663352423E+02 0.  0.
         13    1    3    3    0    0 -0.24701028806E+03  0.93369931016E+02  0.41116676755E+03  0.48866157733E+03  0.00000000000E+00 0.  1.
        -13    1    3    3    0    0 -0.65718184602E+02 -0.21725433592E+02  0.99867940103E+02  0.12150917543E+03  0.00000000000E+00 0. -1.
         22    1    1    2    0    0  0.31272847267E+03 -0.71644497425E+02 -0.42768819361E+03  0.53464869081E+03  0.00000000000E+00 0.  1.
<mgrwt>
<rscale>  0 0.11417815E+04</rscale>
<asrwt>0</asrwt>
<pdfrwt beam="1">  1        2 0.94474305E-01 0.11417815E+04</pdfrwt>
<pdfrwt beam="2">  1       -2 0.81651764E-01 0.11417815E+04</pdfrwt>
<totfact> 0.63069503E+01</totfact>
</mgrwt>
</event>
<event>
 6    1  0.2236204E-005  0.4075895E+04  0.7818608E-02  0.7989409E-01
          1   -1    0    0  501    0  0.00000000000E+00  0.00000000000E+00  0.35312966856E+04  0.35312966856E+04  0.00000000000E+00 0. -1.
         -1   -1    0    0    0  501 -0.00000000000E+00 -0.00000000000E+00 -0.11761202580E+04  0.11761202580E+04  0.00000000000E+00 0.  1.
         23    2    1    2    0    0 -0.14905817241E+04  0.28961621036E+03 -0.39004315293E+03  0.15702299917E+04  0.88188096010E+02 0.  0.
         13    1    3    3    0    0 -0.95919254449E+03  0.15112243203E+03 -0.22385473512E+03  0.99649348684E+03  0.00000000000E+00 0. -1.
        -13    1    3    3    0    0 -0.53138917957E+03  0.13849377833E+03 -0.16618841780E+03  0.57373650486E+03  0.00000000000E+00 0.  1.
         22    1    1    2    0    0  0.14905817241E+04 -0.28961621036E+03  0.27452195806E+04  0.31371869519E+04  0.00000000000E+00 0. -1.
<mgrwt>
<rscale>  0 0.40758948E+04</rscale>
<asrwt>0</asrwt>
<pdfrwt beam="1">  1        1 0.54327641E+00 0.40758948E+04</pdfrwt>
<pdfrwt beam="2">  1       -1 0.18094158E+00 0.40758948E+04</pdfrwt>
<totfact> 0.37556584E-02</totfact>
</mgrwt>
</event>
<event>
 6    1  0.2236204E-005  0.2017343E+04  0.7818608E-02  0.8598555E-01
         -2   -1    0    0    0  501 -0.00000000000E+00  0.00000000000E+00  0.16693737690E+04  0.16693737690E+04  0.00000000000E+00 0.  1.
          2   -1    0    0  501    0  0.00000000000E+00 -0.00000000000E+00 -0.60946078832E+03  0.60946078832E+03  0.00000000000E+00 0. -1.
         23    2    1    2    0    0 -0.22086465075E+03  0.95976537150E+03  0.29597694262E+03  0.10324281098E+04  0.91513326846E+02 0.  0.
         11    1    3    3    0    0 -0.20806630478E+03  0.73577432932E+03  0.22238961359E+03  0.79631186799E+03  0.00000000000E+00 0. -1.
        -11    1    3    3    0    0 -0.12798345977E+02  0.22399104218E+03  0.73587329039E+02  0.23611624178E+03  0.00000000000E+00 0.  1.
         22    1    1    2    0    0  0.22086465075E+03 -0.95976537150E+03  0.76393603806E+03  0.12464064476E+04  0.00000000000E+00 0.  1.
<mgrwt>
<rscale>  0 0.20173427E+04</rscale>
<asrwt>0</asrwt>
<pdfrwt beam="1">  1        2 0.93763199E-01 0.20173427E+04</pdfrwt>
<pdfrwt beam="2">  1       -2 0.25682673E+00 0.20173427E+04</pdfrwt>
<totfact> 0.26340195E+00</totfact>
</mgrwt>
</event>
<event>
 6    1  0.2236204E-005  0.3166393E+04  0.7818608E-02  0.8197749E-01
         -2   -1    0    0    0  501 -0.00000000000E+00  0.00000000000E+00  0.53638638046E+03  0.53638638046E+03  0.00000000000E+00 0.  1.
          2   -1    0    0  501    0  0.00000000000E+00 -0.00000000000E+00 -0.46729594227E+04  0.46729594227E+04  0.00000000000E+00 0. -1.
         23    2    1    2    0    0  0.49718777440E+02  0.98686876926E+03 -0.37711637598E+02  0.99306228102E+03  0.91480062324E+02 0.  0.
         11    1    3    3    0    0  0.72217536810E+02  0.85112432859E+03 -0.20854261648E+02  0.85443718059E+03  0.00000000000E+00 0.  1.
        -11    1    3    3    0    0 -0.22498759370E+02  0.13574444067E+03 -0.16857375950E+02  0.13862510043E+03  0.00000000000E+00 0. -1.
         22    1    1    2    0    0 -0.49718777440E+02 -0.98686876926E+03 -0.40988614046E+04  0.42162835221E+04  0.00000000000E+00 0. -1.
<mgrwt>
<rscale>  0 0.31663934E+04</rscale>
<asrwt>0</asrwt>
<pdfrwt beam="1">  1        2 0.71891685E+00 0.31663934E+04</pdfrwt>
<pdfrwt beam="2">  1       -2 0.82520980E-01 0.31663934E+04</pdfrwt>
<totfact> 0.89007886E-02</totfact>
</mgrwt>
</event>
<event>
 6    1  0.2236204E-005  0.4031127E+04  0.7818608E-02  0.7998297E-01
         -1   -1    0    0    0  501 -0.00000000000E+00  0.00000000000E+00  0.27954988512E+04  0.27954988512E+04  0.00000000000E+00 0.  1.
          1   -1    0    0  501    0  0.00000000000E+00 -0.00000000000E+00 -0.14532274140E+04  0.14532274140E+04  0.00000000000E+00 0. -1.
         23    2    1    2    0    0  0.10025773165E+04  0.16354007205E+04  0.23232902555E+02  0.19207315384E+04  0.94726356926E+02 0.  0.
         11    1    3    3    0    0  0.32054257066E+03  0.46127705890E+03 -0.21852415264E+02  0.56214018957E+03  0.00000000000E+00 0.  1.
        -11    1    3    3    0    0  0.68203474584E+03  0.11741236616E+04  0.45085317819E+02  0.13585913488E+04  0.00000000000E+00 0. -1.
         22    1    1    2    0    0 -0.10025773165E+04 -0.16354007205E+04  0.13190385347E+04  0.23279947268E+04  0.00000000000E+00 0.  1.
<mgrwt>
<rscale>  0 0.40311267E+04</rscale>
<asrwt>0</asrwt>
<pdfrwt beam="1">  1        1 0.22357345E+00 0.40311267E+04</pdfrwt>
<pdfrwt beam="2">  1       -1 0.43007675E+00 0.40311267E+04</pdfrwt>
<totfact> 0.24440986E-02</totfact>
</mgrwt>
</event>
<event>
 6    1  0.2236204E-005  0.3028869E+04  0.7818608E-02  0.8235535E-01
          2   -1    0    0  501    0  0.00000000000E+00  0.00000000000E+00  0.36808971087E+04  0.36808971087E+04  0.00000000000E+00 0. -1.
         -2   -1    0    0    0  501 -0.00000000000E+00 -0.00000000000E+00 -0.62308492683E+03  0.62308492683E+03  0.00000000000E+00 0.  1.
         23    2    1    2    0    0 -0.38517618639E+03 -0.14613213669E+04  0.14116765938E+04  0.20693493574E+04  0.74532715735E+02 0.  0.
         13    1    3    3    0    0 -0.23485759409E+03 -0.10064695760E+04  0.98948150573E+03  0.14308084243E+04  0.00000000000E+00 0.  1.
        -13    1    3    3    0    0 -0.15031859231E+03 -0.45485179087E+03  0.42219508804E+03  0.63854093308E+03  0.00000000000E+00 0. -1.
         22    1    1    2    0    0  0.38517618639E+03  0.14613213669E+04  0.16461355882E+04  0.22346326782E+04  0.00000000000E+00 0.  1.
<mgrwt>
<rscale>  0 0.30288688E+04</rscale>
<asrwt>0</asrwt>
<pdfrwt beam="1">  1        2 0.56629185E+00 0.30288688E+04</pdfrwt>
<pdfrwt beam="2">  1       -2 0.95859221E-01 0.30288688E+04</pdfrwt>
<totfact> 0.46947216E-01</totfact>
</mgrwt>
</event>
<event>
 6    1  0.2236204E-005  0.8710245E+03  0.7818608E-02  0.9462545E-01
         -2   -1    0    0    0  501 -0.00000000000E+00  0.00000000000E+00  0.89463132671E+02  0.89463132671E+02  0.00000000000E+00 0. -1.
          2   -1    0    0  501    0  0.00000000000E+00 -0.00000000000E+00 -0.21201014946E+04  0.21201014946E+04  0.00000000000E+00 0.  1.
         23    2    1    2    0    0  0.41564405325E+03  0.88015252101E+01 -0.13122593678E+04  0.13795611182E+04  0.91251217223E+02 0.  0.
         11    1    3    3    0    0  0.33439246333E+03  0.93942188644E+01 -0.91890656516E+03  0.97790380221E+03  0.00000000000E+00 0. -1.
        -11    1    3    3    0    0  0.81251589918E+02 -0.59269365428E+00 -0.39335280267E+03  0.40165731603E+03  0.00000000000E+00 0.  1.
         22    1    1    2    0    0 -0.41564405325E+03 -0.88015252101E+01 -0.71837899407E+03  0.83000350901E+03  0.00000000000E+00 0. -1.
<mgrwt>
<rscale>  0 0.87102450E+03</rscale>
<asrwt>0</asrwt>
<pdfrwt beam="1">  1        2 0.32616946E+00 0.87102450E+03</pdfrwt>
<pdfrwt beam="2">  1       -2 0.13763559E-01 0.87102450E+03</pdfrwt>
<totfact> 0.23575089E+02</totfact>
</mgrwt>
</event>
<event>
 6    1  0.2236204E-005  0.2582807E+04  0.7818608E-02  0.8374065E-01
         -1   -1    0    0    0  501 -0.00000000000E+00  0.00000000000E+00  0.65446102146E+03  0.65446102146E+03  0.00000000000E+00 0. -1.
          1   -1    0    0  501    0  0.00000000000E+00 -0.00000000000E+00 -0.25482393832E+04  0.25482393832E+04  0.00000000000E+00 0.  1.
         23    2    1    2    0    0  0.11253357156E+04  0.53363532741E+03 -0.53224628144E+03  0.13574587562E+04  0.90890237740E+02 0.  0.
         11    1    3    3    0    0  0.63559943789E+03  0.25597126323E+03 -0.27152480602E+03  0.73704386120E+03  0.00000000000E+00 0.  1.
        -11    1    3    3    0    0  0.48973627770E+03  0.27766406418E+03 -0.26072147542E+03  0.62041489504E+03  0.00000000000E+00 0. -1.
         22    1    1    2    0    0 -0.11253357156E+04 -0.53363532741E+03 -0.13615320803E+04  0.18452416485E+04  0.00000000000E+00 0.  1.
<mgrwt>
<rscale>  0 0.25828073E+04</rscale>
<asrwt>0</asrwt>
<pdfrwt beam="1">  1        1 0.39203682E+00 0.25828073E+04</pdfrwt>
<pdfrwt beam="2">  1       -1 0.10068631E+00 0.25828073E+04</pdfrwt>
<totfact> 0.10374191E+00</totfact>
</mgrwt>
</event>
<event>
 6    1  0.2236204E-005  0.3037354E+04  0.7818608E-02  0.8233144E-01
          2   -1    0    0  501    0  0.00000000000E+00  0.00000000000E+00  0.23743653201E+04  0.23743653201E+04  0.00000000000E+00 0. -1.
         -2   -1    0    0    0  501 -0.00000000000E+00 -0.00000000000E+00 -0.97136658947E+03  0.97136658947E+03  0.00000000000E+00 0.  1.
         23    2    1    2    0    0 -0.97000686475E+03  0.10728076761E+04  0.19699873136E+03  0.14625788022E+04  0.92187985807E+02 0.  0.
         11    1    3    3    0    0 -0.79761886566E+03  0.83392178195E+03  0.13857214009E+03  0.11622493843E+04  0.00000000000E+00 0. -1.
        -11    1    3    3    0    0 -0.17238799908E+03  0.23888589418E+03  0.58426591264E+02  0.30032941786E+03  0.00000000000E+00 0.  1.
         22    1    1    2    0    0  0.97000686475E+03 -0.10728076761E+04  0.12059999992E+04  0.18831531074E+04  0.00000000000E+00 0. -1.
<mgrwt>
<rscale>  0 0.30373535E+04</rscale>
<asrwt>0</asrwt>
<pdfrwt beam="1">  1        2 0.36528697E+00 0.30373535E+04</pdfrwt>
<pdfrwt beam="2">  1       -2 0.14944101E+00 0.30373535E+04</pdfrwt>
<totfact> 0.10617900E+00</totfact>
</mgrwt>
</event>
<event>
 6    1  0.2236204E-005  0.1762404E+04  0.7818608E-02  0.8726552E-01
         -2   -1    0    0    0  501 -0.00000000000E+00  0.00000000000E+00  0.34990154784E+03  0.34990154784E+03  0.00000000000E+00 0.  1.
          2   -1    0    0  501    0  0.00000000000E+00 -0.00000000000E+00 -0.22192449264E+04  0.22192449264E+04  0.00000000000E+00 0. -1.
         23    2    1    2    0    0  0.13808084559E+03 -0.37219428976E+03 -0.20801010083E+04  0.21196871460E+04  0.93050970714E+02 0.  0.
         11    1    3    3    0    0  0.13201421240E+03 -0.22836316057E+03 -0.13517551311E+04  0.13772506743E+04  0.00000000000E+00 0. -1.
        -11    1    3    3    0    0  0.60666331824E+01 -0.14383112919E+03 -0.72834587717E+03  0.74243647173E+03  0.00000000000E+00 0.  1.
         22    1    1    2    0    0 -0.13808084559E+03  0.37219428976E+03  0.21075762971E+03  0.44945932823E+03  0.00000000000E+00 0.  1.
<mgrwt>
<rscale>  0 0.17624043E+04</rscale>
<asrwt>0</asrwt>
<pdfrwt beam="1">  1        2 0.34142230E+00 0.17624043E+04</pdfrwt>
<pdfrwt beam="2">  1       -2 0.53831007E-01 0.17624043E+04</pdfrwt>
<totfact> 0.15509897E+01</totfact>
</mgrwt>
</event>
<event>
 6    1  0.2236204E-005  0.7953670E+03  0.7818608E-02  0.9566748E-01
         -2   -1    0    0    0  501 -0.00000000000E+00  0.00000000000E+00  0.17511026776E+03  0.17511026776E+03  0.00000000000E+00 0.  1.
          2   -1    0    0  501    0  0.00000000000E+00 -0.00000000000E+00 -0.90315756401E+03  0.90315756401E+03  0.00000000000E+00 0. -1.
         23    2    1    2    0    0 -0.28111698591E+02  0.26333459507E+03  0.24580175787E+02  0.28040600900E+03  0.88814234674E+02 0.  0.
         13    1    3    3    0    0 -0.13259026177E+02  0.35290990114E+02 -0.26699470299E+02  0.46196509312E+02  0.00000000000E+00 0. -1.
        -13    1    3    3    0    0 -0.14852672414E+02  0.22804360496E+03  0.51279646086E+02  0.23420949969E+03  0.00000000000E+00 0.  1.
         22    1    1    2    0    0  0.28111698591E+02 -0.26333459507E+03 -0.75262747204E+03  0.79786182277E+03  0.00000000000E+00 0. -1.
<mgrwt>
<rscale>  0 0.79536699E+03</rscale>
<asrwt>0</asrwt>
<pdfrwt beam="1">  1        2 0.13894732E+00 0.79536699E+03</pdfrwt>
<pdfrwt beam="2">  1       -2 0.26940041E-01 0.79536699E+03</pdfrwt>
<totfact> 0.36664692E+02</totfact>
</mgrwt>
</event>
<event>
 6    1  0.2236204E-005  0.2575962E+04  0.7818608E-02  0.8376413E-01
         -2   -1    0    0    0  501 -0.00000000000E+00  0.00000000000E+00  0.13588388725E+04  0.13588388725E+04  0.00000000000E+00 0.  1.
          2   -1    0    0  501    0  0.00000000000E+00 -0.00000000000E+00 -0.12208177703E+04  0.12208177703E+04  0.00000000000E+00 0. -1.
         23    2    1    2    0    0 -0.18580670207E+03 -0.48448996621E+03  0.12478927849E+04  0.13544751011E+04  0.90065193663E+02 0.  0.
         11    1    3    3    0    0 -0.29249974537E+02 -0.33271424064E+02  0.16679880987E+03  0.17258155071E+03  0.00000000000E+00 0.  1.
        -11    1    3    3    0    0 -0.15655672754E+03 -0.45121854215E+03  0.10810939750E+04  0.11818935504E+04  0.00000000000E+00 0. -1.
         22    1    1    2    0    0  0.18580670207E+03  0.48448996621E+03 -0.11098716827E+04  0.12251815416E+04  0.00000000000E+00 0. -1.
<mgrwt>
<rscale>  0 0.25759617E+04</rscale>
<asrwt>0</asrwt>
<pdfrwt beam="1">  1        2 0.18781812E+00 0.25759617E+04</pdfrwt>
<pdfrwt beam="2">  1       -2 0.20905213E+00 0.25759617E+04</pdfrwt>
<totfact> 0.18945306E+00</totfact>
</mgrwt>
</event>
<event>
 6    1  0.2236204E-005  0.7591131E+03  0.7818608E-02  0.9621161E-01
         -2   -1    0    0    0  501 -0.00000000000E+00  0.00000000000E+00  0.10802987612E+03  0.10802987612E+03  0.00000000000E+00 0.  1.
          2   -1    0    0  501    0  0.00000000000E+00 -0.00000000000E+00 -0.13335492766E+04  0.13335492766E+04  0.00000000000E+00 0. -1.
         23    2    1    2    0    0  0.31296608907E+03  0.50695639283E+02 -0.24591812830E+03  0.41194986350E+03  0.93322791765E+02 0.  0.
         11    1    3    3    0    0  0.10966734932E+03  0.54141258166E+02 -0.59126803510E+02  0.13584617122E+03  0.00000000000E+00 0. -1.
        -11    1    3    3    0    0  0.20329873975E+03 -0.34456188835E+01 -0.18679132479E+03  0.27610369228E+03  0.00000000000E+00 0.  1.
         22    1    1    2    0    0 -0.31296608907E+03 -0.50695639283E+02 -0.97960127215E+03  0.10296292892E+04  0.00000000000E+00 0. -1.
<mgrwt>
<rscale>  0 0.75911307E+03</rscale>
<asrwt>0</asrwt>
<pdfrwt beam="1">  1        2 0.20516143E+00 0.75911307E+03</pdfrwt>
<pdfrwt beam="2">  1       -2 0.16619980E-01 0.75911307E+03</pdfrwt>
<totfact> 0.46925380E+02</totfact>
</mgrwt>
</event>
<event>
 6    1  0.2236204E-005  0.2072118E+04  0.7818608E-02  0.8573626E-01
          1   -1    0    0  501    0  0.00000000000E+00  0.00000000000E+00  0.14154655804E+04  0.14154655804E+04  0.00000000000E+00 0. -1.
         -1   -1    0    0    0  501 -0.00000000000E+00 -0.00000000000E+00 -0.75835031526E+03  0.75835031526E+03  0.00000000000E+00 0.  1.
         23    2    1    2    0    0  0.84839912099E+03  0.57838801542E+03  0.45669783009E+03  0.11276414775E+04  0.93212814891E+02 0.  0.
         11    1    3    3    0    0  0.43612790978E+03  0.26141526697E+03  0.26509898996E+03  0.57343087637E+03  0.00000000000E+00 0. -1.
        -11    1    3    3    0    0  0.41227121121E+03  0.31697274845E+03  0.19159884013E+03  0.55421060112E+03  0.00000000000E+00 0.  1.
         22    1    1    2    0    0 -0.84839912099E+03 -0.57838801542E+03  0.20041743500E+03  0.10461744181E+04  0.00000000000E+00 0.  1.
<mgrwt>
<rscale>  0 0.20721185E+04</rscale>
<asrwt>0</asrwt>
<pdfrwt beam="1">  1        1 0.21776394E+00 0.20721185E+04</pdfrwt>
<pdfrwt beam="2">  1       -1 0.11666928E+00 0.20721185E+04</pdfrwt>
<totfact> 0.45798967E+00</totfact>
</mgrwt>
</event>
<event>
 6    1  0.2236204E-005  0.9297579E+03  0.7818608E-02  0.9389128E-01
         -2   -1    0    0    0  501 -0.00000000000E+00  0.00000000000E+00  0.72817987764E+02  0.72817987764E+02  0.00000000000E+00 0.  1.
          2   -1    0    0  501    0  0.00000000000E+00 -0.00000000000E+00 -0.29678443379E+04  0.29678443379E+04  0.00000000000E+00 0. -1.
         23    2    1    2    0    0 -0.42228021273E+03  0.17355317300E+03 -0.12639859523E+04  0.13469285622E+04  0.90082086425E+02 0.  0.
         13    1    3    3    0    0 -0.22841068673E+03  0.11168762637E+03 -0.82028684136E+03  0.85878755802E+03  0.00000000000E+00 0.  1.
        -13    1    3    3    0    0 -0.19386952601E+03  0.61865546634E+02 -0.44369911091E+03  0.48814100422E+03  0.00000000000E+00 0. -1.
         22    1    1    2    0    0  0.42228021273E+03 -0.17355317300E+03 -0.16310403979E+04  0.16937337635E+04  0.00000000000E+00 0.  1.
<mgrwt>
<rscale>  0 0.92975793E+03</rscale>
<asrwt>0</asrwt>
<pdfrwt beam="1">  1        2 0.45659135E+00 0.92975793E+03</pdfrwt>
<pdfrwt beam="2">  1       -2 0.11202770E-01 0.92975793E+03</pdfrwt>
<totfact> 0.10736292E+02</totfact>
</mgrwt>
</event>
<event>
 6    1  0.2236204E-005  0.2302080E+04  0.7818608E-02  0.8477102E-01
          2   -1    0    0  501    0  0.00000000000E+00  0.00000000000E+00  0.20861261834E+04  0.20861261834E+04  0.00000000000E+00 0. -1.
         -2   -1    0    0    0  501 -0.00000000000E+00 -0.00000000000E+00 -0.63509706188E+03  0.63509706188E+03  0.00000000000E+00 0.  1.
         23    2    1    2    0    0 -0.74347456659E+03 -0.59928833921E+03 -0.28814744783E+02  0.96001944863E+03  0.94372175744E+02 0.  0.
         13    1    3    3    0    0 -0.23957491458E+03 -0.14397954050E+03 -0.27762721306E+02  0.28088612723E+03  0.00000000000E+00 0. -1.
        -13    1    3    3    0    0 -0.50389965202E+03 -0.45530879871E+03 -0.10520234774E+01  0.67913332140E+03  0.00000000000E+00 0.  1.
         22    1    1    2    0    0  0.74347456659E+03  0.59928833921E+03  0.14798438663E+04  0.17612037966E+04  0.00000000000E+00 0. -1.
<mgrwt>
<rscale>  0 0.23020796E+04</rscale>
<asrwt>0</asrwt>
<pdfrwt beam="1">  1        2 0.32094249E+00 0.23020796E+04</pdfrwt>
<pdfrwt beam="2">  1       -2 0.97707241E-01 0.23020796E+04</pdfrwt>
<totfact> 0.47305466E+00</totfact>
</mgrwt>
</event>
<event>
 6    1  0.2236204E-005  0.2873139E+04  0.7818608E-02  0.8280914E-01
         -2   -1    0    0    0  501 -0.00000000000E+00  0.00000000000E+00  0.19634826745E+04  0.19634826745E+04  0.00000000000E+00 0. -1.
          2   -1    0    0  501    0  0.00000000000E+00 -0.00000000000E+00 -0.10510572018E+04  0.10510572018E+04  0.00000000000E+00 0.  1.
         23    2    1    2    0    0 -0.20018549467E+03 -0.60281221641E+03 -0.89343815786E+03  0.11002253116E+04  0.93846650756E+02 0.  0.
         13    1    3    3    0    0 -0.94628990031E+02 -0.33016303515E+03 -0.40557603835E+03  0.53146420239E+03  0.00000000000E+00 0.  1.
        -13    1    3    3    0    0 -0.10555650463E+03 -0.27264918125E+03 -0.48786211950E+03  0.56876110922E+03  0.00000000000E+00 0. -1.
         22    1    1    2    0    0  0.20018549467E+03  0.60281221641E+03  0.18058636306E+04  0.19143145648E+04  0.00000000000E+00 0. -1.
<mgrwt>
<rscale>  0 0.28731395E+04</rscale>
<asrwt>0</asrwt>
<pdfrwt beam="1">  1        2 0.16170111E+00 0.28731395E+04</pdfrwt>
<pdfrwt beam="2">  1       -2 0.30207426E+00 0.28731395E+04</pdfrwt>
<totfact> 0.62400307E-01</totfact>
</mgrwt>
</event>
<event>
 6    1  0.2236204E-005  0.1297341E+04  0.7818608E-02  0.9031676E-01
          2   -1    0    0  501    0  0.00000000000E+00  0.00000000000E+00  0.26432351290E+04  0.26432351290E+04  0.00000000000E+00 0. -1.
         -2   -1    0    0    0  501 -0.00000000000E+00 -0.00000000000E+00 -0.15918888956E+03  0.15918888956E+03  0.00000000000E+00 0.  1.
         23    2    1    2    0    0 -0.39966689995E+03 -0.53360220387E+02  0.15952141210E+03  0.44318757068E+03  0.91581645824E+02 0.  0.
         13    1    3    3    0    0 -0.20895810339E+03  0.79964588431E+01  0.11231542736E+03  0.23736509337E+03  0.00000000000E+00 0.  1.
        -13    1    3    3    0    0 -0.19070879657E+03 -0.61356679230E+02  0.47205984735E+02  0.20582247732E+03  0.00000000000E+00 0. -1.
         22    1    1    2    0    0  0.39966689995E+03  0.53360220387E+02  0.23245248273E+04  0.23592364479E+04  0.00000000000E+00 0. -1.
<mgrwt>
<rscale>  0 0.12973414E+04</rscale>
<asrwt>0</asrwt>
<pdfrwt beam="1">  1        2 0.40665153E+00 0.12973414E+04</pdfrwt>
<pdfrwt beam="2">  1       -2 0.24490600E-01 0.12973414E+04</pdfrwt>
<totfact> 0.42167354E+01</totfact>
</mgrwt>
</event>
<event>
 6    1  0.2236204E-005  0.1713607E+04  0.7818608E-02  0.8753642E-01
          2   -1    0    0  501    0  0.00000000000E+00  0.00000000000E+00  0.19990296843E+04  0.19990296843E+04  0.00000000000E+00 0. -1.
         -2   -1    0    0    0  501 -0.00000000000E+00 -0.00000000000E+00 -0.36723420941E+03  0.36723420941E+03  0.00000000000E+00 0.  1.
         23    2    1    2    0    0 -0.44678295829E+02 -0.68602900179E+03  0.11699477114E+03  0.70275762276E+03  0.86882440413E+02 0.  0.
         13    1    3    3    0    0 -0.29313689175E+02 -0.15922603471E+03  0.59981739895E+02  0.17265581839E+03  0.00000000000E+00 0. -1.
        -13    1    3    3    0    0 -0.15364606654E+02 -0.52680296708E+03  0.57013031247E+02  0.53010180437E+03  0.00000000000E+00 0.  1.
         22    1    1    2    0    0  0.44678295829E+02  0.68602900179E+03  0.15148007038E+04  0.16635062710E+04  0.00000000000E+00 0. -1.
<mgrwt>
<rscale>  0 0.17136068E+04</rscale>
<asrwt>0</asrwt>
<pdfrwt beam="1">  1        2 0.30754302E+00 0.17136068E+04</pdfrwt>
<pdfrwt beam="2">  1       -2 0.56497572E-01 0.17136068E+04</pdfrwt>
<totfact> 0.18692532E+01</totfact>
</mgrwt>
</event>
<event>
 6    1  0.2631047E-005  0.2601718E+04  0.7818608E-02  0.8367618E-01
          2   -1    0    0  501    0  0.00000000000E+00  0.00000000000E+00  0.12082942913E+04  0.12082942913E+04  0.00000000000E+00 0. -1.
         -2   -1    0    0    0  501 -0.00000000000E+00 -0.00000000000E+00 -0.14005149932E+04  0.14005149932E+04  0.00000000000E+00 0.  1.
         23    2    1    2    0    0 -0.59776832153E+03  0.11324001287E+04 -0.31673144355E+03  0.13222790896E+04  0.91903023613E+02 0.  0.
         13    1    3    3    0    0 -0.22636436556E+03  0.47289540692E+03 -0.17117001464E+03  0.55151615189E+03  0.00000000000E+00 0. -1.
        -13    1    3    3    0    0 -0.37140395597E+03  0.65950472175E+03 -0.14556142891E+03  0.77076293768E+03  0.00000000000E+00 0.  1.
         22    1    1    2    0    0  0.59776832153E+03 -0.11324001287E+04  0.12451074166E+03  0.12865301949E+04  0.00000000000E+00 0. -1.
<mgrwt>
<rscale>  0 0.26017181E+04</rscale>
<asrwt>0</asrwt>
<pdfrwt beam="1">  1        2 0.18589143E+00 0.26017181E+04</pdfrwt>
<pdfrwt beam="2">  1       -2 0.21546384E+00 0.26017181E+04</pdfrwt>
<totfact> 0.17493296E+00</totfact>
</mgrwt>
</event>
<event>
 6    1  0.2236204E-005  0.4345227E+04  0.7818608E-02  0.7938308E-01
         -2   -1    0    0    0  501 -0.00000000000E+00  0.00000000000E+00  0.38647820745E+04  0.38647820745E+04  0.00000000000E+00 0.  1.
          2   -1    0    0  501    0  0.00000000000E+00 -0.00000000000E+00 -0.12213496794E+04  0.12213496794E+04  0.00000000000E+00 0. -1.
         23    2    1    2    0    0 -0.21059543213E+04  0.37509009771E+03  0.88379704012E+03  0.23162846883E+04  0.91331068850E+02 0.  0.
         11    1    3    3    0    0 -0.12586169874E+04  0.26753686782E+03  0.51677120676E+03  0.13866308726E+04  0.00000000000E+00 0. -1.
        -11    1    3    3    0    0 -0.84733733391E+03  0.10755322989E+03  0.36702583336E+03  0.92965381571E+03  0.00000000000E+00 0.  1.
         22    1    1    2    0    0  0.21059543213E+04 -0.37509009771E+03  0.17596353550E+04  0.27698470657E+04  0.00000000000E+00 0. -1.
<mgrwt>
<rscale>  0 0.43452274E+04</rscale>
<asrwt>0</asrwt>
<pdfrwt beam="1">  1        2 0.18789995E+00 0.43452274E+04</pdfrwt>
<pdfrwt beam="2">  1       -2 0.59458185E+00 0.43452274E+04</pdfrwt>
<totfact> 0.75524772E-03</totfact>
</mgrwt>
</event>
<event>
 6    1  0.2236204E-005  0.1211106E+04  0.7818608E-02  0.9103191E-01
         -2   -1    0    0    0  501 -0.00000000000E+00  0.00000000000E+00  0.43382528291E+03  0.43382528291E+03  0.00000000000E+00 0.  1.
          2   -1    0    0  501    0  0.00000000000E+00 -0.00000000000E+00 -0.84525805391E+03  0.84525805391E+03  0.00000000000E+00 0. -1.
         23    2    1    2    0    0 -0.16591693536E+03 -0.73149543258E+02 -0.81327838649E+03  0.83822147206E+03  0.91182329232E+02 0.  0.
         13    1    3    3    0    0 -0.55589071448E+02 -0.36808303086E+02 -0.49381481765E+03  0.49829516371E+03  0.00000000000E+00 0. -1.
        -13    1    3    3    0    0 -0.11032786391E+03 -0.36341240173E+02 -0.31946356884E+03  0.33992630835E+03  0.00000000000E+00 0.  1.
         22    1    1    2    0    0  0.16591693536E+03  0.73149543258E+02  0.40184561549E+03  0.44086186477E+03  0.00000000000E+00 0.  1.
<mgrwt>
<rscale>  0 0.12111058E+04</rscale>
<asrwt>0</asrwt>
<pdfrwt beam="1">  1        2 0.13003970E+00 0.12111058E+04</pdfrwt>
<pdfrwt beam="2">  1       -2 0.66742352E-01 0.12111058E+04</pdfrwt>
<totfact> 0.65050062E+01</totfact>
</mgrwt>
</event>
<event>
 6    1  0.2236204E-005  0.1939814E+04  0.7818608E-02  0.8635288E-01
         -1   -1    0    0    0  501 -0.00000000000E+00  0.00000000000E+00  0.21189009103E+04  0.21189009103E+04  0.00000000000E+00 0.  1.
          1   -1    0    0  501    0  0.00000000000E+00 -0.00000000000E+00 -0.44396572767E+03  0.44396572767E+03  0.00000000000E+00 0. -1.
         23    2    1    2    0    0 -0.49463153676E+03 -0.16309169841E+03 -0.23801869853E+03  0.58027948714E+03  0.93872909275E+02 0.  0.
         13    1    3    3    0    0 -0.45629366521E+02 -0.85293885336E+01  0.52800757399E+01  0.46719040633E+02  0.00000000000E+00 0. -1.
        -13    1    3    3    0    0 -0.44900217024E+03 -0.15456230988E+03 -0.24329877427E+03  0.53356044650E+03  0.00000000000E+00 0.  1.
         22    1    1    2    0    0  0.49463153676E+03  0.16309169841E+03  0.19129538812E+04  0.19825871509E+04  0.00000000000E+00 0.  1.
<mgrwt>
<rscale>  0 0.19398138E+04</rscale>
<asrwt>0</asrwt>
<pdfrwt beam="1">  1        1 0.68302421E-01 0.19398138E+04</pdfrwt>
<pdfrwt beam="2">  1       -1 0.32598475E+00 0.19398138E+04</pdfrwt>
<totfact> 0.10890583E+00</totfact>
</mgrwt>
</event>
<event>
 6    1  0.2236204E-005  0.2415545E+04  0.7818608E-02  0.8433707E-01
          1   -1    0    0  501    0  0.00000000000E+00  0.00000000000E+00  0.79925657871E+03  0.79925657871E+03  0.00000000000E+00 0. -1.
         -1   -1    0    0    0  501 -0.00000000000E+00 -0.00000000000E+00 -0.18250887608E+04  0.18250887608E+04  0.00000000000E+00 0.  1.
         23    2    1    2    0    0 -0.27167508491E+03  0.21268604626E+03  0.74070909335E+03  0.82442567911E+03  0.10947617726E+03 0.  0.
         13    1    3    3    0    0 -0.24856137022E+01 -0.11397173350E+02  0.21319493276E+02  0.24302152773E+02  0.00000000000E+00 0. -1.
        -13    1    3    3    0    0 -0.26918947120E+03  0.22408321961E+03  0.71938960007E+03  0.80012352634E+03  0.00000000000E+00 0.  1.
         22    1    1    2    0    0  0.27167508491E+03 -0.21268604626E+03 -0.17665412755E+04  0.17999196604E+04  0.00000000000E+00 0.  1.
<mgrwt>
<rscale>  0 0.24155448E+04</rscale>
<asrwt>0</asrwt>
<pdfrwt beam="1">  1        1 0.12296255E+00 0.24155448E+04</pdfrwt>
<pdfrwt beam="2">  1       -1 0.28078289E+00 0.24155448E+04</pdfrwt>
<totfact> 0.87175149E-01</totfact>
</mgrwt>
</event>
<event>
 6    1  0.2236204E-005  0.1732657E+03  0.7818608E-02  0.1174484E+00
          2   -1    0    0  501    0  0.00000000000E+00  0.00000000000E+00  0.84440940897E+03  0.84440940897E+03  0.00000000000E+00 0. -1.
         -2   -1    0    0    0  501 -0.00000000000E+00 -0.00000000000E+00 -0.88881641415E+01  0.88881641415E+01  0.00000000000E+00 0.  1.
         23    2    1    2    0    0  0.10980580823E+02  0.53323343407E+02  0.68337979674E+03  0.69170867394E+03  0.92135720061E+02 0.  0.
         13    1    3    3    0    0  0.36586880006E+02 -0.10207632460E+02  0.27792559090E+03  0.28050923270E+03  0.00000000000E+00 0. -1.
        -13    1    3    3    0    0 -0.25606299183E+02  0.63530975868E+02  0.40545420583E+03  0.41119944125E+03  0.00000000000E+00 0.  1.
         22    1    1    2    0    0 -0.10980580823E+02 -0.53323343407E+02  0.15214144809E+03  0.16158889917E+03  0.00000000000E+00 0.  1.
<mgrwt>
<rscale>  0 0.17326569E+03</rscale>
<asrwt>0</asrwt>
<pdfrwt beam="1">  1        2 0.12990908E+00 0.17326569E+03</pdfrwt>
<pdfrwt beam="2">  1       -2 0.13674105E-02 0.17326569E+03</pdfrwt>
<totfact> 0.42901361E+04</totfact>
</mgrwt>
</event>
<event>
 6    1  0.2236204E-005  0.2769125E+04  0.7818608E-02  0.8312919E-01
          2   -1    0    0  501    0  0.00000000000E+00  0.00000000000E+00  0.35701139456E+04  0.35701139456E+04  0.00000000000E+00 0. -1.
         -2   -1    0    0    0  501 -0.00000000000E+00 -0.00000000000E+00 -0.53696118910E+03  0.53696118910E+03  0.00000000000E+00 0.  1.
         23    2    1    2    0    0  0.11942389407E+04 -0.25248712744E+03  0.55379012801E+03  0.13435275160E+04  0.91794789606E+02 0.  0.
         13    1    3    3    0    0  0.48951067688E+03 -0.14867449650E+03  0.22076189175E+03  0.55718993309E+03  0.00000000000E+00 0.  1.
        -13    1    3    3    0    0  0.70472826385E+03 -0.10381263093E+03  0.33302823626E+03  0.78633758295E+03  0.00000000000E+00 0. -1.
         22    1    1    2    0    0 -0.11942389407E+04  0.25248712744E+03  0.24793626284E+04  0.27635476186E+04  0.00000000000E+00 0. -1.
<mgrwt>
<rscale>  0 0.27691245E+04</rscale>
<asrwt>0</asrwt>
<pdfrwt beam="1">  1        2 0.54924828E+00 0.27691245E+04</pdfrwt>
<pdfrwt beam="2">  1       -2 0.82609416E-01 0.27691245E+04</pdfrwt>
<totfact> 0.81344786E-01</totfact>
</mgrwt>
</event>
<event>
 6    1  0.2236204E-005  0.1082081E+04  0.7818608E-02  0.9222835E-01
          2   -1    0    0  501    0  0.00000000000E+00  0.00000000000E+00  0.20811500331E+04  0.20811500331E+04  0.00000000000E+00 0.  1.
         -2   -1    0    0    0  501 -0.00000000000E+00 -0.00000000000E+00 -0.14065539624E+03  0.14065539624E+03  0.00000000000E+00 0. -1.
         23    2    1    2    0    0  0.49822682372E+03  0.18729745387E+03  0.83430619589E+03  0.99422114669E+03  0.95386350827E+02 0.  0.
         11    1    3    3    0    0  0.35800808413E+03  0.87911988139E+02  0.55520540572E+03  0.66644680845E+03  0.00000000000E+00 0. -1.
        -11    1    3    3    0    0  0.14021873959E+03  0.99385465732E+02  0.27910079017E+03  0.32777433824E+03  0.00000000000E+00 0.  1.
         22    1    1    2    0    0 -0.49822682372E+03 -0.18729745387E+03  0.11061884410E+04  0.12275842827E+04  0.00000000000E+00 0.  1.
<mgrwt>
<rscale>  0 0.10820813E+04</rscale>
<asrwt>0</asrwt>
<pdfrwt beam="1">  1        2 0.32017691E+00 0.10820813E+04</pdfrwt>
<pdfrwt beam="2">  1       -2 0.21639293E-01 0.10820813E+04</pdfrwt>
<totfact> 0.11162468E+02</totfact>
</mgrwt>
</event>
<event>
 6    1  0.2236204E-005  0.2212756E+04  0.7818608E-02  0.8513137E-01
          2   -1    0    0  501    0  0.00000000000E+00  0.00000000000E+00  0.17417383155E+04  0.17417383155E+04  0.00000000000E+00 0.  1.
         -2   -1    0    0    0  501 -0.00000000000E+00 -0.00000000000E+00 -0.70278781319E+03  0.70278781319E+03  0.00000000000E+00 0. -1.
         23    2    1    2    0    0  0.32614561883E+02  0.18870573630E+03  0.17220687197E+04  0.17350727733E+04  0.91012573669E+02 0.  0.
         13    1    3    3    0    0  0.45355409712E+02  0.37754308725E+02  0.58180771318E+03  0.58479288311E+03  0.00000000000E+00 0.  1.
        -13    1    3    3    0    0 -0.12740847828E+02  0.15095142757E+03  0.11402610065E+04  0.11502798901E+04  0.00000000000E+00 0. -1.
         22    1    1    2    0    0 -0.32614561883E+02 -0.18870573630E+03 -0.68311821741E+03  0.70945335542E+03  0.00000000000E+00 0. -1.
<mgrwt>
<rscale>  0 0.22127562E+04</rscale>
<asrwt>0</asrwt>
<pdfrwt beam="1">  1        2 0.26795974E+00 0.22127562E+04</pdfrwt>
<pdfrwt beam="2">  1       -2 0.10812120E+00 0.22127562E+04</pdfrwt>
<totfact> 0.58147837E+00</totfact>
</mgrwt>
</event>
<event>
 6    1  0.2236204E-005  0.2365132E+04  0.7818608E-02  0.8452674E-01
          2   -1    0    0  501    0  0.00000000000E+00  0.00000000000E+00  0.27775495084E+04  0.27775495084E+04  0.00000000000E+00 0. -1.
         -2   -1    0    0    0  501 -0.00000000000E+00 -0.00000000000E+00 -0.50348790610E+03  0.50348790610E+03  0.00000000000E+00 0.  1.
         23    2    1    2    0    0  0.52969393443E+03 -0.57918832782E+03  0.23626151631E+04  0.24911788725E+04  0.89369922586E+02 0.  0.
         11    1    3    3    0    0  0.13498202104E+03 -0.16626698183E+03  0.53119424456E+03  0.57274093681E+03  0.00000000000E+00 0. -1.
        -11    1    3    3    0    0  0.39471191339E+03 -0.41292134600E+03  0.18314209185E+04  0.19184379357E+04  0.00000000000E+00 0.  1.
         22    1    1    2    0    0 -0.52969393443E+03  0.57918832782E+03 -0.88553560704E+02  0.78985854200E+03  0.00000000000E+00 0.  1.
<mgrwt>
<rscale>  0 0.23651322E+04</rscale>
<asrwt>0</asrwt>
<pdfrwt beam="1">  1        2 0.42731530E+00 0.23651322E+04</pdfrwt>
<pdfrwt beam="2">  1       -2 0.77459680E-01 0.23651322E+04</pdfrwt>
<totfact> 0.31978968E+00</totfact>
</mgrwt>
</event>
<event>
 6    1  0.2236204E-005  0.2910069E+04  0.7818608E-02  0.8269888E-01
         -2   -1    0    0    0  501 -0.00000000000E+00  0.00000000000E+00  0.44001238837E+03  0.44001238837E+03  0.00000000000E+00 0.  1.
          2   -1    0    0  501    0  0.00000000000E+00 -0.00000000000E+00 -0.48115131228E+04  0.48115131228E+04  0.00000000000E+00 0. -1.
         23    2    1    2    0    0  0.66017548480E+03  0.12701308391E+04 -0.17319879609E+04  0.22488447587E+04  0.91958866362E+02 0.  0.
         11    1    3    3    0    0  0.61572715587E+03  0.12113039626E+04 -0.16153982774E+04  0.21108976325E+04  0.00000000000E+00 0.  1.
        -11    1    3    3    0    0  0.44448328931E+02  0.58826876546E+02 -0.11658968349E+03  0.13794712627E+03  0.00000000000E+00 0. -1.
         22    1    1    2    0    0 -0.66017548480E+03 -0.12701308391E+04 -0.26395127736E+04  0.30026807524E+04  0.00000000000E+00 0. -1.
<mgrwt>
<rscale>  0 0.29100690E+04</rscale>
<asrwt>0</asrwt>
<pdfrwt beam="1">  1        2 0.74023277E+00 0.29100690E+04</pdfrwt>
<pdfrwt beam="2">  1       -2 0.67694215E-01 0.29100690E+04</pdfrwt>
<totfact> 0.99663850E-02</totfact>
</mgrwt>
</event>
<event>
 6    1  0.2236204E-005  0.5914756E+04  0.7818608E-02  0.7701062E-01
         -2   -1    0    0    0  501 -0.00000000000E+00  0.00000000000E+00  0.27504124766E+04  0.27504124766E+04  0.00000000000E+00 0.  1.
          2   -1    0    0  501    0  0.00000000000E+00 -0.00000000000E+00 -0.31799178436E+04  0.31799178436E+04  0.00000000000E+00 0. -1.
         23    2    1    2    0    0  0.25059643278E+04 -0.13996085694E+04  0.49650909969E+03  0.29143289686E+04  0.89614123776E+02 0.  0.
         13    1    3    3    0    0  0.10406698488E+04 -0.59313510757E+03  0.25082050045E+03  0.12238112246E+04  0.00000000000E+00 0.  1.
        -13    1    3    3    0    0  0.14652944790E+04 -0.80647346187E+03  0.24568859924E+03  0.16905177440E+04  0.00000000000E+00 0. -1.
         22    1    1    2    0    0 -0.25059643278E+04  0.13996085694E+04 -0.92601446670E+03  0.30160013515E+04  0.00000000000E+00 0.  1.
<mgrwt>
<rscale>  0 0.59147564E+04</rscale>
<asrwt>0</asrwt>
<pdfrwt beam="1">  1        2 0.48921813E+00 0.59147564E+04</pdfrwt>
<pdfrwt beam="2">  1       -2 0.42314038E+00 0.59147564E+04</pdfrwt>
<totfact> 0.47405555E-03</totfact>
</mgrwt>
</event>
<event>
 6    1  0.2357570E-005  0.2054583E+04  0.7818608E-02  0.8581518E-01
          2   -1    0    0  501    0  0.00000000000E+00  0.00000000000E+00  0.15633312725E+04  0.15633312725E+04  0.00000000000E+00 0. -1.
         -2   -1    0    0    0  501 -0.00000000000E+00 -0.00000000000E+00 -0.67505095325E+03  0.67505095325E+03  0.00000000000E+00 0.  1.
         23    2    1    2    0    0  0.15477227196E+03 -0.75568174605E+02  0.15461150487E+04  0.15583737432E+04  0.91607721361E+02 0.  0.
         11    1    3    3    0    0  0.13045585474E+03 -0.46884203924E+02  0.84880183756E+03  0.86004733478E+03  0.00000000000E+00 0. -1.
        -11    1    3    3    0    0  0.24316417217E+02 -0.28683970681E+02  0.69731321112E+03  0.69832640844E+03  0.00000000000E+00 0.  1.
         22    1    1    2    0    0 -0.15477227196E+03  0.75568174605E+02 -0.65783472939E+03  0.68000848258E+03  0.00000000000E+00 0.  1.
<mgrwt>
<rscale>  0 0.20545834E+04</rscale>
<asrwt>0</asrwt>
<pdfrwt beam="1">  1        2 0.24051250E+00 0.20545834E+04</pdfrwt>
<pdfrwt beam="2">  1       -2 0.10385399E+00 0.20545834E+04</pdfrwt>
<totfact> 0.81631356E+00</totfact>
</mgrwt>
</event>
<event>
 6    1  0.2236204E-005  0.4800285E+04  0.7818608E-02  0.7860076E-01
         -2   -1    0    0    0  501 -0.00000000000E+00  0.00000000000E+00  0.14280715794E+04  0.14280715794E+04  0.00000000000E+00 0. -1.
          2   -1    0    0  501    0  0.00000000000E+00 -0.00000000000E+00 -0.40338906005E+04  0.40338906005E+04  0.00000000000E+00 0.  1.
         23    2    1    2    0    0  0.15370931959E+04 -0.14428094257E+04  0.55108313537E-01  0.21101067967E+04  0.90532638749E+02 0.  0.
         13    1    3    3    0    0  0.42370539887E+03 -0.40208430361E+03  0.40417271702E+02  0.58551823891E+03  0.00000000000E+00 0. -1.
        -13    1    3    3    0    0  0.11133877970E+04 -0.10407251221E+04 -0.40362163388E+02  0.15245885578E+04  0.00000000000E+00 0.  1.
         22    1    1    2    0    0 -0.15370931959E+04  0.14428094257E+04 -0.26058741295E+04  0.33518553833E+04  0.00000000000E+00 0.  1.
<mgrwt>
<rscale>  0 0.48002852E+04</rscale>
<asrwt>0</asrwt>
<pdfrwt beam="1">  1        2 0.62059855E+00 0.48002852E+04</pdfrwt>
<pdfrwt beam="2">  1       -2 0.21970332E+00 0.48002852E+04</pdfrwt>
<totfact> 0.23459782E-02</totfact>
</mgrwt>
</event>
<event>
 6    1  0.2236204E-005  0.2841423E+04  0.7818608E-02  0.8290522E-01
         -2   -1    0    0    0  501 -0.00000000000E+00  0.00000000000E+00  0.97140303823E+03  0.97140303823E+03  0.00000000000E+00 0.  1.
          2   -1    0    0  501    0  0.00000000000E+00 -0.00000000000E+00 -0.20778408409E+04  0.20778408409E+04  0.00000000000E+00 0. -1.
         23    2    1    2    0    0  0.17391964726E+03 -0.11491509766E+04 -0.14279297513E+04  0.18433611801E+04  0.90559676244E+02 0.  0.
         11    1    3    3    0    0  0.45127760029E+02 -0.24501919358E+03 -0.36588144781E+03  0.44265127787E+03  0.00000000000E+00 0. -1.
        -11    1    3    3    0    0  0.12879188723E+03 -0.90413178305E+03 -0.10620483035E+04  0.14007099022E+04  0.00000000000E+00 0.  1.
         22    1    1    2    0    0 -0.17391964726E+03  0.11491509766E+04  0.32149194861E+03  0.12058826990E+04  0.00000000000E+00 0.  1.
<mgrwt>
<rscale>  0 0.28414228E+04</rscale>
<asrwt>0</asrwt>
<pdfrwt beam="1">  1        2 0.31966782E+00 0.28414228E+04</pdfrwt>
<pdfrwt beam="2">  1       -2 0.14944662E+00 0.28414228E+04</pdfrwt>
<totfact> 0.15864331E+00</totfact>
</mgrwt>
</event>
<event>
 6    1  0.2236204E-005  0.4278304E+04  0.7818608E-02  0.7950642E-01
         -2   -1    0    0    0  501 -0.00000000000E+00  0.00000000000E+00  0.17988038485E+04  0.17988038485E+04  0.00000000000E+00 0.  1.
          2   -1    0    0  501    0  0.00000000000E+00 -0.00000000000E+00 -0.25438967568E+04  0.25438967568E+04  0.00000000000E+00 0. -1.
         23    2    1    2    0    0 -0.15448482705E+04  0.13632034274E+04  0.20743751649E+03  0.20728561231E+04  0.93927741351E+02 0.  0.
         13    1    3    3    0    0 -0.65976319095E+03  0.53701671519E+03  0.53978182773E+02  0.85240135191E+03  0.00000000000E+00 0. -1.
        -13    1    3    3    0    0 -0.88508507952E+03  0.82618671222E+03  0.15345933372E+03  0.12204547712E+04  0.00000000000E+00 0.  1.
         22    1    1    2    0    0  0.15448482705E+04 -0.13632034274E+04 -0.95253042480E+03  0.22698444822E+04  0.00000000000E+00 0.  1.
<mgrwt>
<rscale>  0 0.42783040E+04</rscale>
<asrwt>0</asrwt>
<pdfrwt beam="1">  1        2 0.39136873E+00 0.42783040E+04</pdfrwt>
<pdfrwt beam="2">  1       -2 0.27673905E+00 0.42783040E+04</pdfrwt>
<totfact> 0.11162272E-01</totfact>
</mgrwt>
</event>
<event>
 6    1  0.2236204E-005  0.2010549E+04  0.7818608E-02  0.8601705E-01
         -2   -1    0    0    0  501 -0.00000000000E+00  0.00000000000E+00  0.55590397024E+03  0.55590397024E+03  0.00000000000E+00 0.  1.
          2   -1    0    0  501    0  0.00000000000E+00 -0.00000000000E+00 -0.18178978886E+04  0.18178978886E+04  0.00000000000E+00 0. -1.
         23    2    1    2    0    0  0.90865728341E+03  0.42461601333E+03 -0.65818158892E+03  0.12030985887E+04  0.91029625233E+02 0.  0.
         11    1    3    3    0    0  0.63251543938E+03  0.34046434562E+03 -0.46214768581E+03  0.85415000743E+03  0.00000000000E+00 0.  1.
        -11    1    3    3    0    0  0.27614184403E+03  0.84151667713E+02 -0.19603390311E+03  0.34894858128E+03  0.00000000000E+00 0. -1.
         22    1    1    2    0    0 -0.90865728341E+03 -0.42461601333E+03 -0.60381232939E+03  0.11707032701E+04  0.00000000000E+00 0.  1.
<mgrwt>
<rscale>  0 0.20105488E+04</rscale>
<asrwt>0</asrwt>
<pdfrwt beam="1">  1        2 0.27967660E+00 0.20105488E+04</pdfrwt>
<pdfrwt beam="2">  1       -2 0.85523687E-01 0.20105488E+04</pdfrwt>
<totfact> 0.93010420E+00</totfact>
</mgrwt>
</event>
<event>
 6    1  0.2236204E-005  0.8409470E+03  0.7818608E-02  0.9502569E-01
          2   -1    0    0  501    0  0.00000000000E+00  0.00000000000E+00  0.66471517150E+03  0.66471517150E+03  0.00000000000E+00 0. -1.
         -2   -1    0    0    0  501 -0.00000000000E+00 -0.00000000000E+00 -0.26597552367E+03  0.26597552367E+03  0.00000000000E+00 0.  1.
         23    2    1    2    0    0  0.51022772813E+02 -0.39044277219E+03  0.34909134849E+03  0.53381056802E+03  0.89666444327E+02 0.  0.
         13    1    3    3    0    0 -0.99266545037E+00 -0.21893827959E+03  0.23587643152E+03  0.32182704455E+03  0.00000000000E+00 0. -1.
        -13    1    3    3    0    0  0.52015438263E+02 -0.17150449260E+03  0.11321491696E+03  0.21198352347E+03  0.00000000000E+00 0.  1.
         22    1    1    2    0    0 -0.51022772813E+02  0.39044277219E+03  0.49648299344E+02  0.39688012715E+03  0.00000000000E+00 0.  1.
<mgrwt>
<rscale>  0 0.84094700E+03</rscale>
<asrwt>0</asrwt>
<pdfrwt beam="1">  1        2 0.10226387E+00 0.84094700E+03</pdfrwt>
<pdfrwt beam="2">  1       -2 0.40919312E-01 0.84094700E+03</pdfrwt>
<totfact> 0.24849498E+02</totfact>
</mgrwt>
</event>
<event>
 6    1  0.2236204E-005  0.4858497E+04  0.7818608E-02  0.7850714E-01
          2   -1    0    0  501    0  0.00000000000E+00  0.00000000000E+00  0.21290932856E+04  0.21290932856E+04  0.00000000000E+00 0. -1.
         -2   -1    0    0    0  501 -0.00000000000E+00 -0.00000000000E+00 -0.27717184372E+04  0.27717184372E+04  0.00000000000E+00 0.  1.
         23    2    1    2    0    0  0.23020472001E+04 -0.76384595820E+03 -0.20267115800E+03  0.24357678134E+04  0.94906707953E+02 0.  0.
         13    1    3    3    0    0  0.34713224025E+03 -0.89346580836E+02 -0.53149930896E+02  0.36236517339E+03  0.00000000000E+00 0. -1.
        -13    1    3    3    0    0  0.19549149598E+04 -0.67449937736E+03 -0.14952122711E+03  0.20734026400E+04  0.00000000000E+00 0.  1.
         22    1    1    2    0    0 -0.23020472001E+04  0.76384595820E+03 -0.43995399354E+03  0.24650439095E+04  0.00000000000E+00 0.  1.
<mgrwt>
<rscale>  0 0.48584965E+04</rscale>
<asrwt>0</asrwt>
<pdfrwt beam="1">  1        2 0.32755281E+00 0.48584965E+04</pdfrwt>
<pdfrwt beam="2">  1       -2 0.42641822E+00 0.48584965E+04</pdfrwt>
<totfact> 0.20746715E-02</totfact>
</mgrwt>
</event>
<event>
 6    1  0.2236204E-005  0.3627224E+04  0.7818608E-02  0.8084284E-01
         -2   -1    0    0    0  501 -0.00000000000E+00  0.00000000000E+00  0.96877765696E+03  0.96877765696E+03  0.00000000000E+00 0. -1.
          2   -1    0    0  501    0  0.00000000000E+00 -0.00000000000E+00 -0.33951952487E+04  0.33951952487E+04  0.00000000000E+00 0.  1.
         23    2    1    2    0    0  0.90636041757E+03 -0.12574880298E+04 -0.23444992980E+04  0.28117242276E+04  0.79692046336E+02 0.  0.
         11    1    3    3    0    0  0.20218119678E+03 -0.23254379988E+03 -0.49307648772E+03  0.58144499132E+03  0.00000000000E+00 0. -1.
        -11    1    3    3    0    0  0.70417922079E+03 -0.10249442299E+04 -0.18514228103E+04  0.22302792363E+04  0.00000000000E+00 0.  1.
         22    1    1    2    0    0 -0.90636041757E+03  0.12574880298E+04 -0.81918293727E+02  0.15522486780E+04  0.00000000000E+00 0.  1.
<mgrwt>
<rscale>  0 0.36272244E+04</rscale>
<asrwt>0</asrwt>
<pdfrwt beam="1">  1        2 0.52233773E+00 0.36272244E+04</pdfrwt>
<pdfrwt beam="2">  1       -2 0.14904272E+00 0.36272244E+04</pdfrwt>
<totfact> 0.23772483E-01</totfact>
</mgrwt>
</event>
<event>
 6    1  0.2236204E-005  0.2097945E+04  0.7818608E-02  0.8562149E-01
          1   -1    0    0  501    0  0.00000000000E+00  0.00000000000E+00  0.22113824574E+04  0.22113824574E+04  0.00000000000E+00 0.  1.
         -1   -1    0    0    0  501 -0.00000000000E+00 -0.00000000000E+00 -0.49758156358E+03  0.49758156358E+03  0.00000000000E+00 0. -1.
         23    2    1    2    0    0  0.72743465079E+03  0.57535712013E+03  0.23121671951E+03  0.96017792178E+03  0.91013643212E+02 0.  0.
         11    1    3    3    0    0  0.65860037512E+03  0.53599051870E+03  0.23413228688E+03  0.88082814329E+03  0.00000000000E+00 0.  1.
        -11    1    3    3    0    0  0.68834275663E+02  0.39366601430E+02 -0.29155673696E+01  0.79349778495E+02  0.00000000000E+00 0. -1.
         22    1    1    2    0    0 -0.72743465079E+03 -0.57535712013E+03  0.14825841744E+04  0.17487860992E+04  0.00000000000E+00 0.  1.
<mgrwt>
<rscale>  0 0.20979448E+04</rscale>
<asrwt>0</asrwt>
<pdfrwt beam="1">  1        1 0.34021268E+00 0.20979448E+04</pdfrwt>
<pdfrwt beam="2">  1       -1 0.76551011E-01 0.20979448E+04</pdfrwt>
<totfact> 0.33709951E+00</totfact>
</mgrwt>
</event>
<event>
 6    1  0.2236204E-005  0.2007056E+04  0.7818608E-02  0.8603329E-01
          2   -1    0    0  501    0  0.00000000000E+00  0.00000000000E+00  0.21485386243E+04  0.21485386243E+04  0.00000000000E+00 0. -1.
         -2   -1    0    0    0  501 -0.00000000000E+00 -0.00000000000E+00 -0.46872248208E+03  0.46872248208E+03  0.00000000000E+00 0.  1.
         23    2    1    2    0    0 -0.33548555930E+03 -0.49281574640E+03  0.18912527139E+04  0.19847080697E+04  0.82531046737E+02 0.  0.
         13    1    3    3    0    0 -0.13813814868E+03 -0.15206374873E+03  0.56281620648E+03  0.59913906072E+03  0.00000000000E+00 0. -1.
        -13    1    3    3    0    0 -0.19734741062E+03 -0.34075199767E+03  0.13284365074E+04  0.13855690090E+04  0.00000000000E+00 0.  1.
         22    1    1    2    0    0  0.33548555930E+03  0.49281574640E+03 -0.21143657166E+03  0.63255303670E+03  0.00000000000E+00 0.  1.
<mgrwt>
<rscale>  0 0.20070559E+04</rscale>
<asrwt>0</asrwt>
<pdfrwt beam="1">  1        2 0.33054440E+00 0.20070559E+04</pdfrwt>
<pdfrwt beam="2">  1       -2 0.72111152E-01 0.20070559E+04</pdfrwt>
<totfact> 0.89254111E+00</totfact>
</mgrwt>
</event>
<event>
 6    1  0.2236204E-005  0.2381462E+04  0.7818608E-02  0.8446477E-01
         -2   -1    0    0    0  501 -0.00000000000E+00  0.00000000000E+00  0.51633485152E+03  0.51633485152E+03  0.00000000000E+00 0. -1.
          2   -1    0    0  501    0  0.00000000000E+00 -0.00000000000E+00 -0.27459702039E+04  0.27459702039E+04  0.00000000000E+00 0.  1.
         23    2    1    2    0    0  0.62010653849E+03 -0.91855800596E+03 -0.17062320528E+04  0.20366493356E+04  0.91824664190E+02 0.  0.
         11    1    3    3    0    0  0.38747166470E+03 -0.62894257013E+03 -0.11902363695E+04  0.14008446248E+04  0.00000000000E+00 0.  1.
        -11    1    3    3    0    0  0.23263487379E+03 -0.28961543583E+03 -0.51599568327E+03  0.63580471085E+03  0.00000000000E+00 0. -1.
         22    1    1    2    0    0 -0.62010653849E+03  0.91855800596E+03 -0.52340329957E+03  0.12256557198E+04  0.00000000000E+00 0. -1.
<mgrwt>
<rscale>  0 0.23814618E+04</rscale>
<asrwt>0</asrwt>
<pdfrwt beam="1">  1        2 0.42245696E+00 0.23814618E+04</pdfrwt>
<pdfrwt beam="2">  1       -2 0.79436131E-01 0.23814618E+04</pdfrwt>
<totfact> 0.31530723E+00</totfact>
</mgrwt>
</event>
<event>
 6    1  0.2260968E-005  0.2727717E+04  0.7818608E-02  0.8326067E-01
          2   -1    0    0  501    0  0.00000000000E+00  0.00000000000E+00  0.23388008044E+04  0.23388008044E+04  0.00000000000E+00 0. -1.
         -2   -1    0    0    0  501 -0.00000000000E+00 -0.00000000000E+00 -0.79532648525E+03  0.79532648525E+03  0.00000000000E+00 0.  1.
         23    2    1    2    0    0  0.13003856449E+04 -0.87226007377E+02  0.31633327067E+03  0.13440193726E+04  0.87807367457E+02 0.  0.
         11    1    3    3    0    0  0.78744170360E+03 -0.87763256416E+02  0.16627669887E+03  0.80957690576E+03  0.00000000000E+00 0.  1.
        -11    1    3    3    0    0  0.51294394133E+03  0.53724903918E+00  0.15005657180E+03  0.53444246681E+03  0.00000000000E+00 0. -1.
         22    1    1    2    0    0 -0.13003856449E+04  0.87226007377E+02  0.12271410485E+04  0.17901079171E+04  0.00000000000E+00 0. -1.
<mgrwt>
<rscale>  0 0.27277172E+04</rscale>
<asrwt>0</asrwt>
<pdfrwt beam="1">  1        2 0.35981550E+00 0.27277172E+04</pdfrwt>
<pdfrwt beam="2">  1       -2 0.12235792E+00 0.27277172E+04</pdfrwt>
<totfact> 0.19076278E+00</totfact>
</mgrwt>
</event>
<event>
 6    1  0.2236204E-005  0.2583083E+04  0.7818608E-02  0.8373970E-01
          2   -1    0    0  501    0  0.00000000000E+00  0.00000000000E+00  0.17985894304E+04  0.17985894304E+04  0.00000000000E+00 0. -1.
         -2   -1    0    0    0  501 -0.00000000000E+00 -0.00000000000E+00 -0.92743752334E+03  0.92743752334E+03  0.00000000000E+00 0.  1.
         23    2    1    2    0    0  0.71684811324E+03 -0.17827489272E+03 -0.67983437778E+03  0.10081178727E+04  0.92052752728E+02 0.  0.
         11    1    3    3    0    0  0.65285355844E+03 -0.16598800907E+03 -0.58008708527E+03  0.88897177369E+03  0.00000000000E+00 0. -1.
        -11    1    3    3    0    0  0.63994554799E+02 -0.12286883648E+02 -0.99747292514E+02  0.11914609905E+03  0.00000000000E+00 0.  1.
         22    1    1    2    0    0 -0.71684811324E+03  0.17827489272E+03  0.15509862848E+04  0.17179090810E+04  0.00000000000E+00 0. -1.
<mgrwt>
<rscale>  0 0.25830829E+04</rscale>
<asrwt>0</asrwt>
<pdfrwt beam="1">  1        2 0.27670607E+00 0.25830829E+04</pdfrwt>
<pdfrwt beam="2">  1       -2 0.14268270E+00 0.25830829E+04</pdfrwt>
<totfact> 0.26176538E+00</totfact>
</mgrwt>
</event>
<event>
 6    1  0.2236204E-005  0.2996426E+04  0.7818608E-02  0.8244752E-01
          1   -1    0    0  501    0  0.00000000000E+00  0.00000000000E+00  0.87914658200E+03  0.87914658200E+03  0.00000000000E+00 0. -1.
         -1   -1    0    0    0  501 -0.00000000000E+00 -0.00000000000E+00 -0.25532052610E+04  0.25532052610E+04  0.00000000000E+00 0.  1.
         23    2    1    2    0    0 -0.13104074413E+04  0.91985943814E+02 -0.16609291796E+04  0.21186542142E+04  0.66188093920E+02 0.  0.
         11    1    3    3    0    0 -0.51413453373E+03  0.58316616829E+02 -0.61615968363E+03  0.80460418984E+03  0.00000000000E+00 0.  1.
        -11    1    3    3    0    0 -0.79627290753E+03  0.33669326984E+02 -0.10447694960E+04  0.13140500244E+04  0.00000000000E+00 0. -1.
         22    1    1    2    0    0  0.13104074413E+04 -0.91985943814E+02 -0.13129499319E+02  0.13136976287E+04  0.00000000000E+00 0. -1.
<mgrwt>
<rscale>  0 0.29964257E+04</rscale>
<asrwt>0</asrwt>
<pdfrwt beam="1">  1        1 0.13525332E+00 0.29964257E+04</pdfrwt>
<pdfrwt beam="2">  1       -1 0.39280080E+00 0.29964257E+04</pdfrwt>
<totfact> 0.12903602E-01</totfact>
</mgrwt>
</event>
<event>
 6    1  0.2236204E-005  0.1894732E+04  0.7818608E-02  0.8657483E-01
          2   -1    0    0  501    0  0.00000000000E+00  0.00000000000E+00  0.12901396032E+04  0.12901396032E+04  0.00000000000E+00 0. -1.
         -2   -1    0    0    0  501 -0.00000000000E+00 -0.00000000000E+00 -0.69566300094E+03  0.69566300094E+03  0.00000000000E+00 0.  1.
         23    2    1    2    0    0  0.14488839993E+03 -0.92668026667E+03  0.41940757054E+03  0.10316652288E+04  0.93281664992E+02 0.  0.
         13    1    3    3    0    0  0.27875911441E+02 -0.39345021864E+03  0.14122429086E+03  0.41895637161E+03  0.00000000000E+00 0. -1.
        -13    1    3    3    0    0  0.11701248849E+03 -0.53323004803E+03  0.27818327968E+03  0.61270885719E+03  0.00000000000E+00 0.  1.
         22    1    1    2    0    0 -0.14488839993E+03  0.92668026667E+03  0.17506903167E+03  0.95413737529E+03  0.00000000000E+00 0. -1.
<mgrwt>
<rscale>  0 0.18947321E+04</rscale>
<asrwt>0</asrwt>
<pdfrwt beam="1">  1        2 0.19848302E+00 0.18947321E+04</pdfrwt>
<pdfrwt beam="2">  1       -2 0.10702508E+00 0.18947321E+04</pdfrwt>
<totfact> 0.11021388E+01</totfact>
</mgrwt>
</event>
<event>
 6    1  0.2236204E-005  0.2813502E+04  0.7818608E-02  0.8299089E-01
         -2   -1    0    0    0  501 -0.00000000000E+00  0.00000000000E+00  0.71723969073E+03  0.71723969073E+03  0.00000000000E+00 0.  1.
          2   -1    0    0  501    0  0.00000000000E+00 -0.00000000000E+00 -0.27591175518E+04  0.27591175518E+04  0.00000000000E+00 0. -1.
         23    2    1    2    0    0  0.33799967379E+03  0.61412727773E+03  0.48345068085E+03  0.85554051157E+03  0.82637239742E+02 0.  0.
         13    1    3    3    0    0  0.12514040776E+03  0.25565119256E+03  0.24303633597E+03  0.37427839172E+03  0.00000000000E+00 0. -1.
        -13    1    3    3    0    0  0.21285926603E+03  0.35847608517E+03  0.24041434488E+03  0.48126211985E+03  0.00000000000E+00 0.  1.
         22    1    1    2    0    0 -0.33799967379E+03 -0.61412727773E+03 -0.25253285419E+04  0.26208167310E+04  0.00000000000E+00 0. -1.
<mgrwt>
<rscale>  0 0.28135022E+04</rscale>
<asrwt>0</asrwt>
<pdfrwt beam="1">  1        2 0.42447962E+00 0.28135022E+04</pdfrwt>
<pdfrwt beam="2">  1       -2 0.11034457E+00 0.28135022E+04</pdfrwt>
<totfact> 0.13867053E+00</totfact>
</mgrwt>
</event>
<event>
 6    1  0.2236204E-005  0.1095081E+04  0.7818608E-02  0.9210000E-01
          2   -1    0    0  501    0  0.00000000000E+00  0.00000000000E+00  0.64624071239E+03  0.64624071239E+03  0.00000000000E+00 0. -1.
         -2   -1    0    0    0  501 -0.00000000000E+00 -0.00000000000E+00 -0.46391462268E+03  0.46391462268E+03  0.00000000000E+00 0.  1.
         23    2    1    2    0    0  0.16636016321E+03 -0.46763569902E+03 -0.13143615033E+03  0.52295384139E+03  0.99229066848E+02 0.  0.
         11    1    3    3    0    0  0.12703694175E+03 -0.20915521569E+03 -0.63616077056E+02  0.25284638435E+03  0.00000000000E+00 0. -1.
        -11    1    3    3    0    0  0.39323221464E+02 -0.25848048333E+03 -0.67820073279E+02  0.27010745704E+03  0.00000000000E+00 0.  1.
         22    1    1    2    0    0 -0.16636016321E+03  0.46763569902E+03  0.31376224005E+03  0.58720149368E+03  0.00000000000E+00 0. -1.
<mgrwt>
<rscale>  0 0.10950808E+04</rscale>
<asrwt>0</asrwt>
<pdfrwt beam="1">  1        2 0.99421649E-01 0.10950808E+04</pdfrwt>
<pdfrwt beam="2">  1       -2 0.71371480E-01 0.10950808E+04</pdfrwt>
<totfact> 0.80178687E+01</totfact>
</mgrwt>
</event>
<event>
 6    1  0.2236204E-005  0.2558415E+04  0.7818608E-02  0.8382465E-01
         -2   -1    0    0    0  501 -0.00000000000E+00  0.00000000000E+00  0.13148428022E+04  0.13148428022E+04  0.00000000000E+00 0. -1.
          2   -1    0    0  501    0  0.00000000000E+00 -0.00000000000E+00 -0.12445383587E+04  0.12445383587E+04  0.00000000000E+00 0.  1.
         23    2    1    2    0    0  0.11744596925E+04  0.33740478647E+03 -0.33766097087E+03  0.12711135883E+04  0.92289024441E+02 0.  0.
         13    1    3    3    0    0  0.55800250058E+03  0.18408746480E+03 -0.12074149226E+03  0.59986122837E+03  0.00000000000E+00 0. -1.
        -13    1    3    3    0    0  0.61645719187E+03  0.15331732167E+03 -0.21691947861E+03  0.67125235995E+03  0.00000000000E+00 0.  1.
         22    1    1    2    0    0 -0.11744596925E+04 -0.33740478647E+03  0.40796541439E+03  0.12882675725E+04  0.00000000000E+00 0. -1.
<mgrwt>
<rscale>  0 0.25584154E+04</rscale>
<asrwt>0</asrwt>
<pdfrwt beam="1">  1        2 0.19146744E+00 0.25584154E+04</pdfrwt>
<pdfrwt beam="2">  1       -2 0.20228351E+00 0.25584154E+04</pdfrwt>
<totfact> 0.20323577E+00</totfact>
</mgrwt>
</event>
<event>
 6    1  0.2236204E-005  0.8698808E+03  0.7818608E-02  0.9464035E-01
          2   -1    0    0  501    0  0.00000000000E+00  0.00000000000E+00  0.14649448876E+04  0.14649448876E+04  0.00000000000E+00 0. -1.
         -2   -1    0    0    0  501 -0.00000000000E+00 -0.00000000000E+00 -0.12913328065E+03  0.12913328065E+03  0.00000000000E+00 0.  1.
         23    2    1    2    0    0  0.70707071618E+02  0.35613493346E+03  0.25267822948E+03  0.45170804688E+03  0.91445563932E+02 0.  0.
         13    1    3    3    0    0  0.46193032551E+01  0.20570144987E+03  0.10599978059E+03  0.23145275528E+03  0.00000000000E+00 0.  1.
        -13    1    3    3    0    0  0.66087768363E+02  0.15043348358E+03  0.14667844889E+03  0.22025529160E+03  0.00000000000E+00 0. -1.
         22    1    1    2    0    0 -0.70707071618E+02 -0.35613493346E+03  0.10831333774E+04  0.11423701213E+04  0.00000000000E+00 0. -1.
<mgrwt>
<rscale>  0 0.86988077E+03</rscale>
<asrwt>0</asrwt>
<pdfrwt beam="1">  1        2 0.22537613E+00 0.86988077E+03</pdfrwt>
<pdfrwt beam="2">  1       -2 0.19866660E-01 0.86988077E+03</pdfrwt>
<totfact> 0.28846542E+02</totfact>
</mgrwt>
</event>
<event>
 6    1  0.2236204E-005  0.8037202E+03  0.7818608E-02  0.9554648E-01
         -2   -1    0    0    0  501 -0.00000000000E+00  0.00000000000E+00  0.13027577782E+03  0.13027577782E+03  0.00000000000E+00 0.  1.
          2   -1    0    0  501    0  0.00000000000E+00 -0.00000000000E+00 -0.12396128849E+04  0.12396128849E+04  0.00000000000E+00 0. -1.
         23    2    1    2    0    0 -0.33169231742E+03 -0.20573874597E+03 -0.44075417214E+03  0.59571079818E+03  0.90878434105E+02 0.  0.
         13    1    3    3    0    0 -0.30133352814E+03 -0.21230871028E+03 -0.39370784165E+03  0.53933546909E+03  0.00000000000E+00 0. -1.
        -13    1    3    3    0    0 -0.30358789288E+02  0.65699643161E+01 -0.47046330485E+02  0.56375329092E+02  0.00000000000E+00 0.  1.
         22    1    1    2    0    0  0.33169231742E+03  0.20573874597E+03 -0.66858293493E+03  0.77417786452E+03  0.00000000000E+00 0. -1.
<mgrwt>
<rscale>  0 0.80372018E+03</rscale>
<asrwt>0</asrwt>
<pdfrwt beam="1">  1        2 0.19070968E+00 0.80372018E+03</pdfrwt>
<pdfrwt beam="2">  1       -2 0.20042427E-01 0.80372018E+03</pdfrwt>
<totfact> 0.38377603E+02</totfact>
</mgrwt>
</event>
<event>
 6    1  0.2236204E-005  0.2725552E+04  0.7818608E-02  0.8326761E-01
         -2   -1    0    0    0  501 -0.00000000000E+00  0.00000000000E+00  0.15629534377E+04  0.15629534377E+04  0.00000000000E+00 0. -1.
          2   -1    0    0  501    0  0.00000000000E+00 -0.00000000000E+00 -0.11882367502E+04  0.11882367502E+04  0.00000000000E+00 0.  1.
         23    2    1    2    0    0 -0.41132336634E+02 -0.84931850237E+03 -0.88541859204E+03  0.12310011502E+04  0.91454694323E+02 0.  0.
         13    1    3    3    0    0 -0.50151736181E+02 -0.62326363852E+03 -0.69900114080E+03  0.93785678789E+03  0.00000000000E+00 0.  1.
        -13    1    3    3    0    0  0.90193995469E+01 -0.22605486385E+03 -0.18641745124E+03  0.29314436232E+03  0.00000000000E+00 0. -1.
         22    1    1    2    0    0  0.41132336634E+02  0.84931850237E+03  0.12601352795E+04  0.15201890377E+04  0.00000000000E+00 0. -1.
<mgrwt>
<rscale>  0 0.27255522E+04</rscale>
<asrwt>0</asrwt>
<pdfrwt beam="1">  1        2 0.18280565E+00 0.27255522E+04</pdfrwt>
<pdfrwt beam="2">  1       -2 0.24045438E+00 0.27255522E+04</pdfrwt>
<totfact> 0.12403379E+00</totfact>
</mgrwt>
</event>
<event>
 6    1  0.2236204E-005  0.2727682E+04  0.7818608E-02  0.8326079E-01
         -1   -1    0    0    0  501 -0.00000000000E+00  0.00000000000E+00  0.13568603463E+04  0.13568603463E+04  0.00000000000E+00 0.  1.
          1   -1    0    0  501    0  0.00000000000E+00 -0.00000000000E+00 -0.13708576028E+04  0.13708576028E+04  0.00000000000E+00 0. -1.
         23    2    1    2    0    0 -0.34314533937E+03  0.11865306718E+04  0.56770155401E+03  0.13624424218E+04  0.91435984089E+02 0.  0.
         13    1    3    3    0    0 -0.29458540078E+03  0.10028829923E+04  0.51539759926E+03  0.11654138921E+04  0.00000000000E+00 0.  1.
        -13    1    3    3    0    0 -0.48559938587E+02  0.18364767951E+03  0.52303954748E+02  0.19702852967E+03  0.00000000000E+00 0. -1.
         22    1    1    2    0    0  0.34314533937E+03 -0.11865306718E+04 -0.58169881056E+03  0.13652755273E+04  0.00000000000E+00 0. -1.
<mgrwt>
<rscale>  0 0.27276820E+04</rscale>
<asrwt>0</asrwt>
<pdfrwt beam="1">  1        1 0.21090117E+00 0.27276820E+04</pdfrwt>
<pdfrwt beam="2">  1       -1 0.20874775E+00 0.27276820E+04</pdfrwt>
<totfact> 0.91993360E-01</totfact>
</mgrwt>
</event>
<event>
 6    1  0.2236204E-005  0.2089750E+04  0.7818608E-02  0.8565772E-01
         -2   -1    0    0    0  501 -0.00000000000E+00  0.00000000000E+00  0.46865077980E+03  0.46865077980E+03  0.00000000000E+00 0.  1.
          2   -1    0    0  501    0  0.00000000000E+00 -0.00000000000E+00 -0.23295896390E+04  0.23295896390E+04  0.00000000000E+00 0. -1.
         23    2    1    2    0    0  0.99102756787E+03 -0.55073813939E+02 -0.50352795012E+03  0.11166539234E+04  0.90591516914E+02 0.  0.
         13    1    3    3    0    0  0.74257321662E+03 -0.57409013184E+02 -0.41682686166E+03  0.85349599263E+03  0.00000000000E+00 0.  1.
        -13    1    3    3    0    0  0.24845435125E+03  0.23351992448E+01 -0.86701088455E+02  0.26315793082E+03  0.00000000000E+00 0. -1.
         22    1    1    2    0    0 -0.99102756787E+03  0.55073813939E+02 -0.13574109091E+04  0.16815864953E+04  0.00000000000E+00 0. -1.
<mgrwt>
<rscale>  0 0.20897502E+04</rscale>
<asrwt>0</asrwt>
<pdfrwt beam="1">  1        2 0.35839841E+00 0.20897502E+04</pdfrwt>
<pdfrwt beam="2">  1       -2 0.72100120E-01 0.20897502E+04</pdfrwt>
<totfact> 0.70085829E+00</totfact>
</mgrwt>
</event>
<event>
 6    1  0.2236204E-005  0.1801845E+04  0.7818608E-02  0.8705319E-01
          2   -1    0    0  501    0  0.00000000000E+00  0.00000000000E+00  0.13692477041E+04  0.13692477041E+04  0.00000000000E+00 0. -1.
         -2   -1    0    0    0  501 -0.00000000000E+00 -0.00000000000E+00 -0.59277923357E+03  0.59277923357E+03  0.00000000000E+00 0.  1.
         23    2    1    2    0    0  0.37723757397E+03  0.23470398667E+03  0.12397759683E+04  0.13201172975E+04  0.90945472599E+02 0.  0.
         11    1    3    3    0    0  0.14306390903E+03  0.94745685221E+02  0.35606461072E+03  0.39525439143E+03  0.00000000000E+00 0. -1.
        -11    1    3    3    0    0  0.23417366493E+03  0.13995830145E+03  0.88371135759E+03  0.92486290607E+03  0.00000000000E+00 0.  1.
         22    1    1    2    0    0 -0.37723757397E+03 -0.23470398667E+03 -0.46330749781E+03  0.64190964013E+03  0.00000000000E+00 0.  1.
<mgrwt>
<rscale>  0 0.18018453E+04</rscale>
<asrwt>0</asrwt>
<pdfrwt beam="1">  1        2 0.21065349E+00 0.18018453E+04</pdfrwt>
<pdfrwt beam="2">  1       -2 0.91196805E-01 0.18018453E+04</pdfrwt>
<totfact> 0.14583646E+01</totfact>
</mgrwt>
</event>
<event>
 6    1  0.2236204E-005  0.5239551E+03  0.7818608E-02  0.1007709E+00
         -2   -1    0    0    0  501 -0.00000000000E+00  0.00000000000E+00  0.17207023213E+03  0.17207023213E+03  0.00000000000E+00 0.  1.
          2   -1    0    0  501    0  0.00000000000E+00 -0.00000000000E+00 -0.39886175575E+03  0.39886175575E+03  0.00000000000E+00 0. -1.
         23    2    1    2    0    0  0.16227355472E+03 -0.19605646497E+03 -0.12589338059E+03  0.29715967501E+03  0.87657772941E+02 0.  0.
         13    1    3    3    0    0  0.16105658379E+03 -0.15894186669E+03 -0.84475728128E+02  0.24153237632E+03  0.00000000000E+00 0.  1.
        -13    1    3    3    0    0  0.12169709312E+01 -0.37114598281E+02 -0.41417652463E+02  0.55627298688E+02  0.00000000000E+00 0. -1.
         22    1    1    2    0    0 -0.16227355472E+03  0.19605646497E+03 -0.10089814303E+03  0.27377231286E+03  0.00000000000E+00 0.  1.
<mgrwt>
<rscale>  0 0.52395509E+03</rscale>
<asrwt>0</asrwt>
<pdfrwt beam="1">  1        2 0.61363347E-01 0.52395509E+03</pdfrwt>
<pdfrwt beam="2">  1       -2 0.26472343E-01 0.52395509E+03</pdfrwt>
<totfact> 0.10323414E+03</totfact>
</mgrwt>
</event>
<event>
 6    1  0.2236204E-005  0.1963545E+04  0.7818608E-02  0.8623857E-01
         -2   -1    0    0    0  501 -0.00000000000E+00  0.00000000000E+00  0.33949091121E+03  0.33949091121E+03  0.00000000000E+00 0.  1.
          2   -1    0    0  501    0  0.00000000000E+00 -0.00000000000E+00 -0.28391831578E+04  0.28391831578E+04  0.00000000000E+00 0. -1.
         23    2    1    2    0    0 -0.62787649914E+03  0.36762872834E+03 -0.19110758176E+03  0.75814872629E+03  0.94274086114E+02 0.  0.
         13    1    3    3    0    0 -0.23321633983E+03  0.10484133166E+03 -0.10414854622E+03  0.27609506636E+03  0.00000000000E+00 0. -1.
        -13    1    3    3    0    0 -0.39466015930E+03  0.26278739668E+03 -0.86959035536E+02  0.48205365993E+03  0.00000000000E+00 0.  1.
         22    1    1    2    0    0  0.62787649914E+03 -0.36762872834E+03 -0.23085846648E+04  0.24205253427E+04  0.00000000000E+00 0. -1.
<mgrwt>
<rscale>  0 0.19635446E+04</rscale>
<asrwt>0</asrwt>
<pdfrwt beam="1">  1        2 0.43679742E+00 0.19635446E+04</pdfrwt>
<pdfrwt beam="2">  1       -2 0.52229370E-01 0.19635446E+04</pdfrwt>
<totfact> 0.70711874E+00</totfact>
</mgrwt>
</event>
<event>
 6    1  0.2236204E-005  0.3468036E+04  0.7818608E-02  0.8121407E-01
         -1   -1    0    0    0  501 -0.00000000000E+00  0.00000000000E+00  0.90183204532E+03  0.90183204532E+03  0.00000000000E+00 0.  1.
          1   -1    0    0  501    0  0.00000000000E+00 -0.00000000000E+00 -0.33341225351E+04  0.33341225351E+04  0.00000000000E+00 0. -1.
         23    2    1    2    0    0  0.25660358249E+03 -0.11361193643E+04 -0.27841980836E+04  0.30192164971E+04  0.85420602564E+02 0.  0.
         11    1    3    3    0    0  0.20094071037E+03 -0.76025447512E+03 -0.18032347323E+04  0.19672365226E+04  0.00000000000E+00 0.  1.
        -11    1    3    3    0    0  0.55662872117E+02 -0.37586488922E+03 -0.98096335130E+03  0.10519799746E+04  0.00000000000E+00 0. -1.
         22    1    1    2    0    0 -0.25660358249E+03  0.11361193643E+04  0.35190759386E+03  0.12167380832E+04  0.00000000000E+00 0.  1.
<mgrwt>
<rscale>  0 0.34680361E+04</rscale>
<asrwt>0</asrwt>
<pdfrwt beam="1">  1        1 0.51294192E+00 0.34680361E+04</pdfrwt>
<pdfrwt beam="2">  1       -1 0.13874339E+00 0.34680361E+04</pdfrwt>
<totfact> 0.11791674E-01</totfact>
</mgrwt>
</event>
<event>
 6    1  0.2236204E-005  0.2876250E+04  0.7818608E-02  0.8279979E-01
         -2   -1    0    0    0  501 -0.00000000000E+00  0.00000000000E+00  0.10769906027E+04  0.10769906027E+04  0.00000000000E+00 0. -1.
          2   -1    0    0  501    0  0.00000000000E+00 -0.00000000000E+00 -0.19203545466E+04  0.19203545466E+04  0.00000000000E+00 0.  1.
         23    2    1    2    0    0  0.43999952570E+03  0.13620071742E+04 -0.29348626014E+03  0.14640387245E+04  0.92801274748E+02 0.  0.
         11    1    3    3    0    0  0.25514340272E+03  0.71898206635E+03 -0.19804059432E+03  0.78819632369E+03  0.00000000000E+00 0. -1.
        -11    1    3    3    0    0  0.18485612298E+03  0.64302510789E+03 -0.95445665818E+02  0.67584240079E+03  0.00000000000E+00 0.  1.
         22    1    1    2    0    0 -0.43999952570E+03 -0.13620071742E+04 -0.54987768383E+03  0.15333064248E+04  0.00000000000E+00 0.  1.
<mgrwt>
<rscale>  0 0.28762502E+04</rscale>
<asrwt>0</asrwt>
<pdfrwt beam="1">  1        2 0.29543916E+00 0.28762502E+04</pdfrwt>
<pdfrwt beam="2">  1       -2 0.16569086E+00 0.28762502E+04</pdfrwt>
<totfact> 0.14643674E+00</totfact>
</mgrwt>
</event>
<event>
 6    1  0.2236204E-005  0.4172948E+04  0.7818608E-02  0.7970538E-01
         -2   -1    0    0    0  501 -0.00000000000E+00  0.00000000000E+00  0.19872474283E+04  0.19872474283E+04  0.00000000000E+00 0.  1.
          2   -1    0    0  501    0  0.00000000000E+00 -0.00000000000E+00 -0.21906545973E+04  0.21906545973E+04  0.00000000000E+00 0. -1.
         23    2    1    2    0    0 -0.10968334249E+04 -0.76246572761E+03  0.15015483385E+04  0.20119678553E+04  0.94708448018E+02 0.  0.
         13    1    3    3    0    0 -0.42852311615E+03 -0.32040684702E+03  0.66578941748E+03  0.85414762022E+03  0.00000000000E+00 0.  1.
        -13    1    3    3    0    0 -0.66831030875E+03 -0.44205888060E+03  0.83575892100E+03  0.11578202351E+04  0.00000000000E+00 0. -1.
         22    1    1    2    0    0  0.10968334249E+04  0.76246572761E+03 -0.17049555075E+04  0.21659341703E+04  0.00000000000E+00 0. -1.
<mgrwt>
<rscale>  0 0.41729475E+04</rscale>
<asrwt>0</asrwt>
<pdfrwt beam="1">  1        2 0.33702378E+00 0.41729475E+04</pdfrwt>
<pdfrwt beam="2">  1       -2 0.30573038E+00 0.41729475E+04</pdfrwt>
<totfact> 0.11919716E-01</totfact>
</mgrwt>
</event>
<event>
 6    1  0.2236204E-005  0.7477778E+03  0.7818608E-02  0.9638843E-01
          2   -1    0    0  501    0  0.00000000000E+00  0.00000000000E+00  0.40403374379E+03  0.40403374379E+03  0.00000000000E+00 0. -1.
         -2   -1    0    0    0  501 -0.00000000000E+00 -0.00000000000E+00 -0.34599315767E+03  0.34599315767E+03  0.00000000000E+00 0.  1.
         23    2    1    2    0    0 -0.30077372335E+03  0.21175829271E+03  0.14406653533E+02  0.37960777769E+03  0.92672034768E+02 0.  0.
         11    1    3    3    0    0 -0.23320244479E+03  0.12705081193E+03 -0.18926735006E+02  0.26623957325E+03  0.00000000000E+00 0.  1.
        -11    1    3    3    0    0 -0.67571278560E+02  0.84707480772E+02  0.33333388539E+02  0.11336820443E+03  0.00000000000E+00 0. -1.
         22    1    1    2    0    0  0.30077372335E+03 -0.21175829271E+03  0.43633932592E+02  0.37041912378E+03  0.00000000000E+00 0. -1.
<mgrwt>
<rscale>  0 0.74777780E+03</rscale>
<asrwt>0</asrwt>
<pdfrwt beam="1">  1        2 0.62159037E-01 0.74777780E+03</pdfrwt>
<pdfrwt beam="2">  1       -2 0.53229717E-01 0.74777780E+03</pdfrwt>
<totfact> 0.26387173E+02</totfact>
</mgrwt>
</event>
<event>
 6    1  0.2236204E-005  0.1956500E+04  0.7818608E-02  0.8627233E-01
         -4   -1    0    0    0  501 -0.00000000000E+00  0.00000000000E+00  0.40678371426E+03  0.40678371426E+03  0.00000000000E+00 0.  1.
          4   -1    0    0  501    0  0.00000000000E+00 -0.00000000000E+00 -0.23525358469E+04  0.23525358469E+04  0.00000000000E+00 0. -1.
         23    2    1    2    0    0  0.18664398609E+03  0.25261515491E+03 -0.22784153657E+04  0.23018097572E+04  0.92201873456E+02 0.  0.
         11    1    3    3    0    0  0.12795110340E+03  0.21495142362E+03 -0.15490609230E+04  0.15691288483E+04  0.00000000000E+00 0.  1.
        -11    1    3    3    0    0  0.58692882697E+02  0.37663731288E+02 -0.72935444276E+03  0.73268090893E+03  0.00000000000E+00 0. -1.
         22    1    1    2    0    0 -0.18664398609E+03 -0.25261515491E+03  0.33266323312E+03  0.45750980394E+03  0.00000000000E+00 0.  1.
<mgrwt>
<rscale>  0 0.19565002E+04</rscale>
<asrwt>0</asrwt>
<pdfrwt beam="1">  1        4 0.36192859E+00 0.19565002E+04</pdfrwt>
<pdfrwt beam="2">  1       -4 0.62582110E-01 0.19565002E+04</pdfrwt>
<totfact> 0.55485726E-02</totfact>
</mgrwt>
</event>
<event>
 6    1  0.2236204E-005  0.4690506E+04  0.7818608E-02  0.7878108E-01
         -2   -1    0    0    0  501 -0.00000000000E+00  0.00000000000E+00  0.17164751676E+04  0.17164751676E+04  0.00000000000E+00 0.  1.
          2   -1    0    0  501    0  0.00000000000E+00 -0.00000000000E+00 -0.32043639174E+04  0.32043639174E+04  0.00000000000E+00 0. -1.
         23    2    1    2    0    0 -0.11077782245E+04  0.10309040334E+04  0.11349199079E+04  0.18927933497E+04  0.68467119769E+02 0.  0.
         11    1    3    3    0    0 -0.10902691876E+03  0.80998191247E+02  0.11790682801E+03  0.17985993465E+03  0.00000000000E+00 0.  1.
        -11    1    3    3    0    0 -0.99875130579E+03  0.94990584213E+03  0.10170130799E+04  0.17129334150E+04  0.00000000000E+00 0. -1.
         22    1    1    2    0    0  0.11077782245E+04 -0.10309040334E+04 -0.26228086576E+04  0.30280457353E+04  0.00000000000E+00 0. -1.
<mgrwt>
<rscale>  0 0.46905058E+04</rscale>
<asrwt>0</asrwt>
<pdfrwt beam="1">  1        2 0.49297906E+00 0.46905058E+04</pdfrwt>
<pdfrwt beam="2">  1       -2 0.26407310E+00 0.46905058E+04</pdfrwt>
<totfact> 0.50591114E-02</totfact>
</mgrwt>
</event>
<event>
 6    1  0.2236204E-005  0.5073789E+04  0.7818608E-02  0.7817224E-01
          2   -1    0    0  501    0  0.00000000000E+00  0.00000000000E+00  0.20107451674E+04  0.20107451674E+04  0.00000000000E+00 0.  1.
         -2   -1    0    0    0  501 -0.00000000000E+00 -0.00000000000E+00 -0.32007212303E+04  0.32007212303E+04  0.00000000000E+00 0. -1.
         23    2    1    2    0    0  0.23761678521E+04  0.88400207441E+03 -0.65255387338E+03  0.26198537841E+04  0.10086606730E+03 0.  0.
         13    1    3    3    0    0  0.10580386915E+04  0.34557250244E+03 -0.30887355110E+03  0.11551056652E+04  0.00000000000E+00 0. -1.
        -13    1    3    3    0    0  0.13181291607E+04  0.53842957197E+03 -0.34368032229E+03  0.14647481190E+04  0.00000000000E+00 0.  1.
         22    1    1    2    0    0 -0.23761678521E+04 -0.88400207441E+03 -0.53742218956E+03  0.25916126136E+04  0.00000000000E+00 0. -1.
<mgrwt>
<rscale>  0 0.50737894E+04</rscale>
<asrwt>0</asrwt>
<pdfrwt beam="1">  1        2 0.30934541E+00 0.50737894E+04</pdfrwt>
<pdfrwt beam="2">  1       -2 0.49241865E+00 0.50737894E+04</pdfrwt>
<totfact> 0.88324992E-03</totfact>
</mgrwt>
</event>
<event>
 6    1  0.2236204E-005  0.2314441E+04  0.7818608E-02  0.8472249E-01
         -2   -1    0    0    0  501 -0.00000000000E+00  0.00000000000E+00  0.92488498384E+03  0.92488498384E+03  0.00000000000E+00 0. -1.
          2   -1    0    0  501    0  0.00000000000E+00 -0.00000000000E+00 -0.14479199948E+04  0.14479199948E+04  0.00000000000E+00 0.  1.
         23    2    1    2    0    0 -0.30528479528E+03  0.50715475443E+03  0.75543193604E+03  0.96394640315E+03  0.90058353216E+02 0.  0.
         11    1    3    3    0    0 -0.13944162362E+03  0.31780371458E+03  0.43648195861E+03  0.55763757727E+03  0.00000000000E+00 0. -1.
        -11    1    3    3    0    0 -0.16584317167E+03  0.18935103985E+03  0.31894997743E+03  0.40630882588E+03  0.00000000000E+00 0.  1.
         22    1    1    2    0    0  0.30528479528E+03 -0.50715475443E+03 -0.12784669470E+04  0.14088585755E+04  0.00000000000E+00 0.  1.
<mgrwt>
<rscale>  0 0.23144412E+04</rscale>
<asrwt>0</asrwt>
<pdfrwt beam="1">  1        2 0.22275692E+00 0.23144412E+04</pdfrwt>
<pdfrwt beam="2">  1       -2 0.14229000E+00 0.23144412E+04</pdfrwt>
<totfact> 0.42367166E+00</totfact>
</mgrwt>
</event>
<event>
 6    1  0.2236204E-005  0.2329522E+04  0.7818608E-02  0.8466371E-01
          2   -1    0    0  501    0  0.00000000000E+00  0.00000000000E+00  0.25827728695E+04  0.25827728695E+04  0.00000000000E+00 0. -1.
         -2   -1    0    0    0  501 -0.00000000000E+00 -0.00000000000E+00 -0.52527597115E+03  0.52527597115E+03  0.00000000000E+00 0.  1.
         23    2    1    2    0    0  0.49437806203E+03 -0.48232428217E+03 -0.21812367005E+03  0.72992030067E+03  0.90329001520E+02 0.  0.
         11    1    3    3    0    0  0.40878192337E+03 -0.35963246117E+03 -0.19614508407E+03  0.57871500931E+03  0.00000000000E+00 0.  1.
        -11    1    3    3    0    0  0.85596138657E+02 -0.12269182100E+03 -0.21978585979E+02  0.15120529136E+03  0.00000000000E+00 0. -1.
         22    1    1    2    0    0 -0.49437806203E+03  0.48232428217E+03  0.22756205684E+04  0.23781285400E+04  0.00000000000E+00 0. -1.
<mgrwt>
<rscale>  0 0.23295223E+04</rscale>
<asrwt>0</asrwt>
<pdfrwt beam="1">  1        2 0.39734967E+00 0.23295223E+04</pdfrwt>
<pdfrwt beam="2">  1       -2 0.80811689E-01 0.23295223E+04</pdfrwt>
<totfact> 0.38067129E+00</totfact>
</mgrwt>
</event>
<event>
 6    1  0.2236204E-005  0.2617192E+04  0.7818608E-02  0.8362385E-01
         -2   -1    0    0    0  501 -0.00000000000E+00  0.00000000000E+00  0.25407753214E+04  0.25407753214E+04  0.00000000000E+00 0.  1.
          2   -1    0    0  501    0  0.00000000000E+00 -0.00000000000E+00 -0.67397678546E+03  0.67397678546E+03  0.00000000000E+00 0. -1.
         23    2    1    2    0    0 -0.11280095763E+04  0.25108771737E+03  0.16845000233E+04  0.20448446773E+04  0.91644856763E+02 0.  0.
         13    1    3    3    0    0 -0.31076969145E+03  0.63133684768E+02  0.39311183643E+03  0.50507482537E+03  0.00000000000E+00 0. -1.
        -13    1    3    3    0    0 -0.81723988486E+03  0.18795403260E+03  0.12913881869E+04  0.15397698519E+04  0.00000000000E+00 0.  1.
         22    1    1    2    0    0  0.11280095763E+04 -0.25108771737E+03  0.18229851267E+03  0.11699074296E+04  0.00000000000E+00 0. -1.
<mgrwt>
<rscale>  0 0.26171921E+04</rscale>
<asrwt>0</asrwt>
<pdfrwt beam="1">  1        2 0.10368874E+00 0.26171921E+04</pdfrwt>
<pdfrwt beam="2">  1       -2 0.39088851E+00 0.26171921E+04</pdfrwt>
<totfact> 0.32311929E-01</totfact>
</mgrwt>
</event>
<event>
 6    1  0.2236204E-005  0.1682500E+04  0.7818608E-02  0.8771408E-01
          2   -1    0    0  501    0  0.00000000000E+00  0.00000000000E+00  0.30716891111E+04  0.30716891111E+04  0.00000000000E+00 0. -1.
         -2   -1    0    0    0  501 -0.00000000000E+00 -0.00000000000E+00 -0.23039500953E+03  0.23039500953E+03  0.00000000000E+00 0.  1.
         23    2    1    2    0    0 -0.64171363148E+03  0.22551106893E+03  0.46182155169E+03  0.82730307118E+03  0.92193269542E+02 0.  0.
         13    1    3    3    0    0 -0.26755988910E+03  0.68699682179E+02  0.23398508609E+03  0.36201790163E+03  0.00000000000E+00 0.  1.
        -13    1    3    3    0    0 -0.37415374238E+03  0.15681138675E+03  0.22783646560E+03  0.46528516955E+03  0.00000000000E+00 0. -1.
         22    1    1    2    0    0  0.64171363148E+03 -0.22551106893E+03  0.23794725499E+04  0.24747810494E+04  0.00000000000E+00 0. -1.
<mgrwt>
<rscale>  0 0.16825003E+04</rscale>
<asrwt>0</asrwt>
<pdfrwt beam="1">  1        2 0.47256753E+00 0.16825003E+04</pdfrwt>
<pdfrwt beam="2">  1       -2 0.35445388E-01 0.16825003E+04</pdfrwt>
<totfact> 0.11240325E+01</totfact>
</mgrwt>
</event>
<event>
 6    1  0.2236204E-005  0.1167327E+04  0.7818608E-02  0.9141946E-01
          2   -1    0    0  501    0  0.00000000000E+00  0.00000000000E+00  0.19256284873E+03  0.19256284873E+03  0.00000000000E+00 0. -1.
         -2   -1    0    0    0  501 -0.00000000000E+00 -0.00000000000E+00 -0.17691015570E+04  0.17691015570E+04  0.00000000000E+00 0.  1.
         23    2    1    2    0    0 -0.15336942553E+03 -0.25640228011E+03  0.42511761810E+02  0.31527783674E+03  0.91260914488E+02 0.  0.
         11    1    3    3    0    0 -0.11595949138E+03 -0.10498150631E+03  0.20552209045E+02  0.15776600903E+03  0.00000000000E+00 0. -1.
        -11    1    3    3    0    0 -0.37409934150E+02 -0.15142077380E+03  0.21959552764E+02  0.15751182771E+03  0.00000000000E+00 0.  1.
         22    1    1    2    0    0  0.15336942553E+03  0.25640228011E+03 -0.16190504700E+04  0.16463865690E+04  0.00000000000E+00 0.  1.
<mgrwt>
<rscale>  0 0.11673273E+04</rscale>
<asrwt>0</asrwt>
<pdfrwt beam="1">  1        2 0.29625054E-01 0.11673273E+04</pdfrwt>
<pdfrwt beam="2">  1       -2 0.27216947E+00 0.11673273E+04</pdfrwt>
<totfact> 0.84454896E+00</totfact>
</mgrwt>
</event>
<event>
 6    1  0.2236204E-005  0.3655953E+04  0.7818608E-02  0.8077794E-01
         -2   -1    0    0    0  501 -0.00000000000E+00  0.00000000000E+00  0.13212432970E+04  0.13212432970E+04  0.00000000000E+00 0.  1.
          2   -1    0    0  501    0  0.00000000000E+00 -0.00000000000E+00 -0.25290563007E+04  0.25290563007E+04  0.00000000000E+00 0. -1.
         23    2    1    2    0    0 -0.15843684780E+04 -0.10709631646E+03 -0.15554082045E+04  0.22247180038E+04  0.91555550040E+02 0.  0.
         11    1    3    3    0    0 -0.43820815296E+03 -0.51129607197E+02 -0.38388376850E+03  0.58481396167E+03  0.00000000000E+00 0.  1.
        -11    1    3    3    0    0 -0.11461603250E+04 -0.55966709261E+02 -0.11715244360E+04  0.16399040421E+04  0.00000000000E+00 0. -1.
         22    1    1    2    0    0  0.15843684780E+04  0.10709631646E+03  0.34759520083E+03  0.16255815940E+04  0.00000000000E+00 0.  1.
<mgrwt>
<rscale>  0 0.36559533E+04</rscale>
<asrwt>0</asrwt>
<pdfrwt beam="1">  1        2 0.38908558E+00 0.36559533E+04</pdfrwt>
<pdfrwt beam="2">  1       -2 0.20326820E+00 0.36559533E+04</pdfrwt>
<totfact> 0.34389944E-01</totfact>
</mgrwt>
</event>
<event>
 6    1  0.2236204E-005  0.6128010E+03  0.7818608E-02  0.9879198E-01
         -2   -1    0    0    0  501 -0.00000000000E+00  0.00000000000E+00  0.10844086459E+03  0.10844086459E+03  0.00000000000E+00 0.  1.
          2   -1    0    0  501    0  0.00000000000E+00 -0.00000000000E+00 -0.86573686716E+03  0.86573686716E+03  0.00000000000E+00 0. -1.
         23    2    1    2    0    0 -0.27350880491E+03 -0.11409417527E+03 -0.31310424291E+03  0.44020126547E+03  0.88985054945E+02 0.  0.
         11    1    3    3    0    0 -0.95868524240E+02  0.12620895985E+01 -0.11982099395E+03  0.15345825948E+03  0.00000000000E+00 0. -1.
        -11    1    3    3    0    0 -0.17764028067E+03 -0.11535626487E+03 -0.19328324896E+03  0.28674300600E+03  0.00000000000E+00 0.  1.
         22    1    1    2    0    0  0.27350880491E+03  0.11409417527E+03 -0.44419175966E+03  0.53397646628E+03  0.00000000000E+00 0. -1.
<mgrwt>
<rscale>  0 0.61280096E+03</rscale>
<asrwt>0</asrwt>
<pdfrwt beam="1">  1        2 0.13319029E+00 0.61280096E+03</pdfrwt>
<pdfrwt beam="2">  1       -2 0.16683210E-01 0.61280096E+03</pdfrwt>
<totfact> 0.91020233E+02</totfact>
</mgrwt>
</event>
<event>
 6    1  0.2437942E-005  0.3856273E+04  0.7818608E-02  0.8034185E-01
         -2   -1    0    0    0  501 -0.00000000000E+00  0.00000000000E+00  0.16662854039E+04  0.16662854039E+04  0.00000000000E+00 0.  1.
          2   -1    0    0  501    0  0.00000000000E+00 -0.00000000000E+00 -0.22311369575E+04  0.22311369575E+04  0.00000000000E+00 0. -1.
         23    2    1    2    0    0  0.13400772542E+04  0.93127404277E+03  0.75324693391E+03  0.17996945399E+04  0.91875478909E+02 0.  0.
         13    1    3    3    0    0  0.34030307427E+03  0.28449321327E+03  0.21623435214E+03  0.49345705568E+03  0.00000000000E+00 0. -1.
        -13    1    3    3    0    0  0.99977417996E+03  0.64678082950E+03  0.53701258177E+03  0.13062374843E+04  0.00000000000E+00 0.  1.
         22    1    1    2    0    0 -0.13400772542E+04 -0.93127404277E+03 -0.13180984875E+04  0.20977278214E+04  0.00000000000E+00 0. -1.
<mgrwt>
<rscale>  0 0.38562733E+04</rscale>
<asrwt>0</asrwt>
<pdfrwt beam="1">  1        2 0.34325184E+00 0.38562733E+04</pdfrwt>
<pdfrwt beam="2">  1       -2 0.25635160E+00 0.38562733E+04</pdfrwt>
<totfact> 0.23251674E-01</totfact>
</mgrwt>
</event>
<event>
 6    1  0.2236204E-005  0.2052935E+04  0.7818608E-02  0.8582264E-01
         -2   -1    0    0    0  501 -0.00000000000E+00  0.00000000000E+00  0.95137905647E+03  0.95137905647E+03  0.00000000000E+00 0.  1.
          2   -1    0    0  501    0  0.00000000000E+00 -0.00000000000E+00 -0.11074825618E+04  0.11074825618E+04  0.00000000000E+00 0. -1.
         23    2    1    2    0    0 -0.46592365178E+03  0.55852947950E+03 -0.80195394912E+03  0.10861526049E+04  0.86932824131E+02 0.  0.
         13    1    3    3    0    0 -0.16709586247E+03  0.19087903766E+03 -0.34214913988E+03  0.42593646028E+03  0.00000000000E+00 0. -1.
        -13    1    3    3    0    0 -0.29882778931E+03  0.36765044184E+03 -0.45980480924E+03  0.66021614464E+03  0.00000000000E+00 0.  1.
         22    1    1    2    0    0  0.46592365178E+03 -0.55852947950E+03  0.64585044383E+03  0.97270901330E+03  0.00000000000E+00 0.  1.
<mgrwt>
<rscale>  0 0.20529352E+04</rscale>
<asrwt>0</asrwt>
<pdfrwt beam="1">  1        2 0.17038193E+00 0.20529352E+04</pdfrwt>
<pdfrwt beam="2">  1       -2 0.14636601E+00 0.20529352E+04</pdfrwt>
<totfact> 0.63750724E+00</totfact>
</mgrwt>
</event>
<event>
 6    1  0.2236204E-005  0.6781451E+04  0.7818608E-02  0.7600404E-01
         -2   -1    0    0    0  501 -0.00000000000E+00  0.00000000000E+00  0.36078139330E+04  0.36078139330E+04  0.00000000000E+00 0.  1.
          2   -1    0    0  501    0  0.00000000000E+00 -0.00000000000E+00 -0.31866994581E+04  0.31866994581E+04  0.00000000000E+00 0. -1.
         23    2    1    2    0    0  0.63545219793E+03  0.21977107687E+03  0.35396587676E+04  0.36043069202E+04  0.98718601648E+02 0.  0.
         13    1    3    3    0    0  0.27904476418E+03  0.11506996090E+03  0.13469614948E+04  0.13803667428E+04  0.00000000000E+00 0.  1.
        -13    1    3    3    0    0  0.35640743375E+03  0.10470111597E+03  0.21926972728E+04  0.22239401774E+04  0.00000000000E+00 0. -1.
         22    1    1    2    0    0 -0.63545219793E+03 -0.21977107687E+03 -0.31185442926E+04  0.31902064709E+04  0.00000000000E+00 0. -1.
<mgrwt>
<rscale>  0 0.67814508E+04</rscale>
<asrwt>0</asrwt>
<pdfrwt beam="1">  1        2 0.49026146E+00 0.67814508E+04</pdfrwt>
<pdfrwt beam="2">  1       -2 0.55504830E+00 0.67814508E+04</pdfrwt>
<totfact> 0.69056927E-04</totfact>
</mgrwt>
</event>
<event>
 6    1  0.2236204E-005  0.3692702E+04  0.7818608E-02  0.8069581E-01
         -2   -1    0    0    0  501 -0.00000000000E+00  0.00000000000E+00  0.10143579356E+04  0.10143579356E+04  0.00000000000E+00 0. -1.
          2   -1    0    0  501    0  0.00000000000E+00 -0.00000000000E+00 -0.33607582088E+04  0.33607582088E+04  0.00000000000E+00 0.  1.
         23    2    1    2    0    0  0.87224064479E+02 -0.43442867716E+03 -0.32961873824E+04  0.33270551414E+04  0.90046327865E+02 0.  0.
         11    1    3    3    0    0  0.43070565203E+02 -0.14719661358E+03 -0.85676259436E+03  0.87038155985E+03  0.00000000000E+00 0.  1.
        -11    1    3    3    0    0  0.44153499276E+02 -0.28723206358E+03 -0.24394247881E+04  0.24566735816E+04  0.00000000000E+00 0. -1.
         22    1    1    2    0    0 -0.87224064479E+02  0.43442867716E+03  0.94978710927E+03  0.10480610029E+04  0.00000000000E+00 0. -1.
<mgrwt>
<rscale>  0 0.36927019E+04</rscale>
<asrwt>0</asrwt>
<pdfrwt beam="1">  1        2 0.51703972E+00 0.36927019E+04</pdfrwt>
<pdfrwt beam="2">  1       -2 0.15605507E+00 0.36927019E+04</pdfrwt>
<totfact> 0.22074414E-01</totfact>
</mgrwt>
</event>
<event>
 6    1  0.2236204E-005  0.2174680E+04  0.7818608E-02  0.8529041E-01
          2   -1    0    0  501    0  0.00000000000E+00  0.00000000000E+00  0.12679072976E+04  0.12679072976E+04  0.00000000000E+00 0.  1.
         -2   -1    0    0    0  501 -0.00000000000E+00 -0.00000000000E+00 -0.93248780599E+03  0.93248780599E+03  0.00000000000E+00 0. -1.
         23    2    1    2    0    0 -0.55743048975E+03  0.90640062090E+03 -0.48555395302E+02  0.10691446670E+04  0.91770671538E+02 0.  0.
         13    1    3    3    0    0 -0.43618531625E+03  0.67798296499E+03 -0.83042671192E+00  0.80617567598E+03  0.00000000000E+00 0. -1.
        -13    1    3    3    0    0 -0.12124517350E+03  0.22841765591E+03 -0.47724968590E+02  0.26296899105E+03  0.00000000000E+00 0.  1.
         22    1    1    2    0    0  0.55743048975E+03 -0.90640062090E+03  0.38397488694E+03  0.11312504366E+04  0.00000000000E+00 0. -1.
<mgrwt>
<rscale>  0 0.21746798E+04</rscale>
<asrwt>0</asrwt>
<pdfrwt beam="1">  1        2 0.19506266E+00 0.21746798E+04</pdfrwt>
<pdfrwt beam="2">  1       -2 0.14345966E+00 0.21746798E+04</pdfrwt>
<totfact> 0.53291519E+00</totfact>
</mgrwt>
</event>
<event>
 6    1  0.2236204E-005  0.2879777E+04  0.7818608E-02  0.8278920E-01
         -2   -1    0    0    0  501 -0.00000000000E+00  0.00000000000E+00  0.15113597688E+04  0.15113597688E+04  0.00000000000E+00 0.  1.
          2   -1    0    0  501    0  0.00000000000E+00 -0.00000000000E+00 -0.13717971753E+04  0.13717971753E+04  0.00000000000E+00 0. -1.
         23    2    1    2    0    0 -0.13906797351E+04  0.31613313081E+03 -0.11868024962E+03  0.14338054864E+04  0.88220683932E+02 0.  0.
         13    1    3    3    0    0 -0.55885569592E+03  0.83048508415E+02 -0.51423430833E+02  0.56732804694E+03  0.00000000000E+00 0. -1.
        -13    1    3    3    0    0 -0.83182403923E+03  0.23308462239E+03 -0.67256818783E+02  0.86647743947E+03  0.00000000000E+00 0.  1.
         22    1    1    2    0    0  0.13906797351E+04 -0.31613313081E+03  0.25824284312E+03  0.14493514578E+04  0.00000000000E+00 0. -1.
<mgrwt>
<rscale>  0 0.28797771E+04</rscale>
<asrwt>0</asrwt>
<pdfrwt beam="1">  1        2 0.21104572E+00 0.28797771E+04</pdfrwt>
<pdfrwt beam="2">  1       -2 0.23251689E+00 0.28797771E+04</pdfrwt>
<totfact> 0.10707346E+00</totfact>
</mgrwt>
</event>
<event>
 6    1  0.2236204E-005  0.3219369E+04  0.7818608E-02  0.8183721E-01
          2   -1    0    0  501    0  0.00000000000E+00  0.00000000000E+00  0.17388220483E+04  0.17388220483E+04  0.00000000000E+00 0. -1.
         -2   -1    0    0    0  501 -0.00000000000E+00 -0.00000000000E+00 -0.14901372156E+04  0.14901372156E+04  0.00000000000E+00 0.  1.
         23    2    1    2    0    0  0.13905802114E+04  0.25689200349E+03  0.89303625638E+03  0.16749658331E+04  0.91049223459E+02 0.  0.
         13    1    3    3    0    0  0.54693488065E+03  0.14583488029E+03  0.36494117926E+03  0.67348915381E+03  0.00000000000E+00 0.  1.
        -13    1    3    3    0    0  0.84364533073E+03  0.11105712321E+03  0.52809507713E+03  0.10014766793E+04  0.00000000000E+00 0. -1.
         22    1    1    2    0    0 -0.13905802114E+04 -0.25689200349E+03 -0.64435142368E+03  0.15539934308E+04  0.00000000000E+00 0.  1.
<mgrwt>
<rscale>  0 0.32193685E+04</rscale>
<asrwt>0</asrwt>
<pdfrwt beam="1">  1        2 0.26751109E+00 0.32193685E+04</pdfrwt>
<pdfrwt beam="2">  1       -2 0.22925188E+00 0.32193685E+04</pdfrwt>
<totfact> 0.67805795E-01</totfact>
</mgrwt>
</event>
<event>
 6    1  0.3942925E-005  0.4677160E+04  0.7818608E-02  0.7880335E-01
         -2   -1    0    0    0  501 -0.00000000000E+00  0.00000000000E+00  0.17850010209E+04  0.17850010209E+04  0.00000000000E+00 0.  1.
          2   -1    0    0  501    0  0.00000000000E+00 -0.00000000000E+00 -0.30638396813E+04  0.30638396813E+04  0.00000000000E+00 0. -1.
         23    2    1    2    0    0  0.38465301138E+03  0.21839389336E+04 -0.14065961486E+04  0.26276092463E+04  0.90941856674E+02 0.  0.
         13    1    3    3    0    0  0.15636772783E+03  0.10450486212E+04 -0.62708812332E+03  0.12287461094E+04  0.00000000000E+00 0. -1.
        -13    1    3    3    0    0  0.22828528355E+03  0.11388903123E+04 -0.77950802523E+03  0.13988631369E+04  0.00000000000E+00 0.  1.
         22    1    1    2    0    0 -0.38465301138E+03 -0.21839389336E+04  0.12775748812E+03  0.22212314559E+04  0.00000000000E+00 0.  1.
<mgrwt>
<rscale>  0 0.46771602E+04</rscale>
<asrwt>0</asrwt>
<pdfrwt beam="1">  1        2 0.47135995E+00 0.46771602E+04</pdfrwt>
<pdfrwt beam="2">  1       -2 0.27461554E+00 0.46771602E+04</pdfrwt>
<totfact> 0.53804143E-02</totfact>
</mgrwt>
</event>
<event>
 6    1  0.2236204E-005  0.5908597E+03  0.7818608E-02  0.9924553E-01
         -2   -1    0    0    0  501 -0.00000000000E+00  0.00000000000E+00  0.14402609129E+03  0.14402609129E+03  0.00000000000E+00 0.  1.
          2   -1    0    0  501    0  0.00000000000E+00 -0.00000000000E+00 -0.60599293650E+03  0.60599293650E+03  0.00000000000E+00 0. -1.
         23    2    1    2    0    0 -0.13943705501E+03  0.11008555035E+02  0.82970354986E+02  0.18741754116E+03  0.93152425280E+02 0.  0.
         11    1    3    3    0    0 -0.90803035882E+02 -0.86365660567E+01  0.23584338245E+01  0.91243321995E+02  0.00000000000E+00 0. -1.
        -11    1    3    3    0    0 -0.48634019126E+02  0.19645121092E+02  0.80611921162E+02  0.96174219168E+02  0.00000000000E+00 0.  1.
         22    1    1    2    0    0  0.13943705501E+03 -0.11008555035E+02 -0.54493720020E+03  0.56260148663E+03  0.00000000000E+00 0. -1.
<mgrwt>
<rscale>  0 0.59085969E+03</rscale>
<asrwt>0</asrwt>
<pdfrwt beam="1">  1        2 0.93229683E-01 0.59085969E+03</pdfrwt>
<pdfrwt beam="2">  1       -2 0.22157860E-01 0.59085969E+03</pdfrwt>
<totfact> 0.87621929E+02</totfact>
</mgrwt>
</event>
<event>
 6    1  0.2236204E-005  0.2577014E+04  0.7818608E-02  0.8376051E-01
          2   -1    0    0  501    0  0.00000000000E+00  0.00000000000E+00  0.18890262351E+04  0.18890262351E+04  0.00000000000E+00 0.  1.
         -2   -1    0    0    0  501 -0.00000000000E+00 -0.00000000000E+00 -0.87889229949E+03  0.87889229949E+03  0.00000000000E+00 0. -1.
         23    2    1    2    0    0  0.89893301443E+02  0.12597765041E+04  0.24044275217E+03  0.12888843349E+04  0.91062975655E+02 0.  0.
         13    1    3    3    0    0  0.34367085079E+02  0.99904643041E+03  0.18544291331E+03  0.10166926481E+04  0.00000000000E+00 0. -1.
        -13    1    3    3    0    0  0.55526216364E+02  0.26073007374E+03  0.54999838854E+02  0.27219168674E+03  0.00000000000E+00 0.  1.
         22    1    1    2    0    0 -0.89893301443E+02 -0.12597765041E+04  0.76969118339E+03  0.14790341997E+04  0.00000000000E+00 0. -1.
<mgrwt>
<rscale>  0 0.25770143E+04</rscale>
<asrwt>0</asrwt>
<pdfrwt beam="1">  1        2 0.29061942E+00 0.25770143E+04</pdfrwt>
<pdfrwt beam="2">  1       -2 0.13521420E+00 0.25770143E+04</pdfrwt>
<totfact> 0.26817797E+00</totfact>
</mgrwt>
</event>
<event>
 6    1  0.2236204E-005  0.2425672E+04  0.7818608E-02  0.8429954E-01
         -2   -1    0    0    0  501 -0.00000000000E+00  0.00000000000E+00  0.11861098807E+04  0.11861098807E+04  0.00000000000E+00 0.  1.
          2   -1    0    0  501    0  0.00000000000E+00 -0.00000000000E+00 -0.12401645603E+04  0.12401645603E+04  0.00000000000E+00 0. -1.
         23    2    1    2    0    0  0.12561775145E+03 -0.11497592081E+04 -0.38661817683E+03  0.12228108828E+04  0.89815279904E+02 0.  0.
         13    1    3    3    0    0  0.13845216996E+02 -0.41061678093E+03 -0.10574133200E+03  0.42423939009E+03  0.00000000000E+00 0.  1.
        -13    1    3    3    0    0  0.11177253445E+03 -0.73914242715E+03 -0.28087684483E+03  0.79857149275E+03  0.00000000000E+00 0. -1.
         22    1    1    2    0    0 -0.12561775145E+03  0.11497592081E+04  0.33256349729E+03  0.12034635581E+04  0.00000000000E+00 0.  1.
<mgrwt>
<rscale>  0 0.24256722E+04</rscale>
<asrwt>0</asrwt>
<pdfrwt beam="1">  1        2 0.19079455E+00 0.24256722E+04</pdfrwt>
<pdfrwt beam="2">  1       -2 0.18247844E+00 0.24256722E+04</pdfrwt>
<totfact> 0.28044417E+00</totfact>
</mgrwt>
</event>
<event>
 6    1  0.2236204E-005  0.1086052E+04  0.7818608E-02  0.9218894E-01
         -2   -1    0    0    0  501 -0.00000000000E+00  0.00000000000E+00  0.25361127441E+03  0.25361127441E+03  0.00000000000E+00 0.  1.
          2   -1    0    0  501    0  0.00000000000E+00 -0.00000000000E+00 -0.11627133797E+04  0.11627133797E+04  0.00000000000E+00 0. -1.
         23    2    1    2    0    0  0.60915776607E+02 -0.50269997516E+03 -0.69928797201E+03  0.86820061034E+03  0.91381809557E+02 0.  0.
         11    1    3    3    0    0  0.61160747524E+02 -0.18759991467E+03 -0.23145545941E+03  0.30414798161E+03  0.00000000000E+00 0. -1.
        -11    1    3    3    0    0 -0.24497091753E+00 -0.31510006049E+03 -0.46783251260E+03  0.56405262873E+03  0.00000000000E+00 0.  1.
         22    1    1    2    0    0 -0.60915776607E+02  0.50269997516E+03 -0.20981413330E+03  0.54812404381E+03  0.00000000000E+00 0. -1.
<mgrwt>
<rscale>  0 0.10860520E+04</rscale>
<asrwt>0</asrwt>
<pdfrwt beam="1">  1        2 0.17887898E+00 0.10860520E+04</pdfrwt>
<pdfrwt beam="2">  1       -2 0.39017119E-01 0.10860520E+04</pdfrwt>
<totfact> 0.12295433E+02</totfact>
</mgrwt>
</event>
<event>
 6    1  0.2236204E-005  0.1852284E+04  0.7818608E-02  0.8678979E-01
         -2   -1    0    0    0  501 -0.00000000000E+00  0.00000000000E+00  0.98179979405E+03  0.98179979405E+03  0.00000000000E+00 0.  1.
          2   -1    0    0  501    0  0.00000000000E+00 -0.00000000000E+00 -0.87363942373E+03  0.87363942373E+03  0.00000000000E+00 0. -1.
         23    2    1    2    0    0  0.19803485631E+03  0.74296174982E+03  0.56670813858E+03  0.96018728577E+03  0.97936425319E+02 0.  0.
         11    1    3    3    0    0  0.94823687530E+02  0.43318900598E+03  0.27117864660E+03  0.51979044334E+03  0.00000000000E+00 0. -1.
        -11    1    3    3    0    0  0.10321116878E+03  0.30977274384E+03  0.29552949197E+03  0.44039684242E+03  0.00000000000E+00 0.  1.
         22    1    1    2    0    0 -0.19803485631E+03 -0.74296174982E+03 -0.45854776825E+03  0.89525193202E+03  0.00000000000E+00 0. -1.
<mgrwt>
<rscale>  0 0.18522840E+04</rscale>
<asrwt>0</asrwt>
<pdfrwt beam="1">  1        2 0.13440607E+00 0.18522840E+04</pdfrwt>
<pdfrwt beam="2">  1       -2 0.15104612E+00 0.18522840E+04</pdfrwt>
<totfact> 0.84491095E+00</totfact>
</mgrwt>
</event>
<event>
 6    1  0.2236204E-005  0.4852920E+03  0.7818608E-02  0.1017691E+00
         -2   -1    0    0    0  501 -0.00000000000E+00  0.00000000000E+00  0.22769034510E+02  0.22769034510E+02  0.00000000000E+00 0.  1.
          2   -1    0    0  501    0  0.00000000000E+00 -0.00000000000E+00 -0.25858399379E+04  0.25858399379E+04  0.00000000000E+00 0. -1.
         23    2    1    2    0    0 -0.53957451967E+02  0.22168139141E+03 -0.16093778882E+04  0.16280048662E+04  0.90821866201E+02 0.  0.
         13    1    3    3    0    0 -0.57000255106E+02  0.62073498814E+02 -0.64918831766E+03  0.65463548645E+03  0.00000000000E+00 0.  1.
        -13    1    3    3    0    0  0.30428031388E+01  0.15960789260E+03 -0.96018957058E+03  0.97336937978E+03  0.00000000000E+00 0. -1.
         22    1    1    2    0    0  0.53957451967E+02 -0.22168139141E+03 -0.95369301518E+03  0.98060410621E+03  0.00000000000E+00 0.  1.
<mgrwt>
<rscale>  0 0.48529199E+03</rscale>
<asrwt>0</asrwt>
<pdfrwt beam="1">  1        2 0.39782129E+00 0.48529199E+03</pdfrwt>
<pdfrwt beam="2">  1       -2 0.35029305E-02 0.48529199E+03</pdfrwt>
<totfact> 0.11782913E+03</totfact>
</mgrwt>
</event>
<event>
 6    1  0.2236204E-005  0.1928835E+04  0.7818608E-02  0.8640635E-01
          1   -1    0    0  501    0  0.00000000000E+00  0.00000000000E+00  0.43740746304E+03  0.43740746304E+03  0.00000000000E+00 0. -1.
         -1   -1    0    0    0  501 -0.00000000000E+00 -0.00000000000E+00 -0.21263942096E+04  0.21263942096E+04  0.00000000000E+00 0.  1.
         23    2    1    2    0    0 -0.49596666409E+03  0.44776991241E+03 -0.17668012482E+04  0.18910937694E+04  0.90377915805E+02 0.  0.
         13    1    3    3    0    0 -0.81023825203E+02  0.12291563507E+03 -0.39785901647E+03  0.42422271342E+03  0.00000000000E+00 0. -1.
        -13    1    3    3    0    0 -0.41494283889E+03  0.32485427734E+03 -0.13689422317E+04  0.14668710560E+04  0.00000000000E+00 0.  1.
         22    1    1    2    0    0  0.49596666409E+03 -0.44776991241E+03  0.77814501680E+02  0.67270790320E+03  0.00000000000E+00 0. -1.
<mgrwt>
<rscale>  0 0.19288346E+04</rscale>
<asrwt>0</asrwt>
<pdfrwt beam="1">  1        1 0.67293455E-01 0.19288346E+04</pdfrwt>
<pdfrwt beam="2">  1       -1 0.32713757E+00 0.19288346E+04</pdfrwt>
<totfact> 0.10931415E+00</totfact>
</mgrwt>
</event>
<event>
 6    1  0.2236204E-005  0.2029770E+04  0.7818608E-02  0.8592827E-01
         -2   -1    0    0    0  501 -0.00000000000E+00  0.00000000000E+00  0.91070763781E+03  0.91070763781E+03  0.00000000000E+00 0.  1.
          2   -1    0    0  501    0  0.00000000000E+00 -0.00000000000E+00 -0.11309792290E+04  0.11309792290E+04  0.00000000000E+00 0. -1.
         23    2    1    2    0    0 -0.90971965797E+03 -0.38085123091E+03 -0.34242355369E+03  0.10479270276E+04  0.90882610523E+02 0.  0.
         13    1    3    3    0    0 -0.32987803120E+03 -0.11715314091E+03 -0.80555784912E+02  0.35921248360E+03  0.00000000000E+00 0.  1.
        -13    1    3    3    0    0 -0.57984162677E+03 -0.26369809000E+03 -0.26186776878E+03  0.68871454401E+03  0.00000000000E+00 0. -1.
         22    1    1    2    0    0  0.90971965797E+03  0.38085123091E+03  0.12215196246E+03  0.99375983925E+03  0.00000000000E+00 0.  1.
<mgrwt>
<rscale>  0 0.20297699E+04</rscale>
<asrwt>0</asrwt>
<pdfrwt beam="1">  1        2 0.17399680E+00 0.20297699E+04</pdfrwt>
<pdfrwt beam="2">  1       -2 0.14010887E+00 0.20297699E+04</pdfrwt>
<totfact> 0.69274859E+00</totfact>
</mgrwt>
</event>
<event>
 6    1  0.2236204E-005  0.2632071E+04  0.7818608E-02  0.8357388E-01
          2   -1    0    0  501    0  0.00000000000E+00  0.00000000000E+00  0.30564035241E+04  0.30564035241E+04  0.00000000000E+00 0.  1.
         -2   -1    0    0    0  501 -0.00000000000E+00 -0.00000000000E+00 -0.56666235158E+03  0.56666235158E+03  0.00000000000E+00 0. -1.
         23    2    1    2    0    0  0.15626222334E+03 -0.12237896911E+04  0.62171729106E+03  0.13844072791E+04  0.89286246984E+02 0.  0.
         13    1    3    3    0    0  0.38305251723E+02 -0.37772014984E+03  0.23668622043E+03  0.44739263611E+03  0.00000000000E+00 0. -1.
        -13    1    3    3    0    0  0.11795697162E+03 -0.84606954125E+03  0.38503107062E+03  0.93701464296E+03  0.00000000000E+00 0.  1.
         22    1    1    2    0    0 -0.15626222334E+03  0.12237896911E+04  0.18680238814E+04  0.22386585966E+04  0.00000000000E+00 0.  1.
<mgrwt>
<rscale>  0 0.26320705E+04</rscale>
<asrwt>0</asrwt>
<pdfrwt beam="1">  1        2 0.47021592E+00 0.26320705E+04</pdfrwt>
<pdfrwt beam="2">  1       -2 0.87178825E-01 0.26320705E+04</pdfrwt>
<totfact> 0.16092190E+00</totfact>
</mgrwt>
</event>
<event>
 6    1  0.2236204E-005  0.3449252E+04  0.7818608E-02  0.8125923E-01
         -2   -1    0    0    0  501 -0.00000000000E+00  0.00000000000E+00  0.14609226556E+04  0.14609226556E+04  0.00000000000E+00 0.  1.
          2   -1    0    0  501    0  0.00000000000E+00 -0.00000000000E+00 -0.20359284998E+04  0.20359284998E+04  0.00000000000E+00 0. -1.
         23    2    1    2    0    0 -0.13526225605E+04 -0.43399589789E+03  0.70157832427E+03  0.15869801205E+04  0.91397632464E+02 0.  0.
         13    1    3    3    0    0 -0.73706941869E+03 -0.28419400479E+03  0.38943718006E+03  0.88073768941E+03  0.00000000000E+00 0.  1.
        -13    1    3    3    0    0 -0.61555314186E+03 -0.14980189310E+03  0.31214114420E+03  0.70624243113E+03  0.00000000000E+00 0. -1.
         22    1    1    2    0    0  0.13526225605E+04  0.43399589789E+03 -0.12765841684E+04  0.19098710348E+04  0.00000000000E+00 0. -1.
<mgrwt>
<rscale>  0 0.34492516E+04</rscale>
<asrwt>0</asrwt>
<pdfrwt beam="1">  1        2 0.31321977E+00 0.34492516E+04</pdfrwt>
<pdfrwt beam="2">  1       -2 0.22475733E+00 0.34492516E+04</pdfrwt>
<totfact> 0.48556650E-01</totfact>
</mgrwt>
</event>
<event>
 6    1  0.2236204E-005  0.1299163E+04  0.7818608E-02  0.9030229E-01
         -2   -1    0    0    0  501 -0.00000000000E+00  0.00000000000E+00  0.32237962260E+03  0.32237962260E+03  0.00000000000E+00 0. -1.
          2   -1    0    0  501    0  0.00000000000E+00 -0.00000000000E+00 -0.13088788971E+04  0.13088788971E+04  0.00000000000E+00 0.  1.
         23    2    1    2    0    0  0.78178553181E+02  0.34742445216E+03 -0.11726433911E+04  0.12294311086E+04  0.97942289077E+02 0.  0.
         13    1    3    3    0    0  0.43696151243E+02  0.87789156612E+02 -0.20957240689E+03  0.23138038677E+03  0.00000000000E+00 0. -1.
        -13    1    3    3    0    0  0.34482401938E+02  0.25963529555E+03 -0.96307098420E+03  0.99805072183E+03  0.00000000000E+00 0.  1.
         22    1    1    2    0    0 -0.78178553181E+02 -0.34742445216E+03  0.18614411662E+03  0.40182741107E+03  0.00000000000E+00 0. -1.
<mgrwt>
<rscale>  0 0.12991626E+04</rscale>
<asrwt>0</asrwt>
<pdfrwt beam="1">  1        2 0.20136598E+00 0.12991626E+04</pdfrwt>
<pdfrwt beam="2">  1       -2 0.49596865E-01 0.12991626E+04</pdfrwt>
<totfact> 0.61587791E+01</totfact>
</mgrwt>
</event>
<event>
 6    1  0.2236204E-005  0.1636193E+04  0.7818608E-02  0.8798617E-01
          1   -1    0    0  501    0  0.00000000000E+00  0.00000000000E+00  0.14223259412E+04  0.14223259412E+04  0.00000000000E+00 0. -1.
         -1   -1    0    0    0  501 -0.00000000000E+00 -0.00000000000E+00 -0.47055442865E+03  0.47055442865E+03  0.00000000000E+00 0.  1.
         23    2    1    2    0    0  0.40295789241E+03 -0.40341915641E+03  0.11517845397E+04  0.12886227345E+04  0.93908717700E+02 0.  0.
         11    1    3    3    0    0  0.22928822135E+03 -0.29099396616E+03  0.71257088485E+03  0.80312380286E+03  0.00000000000E+00 0. -1.
        -11    1    3    3    0    0  0.17366967106E+03 -0.11242519025E+03  0.43921365485E+03  0.48549893168E+03  0.00000000000E+00 0.  1.
         22    1    1    2    0    0 -0.40295789241E+03  0.40341915641E+03 -0.20001302714E+03  0.60425763532E+03  0.00000000000E+00 0.  1.
<mgrwt>
<rscale>  0 0.16361929E+04</rscale>
<asrwt>0</asrwt>
<pdfrwt beam="1">  1        1 0.21881937E+00 0.16361929E+04</pdfrwt>
<pdfrwt beam="2">  1       -1 0.72392990E-01 0.16361929E+04</pdfrwt>
<totfact> 0.13645406E+01</totfact>
</mgrwt>
</event>
<event>
 6    1  0.2236204E-005  0.1513313E+04  0.7818608E-02  0.8875648E-01
         -2   -1    0    0    0  501 -0.00000000000E+00  0.00000000000E+00  0.42929343129E+03  0.42929343129E+03  0.00000000000E+00 0. -1.
          2   -1    0    0  501    0  0.00000000000E+00 -0.00000000000E+00 -0.13336535838E+04  0.13336535838E+04  0.00000000000E+00 0.  1.
         23    2    1    2    0    0  0.70236882995E+03 -0.93554225052E+02 -0.15368928518E+03  0.73067712916E+03  0.90522397165E+02 0.  0.
         13    1    3    3    0    0  0.66236957592E+02  0.15262497614E+02 -0.26116428319E+02  0.72817210964E+02  0.00000000000E+00 0.  1.
        -13    1    3    3    0    0  0.63613187236E+03 -0.10881672267E+03 -0.12757285687E+03  0.65785991820E+03  0.00000000000E+00 0. -1.
         22    1    1    2    0    0 -0.70236882995E+03  0.93554225052E+02 -0.75067086728E+03  0.10322698859E+04  0.00000000000E+00 0.  1.
<mgrwt>
<rscale>  0 0.15133126E+04</rscale>
<asrwt>0</asrwt>
<pdfrwt beam="1">  1        2 0.20517747E+00 0.15133126E+04</pdfrwt>
<pdfrwt beam="2">  1       -2 0.66045144E-01 0.15133126E+04</pdfrwt>
<totfact> 0.32173232E+01</totfact>
</mgrwt>
</event>
<event>
 6    1  0.2236204E-005  0.3010706E+04  0.7818608E-02  0.8240680E-01
          2   -1    0    0  501    0  0.00000000000E+00  0.00000000000E+00  0.32540198132E+04  0.32540198132E+04  0.00000000000E+00 0. -1.
         -2   -1    0    0    0  501 -0.00000000000E+00 -0.00000000000E+00 -0.69639616463E+03  0.69639616463E+03  0.00000000000E+00 0.  1.
         23    2    1    2    0    0 -0.91593525276E+03  0.11375877186E+04  0.17511407512E+04  0.22820461541E+04  0.90540125126E+02 0.  0.
         13    1    3    3    0    0 -0.78100491799E+03  0.10035661394E+04  0.14876904326E+04  0.19571245492E+04  0.00000000000E+00 0.  1.
        -13    1    3    3    0    0 -0.13493033477E+03  0.13402157923E+03  0.26345031865E+03  0.32492160490E+03  0.00000000000E+00 0. -1.
         22    1    1    2    0    0  0.91593525276E+03 -0.11375877186E+04  0.80648289731E+03  0.16683698236E+04  0.00000000000E+00 0.  1.
<mgrwt>
<rscale>  0 0.30107055E+04</rscale>
<asrwt>0</asrwt>
<pdfrwt beam="1">  1        2 0.50061842E+00 0.30107055E+04</pdfrwt>
<pdfrwt beam="2">  1       -2 0.10713787E+00 0.30107055E+04</pdfrwt>
<totfact> 0.71516062E-01</totfact>
</mgrwt>
</event>
<event>
 6    1  0.2236204E-005  0.2724950E+04  0.7818608E-02  0.8326955E-01
         -2   -1    0    0    0  501 -0.00000000000E+00  0.00000000000E+00  0.13622609707E+04  0.13622609707E+04  0.00000000000E+00 0.  1.
          2   -1    0    0  501    0  0.00000000000E+00 -0.00000000000E+00 -0.13626894286E+04  0.13626894286E+04  0.00000000000E+00 0. -1.
         23    2    1    2    0    0 -0.69501396538E+03  0.28590166842E+03 -0.11348914374E+04  0.13641453331E+04  0.90165066455E+02 0.  0.
         13    1    3    3    0    0 -0.44161358219E+03  0.17820942452E+03 -0.63885198602E+03  0.79681429141E+03  0.00000000000E+00 0.  1.
        -13    1    3    3    0    0 -0.25340038319E+03  0.10769224390E+03 -0.49603945138E+03  0.56733104174E+03  0.00000000000E+00 0. -1.
         22    1    1    2    0    0  0.69501396538E+03 -0.28590166842E+03  0.11344629795E+04  0.13608050661E+04  0.00000000000E+00 0.  1.
<mgrwt>
<rscale>  0 0.27249504E+04</rscale>
<asrwt>0</asrwt>
<pdfrwt beam="1">  1        2 0.20964453E+00 0.27249504E+04</pdfrwt>
<pdfrwt beam="2">  1       -2 0.20957861E+00 0.27249504E+04</pdfrwt>
<totfact> 0.15338285E+00</totfact>
</mgrwt>
</event>
<event>
 6    1  0.2236204E-005  0.1270248E+04  0.7818608E-02  0.9053497E-01
         -2   -1    0    0    0  501 -0.00000000000E+00  0.00000000000E+00  0.18259490785E+03  0.18259490785E+03  0.00000000000E+00 0.  1.
          2   -1    0    0  501    0  0.00000000000E+00 -0.00000000000E+00 -0.22091670890E+04  0.22091670890E+04  0.00000000000E+00 0. -1.
         23    2    1    2    0    0 -0.24535635810E+03 -0.41943317698E+03 -0.25854116712E+03  0.55817054862E+03  0.92665494338E+02 0.  0.
         11    1    3    3    0    0 -0.10639400012E+03 -0.25808891924E+03 -0.17472813860E+03  0.32933189326E+03  0.00000000000E+00 0. -1.
        -11    1    3    3    0    0 -0.13896235797E+03 -0.16134425775E+03 -0.83813028515E+02  0.22883865537E+03  0.00000000000E+00 0.  1.
         22    1    1    2    0    0  0.24535635810E+03  0.41943317698E+03 -0.17680310140E+04  0.18335914482E+04  0.00000000000E+00 0.  1.
<mgrwt>
<rscale>  0 0.12702483E+04</rscale>
<asrwt>0</asrwt>
<pdfrwt beam="1">  1        2 0.33987186E+00 0.12702483E+04</pdfrwt>
<pdfrwt beam="2">  1       -2 0.28091525E-01 0.12702483E+04</pdfrwt>
<totfact> 0.58209856E+01</totfact>
</mgrwt>
</event>
<event>
 6    1  0.2236204E-005  0.1884993E+04  0.7818608E-02  0.8662363E-01
          2   -1    0    0  501    0  0.00000000000E+00  0.00000000000E+00  0.10974665450E+04  0.10974665450E+04  0.00000000000E+00 0. -1.
         -2   -1    0    0    0  501 -0.00000000000E+00 -0.00000000000E+00 -0.80940902535E+03  0.80940902535E+03  0.00000000000E+00 0.  1.
         23    2    1    2    0    0  0.68771054056E+03 -0.20545033222E+03 -0.47025288492E+03  0.86275378806E+03  0.89725673198E+02 0.  0.
         13    1    3    3    0    0  0.34840966767E+03 -0.73555515977E+02 -0.27312113861E+03  0.44877039432E+03  0.00000000000E+00 0.  1.
        -13    1    3    3    0    0  0.33930087289E+03 -0.13189481624E+03 -0.19713174631E+03  0.41398339375E+03  0.00000000000E+00 0. -1.
         22    1    1    2    0    0 -0.68771054056E+03  0.20545033222E+03  0.75831040461E+03  0.10441217823E+04  0.00000000000E+00 0. -1.
<mgrwt>
<rscale>  0 0.18849927E+04</rscale>
<asrwt>0</asrwt>
<pdfrwt beam="1">  1        2 0.16884101E+00 0.18849927E+04</pdfrwt>
<pdfrwt beam="2">  1       -2 0.12452447E+00 0.18849927E+04</pdfrwt>
<totfact> 0.99261040E+00</totfact>
</mgrwt>
</event>
<event>
 6    1  0.2236204E-005  0.1521579E+04  0.7818608E-02  0.8870228E-01
          2   -1    0    0  501    0  0.00000000000E+00  0.00000000000E+00  0.15601655025E+04  0.15601655025E+04  0.00000000000E+00 0. -1.
         -2   -1    0    0    0  501 -0.00000000000E+00 -0.00000000000E+00 -0.37098684673E+03  0.37098684673E+03  0.00000000000E+00 0.  1.
         23    2    1    2    0    0 -0.62127210648E+03 -0.31761121241E+02  0.11465428944E+04  0.13076095622E+04  0.91073373335E+02 0.  0.
         11    1    3    3    0    0 -0.27376939573E+03  0.29972493997E+02  0.48048000220E+03  0.55381320403E+03  0.00000000000E+00 0.  1.
        -11    1    3    3    0    0 -0.34750271074E+03 -0.61733615238E+02  0.66606289215E+03  0.75379635812E+03  0.00000000000E+00 0. -1.
         22    1    1    2    0    0  0.62127210648E+03  0.31761121241E+02  0.42635761373E+02  0.62354278703E+03  0.00000000000E+00 0.  1.
<mgrwt>
<rscale>  0 0.15215793E+04</rscale>
<asrwt>0</asrwt>
<pdfrwt beam="1">  1        2 0.24002546E+00 0.15215793E+04</pdfrwt>
<pdfrwt beam="2">  1       -2 0.57074900E-01 0.15215793E+04</pdfrwt>
<totfact> 0.32583659E+01</totfact>
</mgrwt>
</event>
<event>
 6    1  0.2236204E-005  0.2425565E+04  0.7818608E-02  0.8429994E-01
          2   -1    0    0  501    0  0.00000000000E+00  0.00000000000E+00  0.12616957145E+04  0.12616957145E+04  0.00000000000E+00 0. -1.
         -2   -1    0    0    0  501 -0.00000000000E+00 -0.00000000000E+00 -0.11657659131E+04  0.11657659131E+04  0.00000000000E+00 0.  1.
         23    2    1    2    0    0  0.89190311601E+03 -0.70186954754E+03  0.47087650906E+03  0.12321804625E+04  0.91825787547E+02 0.  0.
         13    1    3    3    0    0  0.42874760434E+03 -0.31454732097E+03  0.17497173615E+03  0.55980320989E+03  0.00000000000E+00 0. -1.
        -13    1    3    3    0    0  0.46315551167E+03 -0.38732222657E+03  0.29590477291E+03  0.67237725260E+03  0.00000000000E+00 0.  1.
         22    1    1    2    0    0 -0.89190311601E+03  0.70186954754E+03 -0.37494670761E+03  0.11952811651E+04  0.00000000000E+00 0. -1.
<mgrwt>
<rscale>  0 0.24255654E+04</rscale>
<asrwt>0</asrwt>
<pdfrwt beam="1">  1        2 0.19410703E+00 0.24255654E+04</pdfrwt>
<pdfrwt beam="2">  1       -2 0.17934860E+00 0.24255654E+04</pdfrwt>
<totfact> 0.28623761E+00</totfact>
</mgrwt>
</event>
<event>
 6    1  0.2236204E-005  0.1475503E+04  0.7818608E-02  0.8900908E-01
          2   -1    0    0  501    0  0.00000000000E+00  0.00000000000E+00  0.15149397681E+04  0.15149397681E+04  0.00000000000E+00 0. -1.
         -2   -1    0    0    0  501 -0.00000000000E+00 -0.00000000000E+00 -0.35927334173E+03  0.35927334173E+03  0.00000000000E+00 0.  1.
         23    2    1    2    0    0  0.48955977130E+03 -0.29343060750E+03  0.11681185436E+04  0.13033143918E+04  0.91417618223E+02 0.  0.
         13    1    3    3    0    0  0.83660690959E+02 -0.60247470228E+02  0.14215435844E+03  0.17560390230E+03  0.00000000000E+00 0. -1.
        -13    1    3    3    0    0  0.40589908034E+03 -0.23318313727E+03  0.10259641851E+04  0.11277104895E+04  0.00000000000E+00 0.  1.
         22    1    1    2    0    0 -0.48955977130E+03  0.29343060750E+03 -0.12452117156E+02  0.57089871809E+03  0.00000000000E+00 0.  1.
<mgrwt>
<rscale>  0 0.14755033E+04</rscale>
<asrwt>0</asrwt>
<pdfrwt beam="1">  1        2 0.23306765E+00 0.14755033E+04</pdfrwt>
<pdfrwt beam="2">  1       -2 0.55272823E-01 0.14755033E+04</pdfrwt>
<totfact> 0.37074817E+01</totfact>
</mgrwt>
</event>
<event>
 6    1  0.2236204E-005  0.5151590E+04  0.7818608E-02  0.7805539E-01
          2   -1    0    0  501    0  0.00000000000E+00  0.00000000000E+00  0.15334106668E+04  0.15334106668E+04  0.00000000000E+00 0. -1.
         -2   -1    0    0    0  501 -0.00000000000E+00 -0.00000000000E+00 -0.43267735603E+04  0.43267735603E+04  0.00000000000E+00 0.  1.
         23    2    1    2    0    0 -0.11524603454E+04  0.13329218519E+04  0.73881782359E+03  0.19128881743E+04  0.91890586366E+02 0.  0.
         11    1    3    3    0    0 -0.86537867976E+03  0.10479903893E+04  0.54391340924E+03  0.14639009229E+04  0.00000000000E+00 0. -1.
        -11    1    3    3    0    0 -0.28708166569E+03  0.28493146255E+03  0.19490441435E+03  0.44898725134E+03  0.00000000000E+00 0.  1.
         22    1    1    2    0    0  0.11524603454E+04 -0.13329218519E+04 -0.35321807171E+04  0.39472960529E+04  0.00000000000E+00 0.  1.
<mgrwt>
<rscale>  0 0.51515903E+04</rscale>
<asrwt>0</asrwt>
<pdfrwt beam="1">  1        2 0.23590934E+00 0.51515903E+04</pdfrwt>
<pdfrwt beam="2">  1       -2 0.66565746E+00 0.51515903E+04</pdfrwt>
<totfact> 0.26356653E-03</totfact>
</mgrwt>
</event>
<event>
 6    1  0.2236204E-005  0.2993090E+04  0.7818608E-02  0.8245707E-01
          2   -1    0    0  501    0  0.00000000000E+00  0.00000000000E+00  0.23221312384E+04  0.23221312384E+04  0.00000000000E+00 0. -1.
         -2   -1    0    0    0  501 -0.00000000000E+00 -0.00000000000E+00 -0.96447934847E+03  0.96447934847E+03  0.00000000000E+00 0.  1.
         23    2    1    2    0    0  0.49941931886E+03  0.11682067666E+04 -0.18621753520E+03  0.12871957956E+04  0.89829507481E+02 0.  0.
         13    1    3    3    0    0  0.38901646409E+03  0.81725943144E+03 -0.15069639348E+03  0.91758170787E+03  0.00000000000E+00 0.  1.
        -13    1    3    3    0    0  0.11040285476E+03  0.35094733512E+03 -0.35521141720E+02  0.36961408777E+03  0.00000000000E+00 0. -1.
         22    1    1    2    0    0 -0.49941931886E+03 -0.11682067666E+04  0.15438694251E+04  0.19994147912E+04  0.00000000000E+00 0. -1.
<mgrwt>
<rscale>  0 0.29930905E+04</rscale>
<asrwt>0</asrwt>
<pdfrwt beam="1">  1        2 0.35725096E+00 0.29930905E+04</pdfrwt>
<pdfrwt beam="2">  1       -2 0.14838144E+00 0.29930905E+04</pdfrwt>
<totfact> 0.11630674E+00</totfact>
</mgrwt>
</event>
<event>
 6    1  0.2236204E-005  0.2982232E+04  0.7818608E-02  0.8248823E-01
          2   -1    0    0  501    0  0.00000000000E+00  0.00000000000E+00  0.13960051559E+04  0.13960051559E+04  0.00000000000E+00 0. -1.
         -2   -1    0    0    0  501 -0.00000000000E+00 -0.00000000000E+00 -0.15927070803E+04  0.15927070803E+04  0.00000000000E+00 0.  1.
         23    2    1    2    0    0  0.10771304577E+04  0.58022798710E+03 -0.95028084556E+03  0.15517864447E+04  0.90182839153E+02 0.  0.
         13    1    3    3    0    0  0.61002388904E+03  0.37408789297E+03 -0.53007768698E+03  0.89053537330E+03  0.00000000000E+00 0.  1.
        -13    1    3    3    0    0  0.46710656870E+03  0.20614009412E+03 -0.42020315858E+03  0.66125107138E+03  0.00000000000E+00 0. -1.
         22    1    1    2    0    0 -0.10771304577E+04 -0.58022798710E+03  0.75357892109E+03  0.14369257915E+04  0.00000000000E+00 0. -1.
<mgrwt>
<rscale>  0 0.29822322E+04</rscale>
<asrwt>0</asrwt>
<pdfrwt beam="1">  1        2 0.21477002E+00 0.29822322E+04</pdfrwt>
<pdfrwt beam="2">  1       -2 0.24503186E+00 0.29822322E+04</pdfrwt>
<totfact> 0.85994782E-01</totfact>
</mgrwt>
</event>
<event>
 6    1  0.2236204E-005  0.4324111E+03  0.7818608E-02  0.1033101E+00
         -2   -1    0    0    0  501 -0.00000000000E+00  0.00000000000E+00  0.46552406431E+03  0.46552406431E+03  0.00000000000E+00 0.  1.
          2   -1    0    0  501    0  0.00000000000E+00 -0.00000000000E+00 -0.10041336357E+03  0.10041336357E+03  0.00000000000E+00 0. -1.
         23    2    1    2    0    0 -0.19078527739E+03  0.73905931298E+02  0.22988293660E+03  0.32068723534E+03  0.90183311212E+02 0.  0.
         13    1    3    3    0    0 -0.39559299036E+02  0.40735407198E+02  0.11380195447E+03  0.12718174547E+03  0.00000000000E+00 0. -1.
        -13    1    3    3    0    0 -0.15122597835E+03  0.33170524100E+02  0.11608098213E+03  0.19350548987E+03  0.00000000000E+00 0.  1.
         22    1    1    2    0    0  0.19078527739E+03 -0.73905931298E+02  0.13522776414E+03  0.24525019254E+03  0.00000000000E+00 0. -1.
<mgrwt>
<rscale>  0 0.43241109E+03</rscale>
<asrwt>0</asrwt>
<pdfrwt beam="1">  1        2 0.15448210E-01 0.43241109E+03</pdfrwt>
<pdfrwt beam="2">  1       -2 0.71619086E-01 0.43241109E+03</pdfrwt>
<totfact> 0.68753705E+02</totfact>
</mgrwt>
</event>
<event>
 6    1  0.2236204E-005  0.9046650E+03  0.7818608E-02  0.9419769E-01
         -2   -1    0    0    0  501 -0.00000000000E+00  0.00000000000E+00  0.31912941377E+03  0.31912941377E+03  0.00000000000E+00 0.  1.
          2   -1    0    0  501    0  0.00000000000E+00 -0.00000000000E+00 -0.64113395544E+03  0.64113395544E+03  0.00000000000E+00 0. -1.
         23    2    1    2    0    0  0.16065876867E+03 -0.30148022263E+03 -0.46988609426E+03  0.58801275714E+03  0.90909275565E+02 0.  0.
         11    1    3    3    0    0  0.47026303828E+02 -0.14731435528E+03 -0.15163211824E+03  0.21657629557E+03  0.00000000000E+00 0. -1.
        -11    1    3    3    0    0  0.11363246484E+03 -0.15416586736E+03 -0.31825397603E+03  0.37143646156E+03  0.00000000000E+00 0.  1.
         22    1    1    2    0    0 -0.16065876867E+03  0.30148022263E+03  0.14788155260E+03  0.37225061207E+03  0.00000000000E+00 0.  1.
<mgrwt>
<rscale>  0 0.90466503E+03</rscale>
<asrwt>0</asrwt>
<pdfrwt beam="1">  1        2 0.98635993E-01 0.90466503E+03</pdfrwt>
<pdfrwt beam="2">  1       -2 0.49096833E-01 0.90466503E+03</pdfrwt>
<totfact> 0.18016571E+02</totfact>
</mgrwt>
</event>
<event>
 6    1  0.2236204E-005  0.4223624E+04  0.7818608E-02  0.7960894E-01
          1   -1    0    0  501    0  0.00000000000E+00  0.00000000000E+00  0.51827966053E+04  0.51827966053E+04  0.00000000000E+00 0. -1.
         -1   -1    0    0    0  501 -0.00000000000E+00 -0.00000000000E+00 -0.86049085077E+03  0.86049085077E+03  0.00000000000E+00 0.  1.
         23    2    1    2    0    0  0.56558538213E+03  0.19919999404E+04  0.27481444917E+04  0.34421465009E+04  0.90132121825E+02 0.  0.
         13    1    3    3    0    0  0.36481071247E+03  0.11236671791E+04  0.15784589610E+04  0.19716103766E+04  0.00000000000E+00 0.  1.
        -13    1    3    3    0    0  0.20077466966E+03  0.86833276135E+03  0.11696855306E+04  0.14705361243E+04  0.00000000000E+00 0. -1.
         22    1    1    2    0    0 -0.56558538213E+03 -0.19919999404E+04  0.15741612628E+04  0.26011409551E+04  0.00000000000E+00 0.  1.
<mgrwt>
<rscale>  0 0.42236236E+04</rscale>
<asrwt>0</asrwt>
<pdfrwt beam="1">  1        1 0.79735330E+00 0.42236236E+04</pdfrwt>
<pdfrwt beam="2">  1       -1 0.13238321E+00 0.42236236E+04</pdfrwt>
<totfact> 0.17977326E-03</totfact>
</mgrwt>
</event>
<event>
 6    1  0.2236204E-005  0.1921237E+04  0.7818608E-02  0.8644357E-01
          1   -1    0    0  501    0  0.00000000000E+00  0.00000000000E+00  0.72082748170E+03  0.72082748170E+03  0.00000000000E+00 0. -1.
         -1   -1    0    0    0  501 -0.00000000000E+00 -0.00000000000E+00 -0.12801786214E+04  0.12801786214E+04  0.00000000000E+00 0.  1.
         23    2    1    2    0    0  0.67646367775E+03 -0.26671370669E+03  0.36992782028E+03  0.82104903009E+03  0.92388359324E+02 0.  0.
         11    1    3    3    0    0  0.62113163754E+03 -0.26807322511E+03  0.35356563423E+03  0.76333244584E+03  0.00000000000E+00 0. -1.
        -11    1    3    3    0    0  0.55332040216E+02  0.13595184174E+01  0.16362186054E+02  0.57716584248E+02  0.00000000000E+00 0.  1.
         22    1    1    2    0    0 -0.67646367775E+03  0.26671370669E+03 -0.92927895996E+03  0.11799570730E+04  0.00000000000E+00 0.  1.
<mgrwt>
<rscale>  0 0.19212370E+04</rscale>
<asrwt>0</asrwt>
<pdfrwt beam="1">  1        1 0.11089654E+00 0.19212370E+04</pdfrwt>
<pdfrwt beam="2">  1       -1 0.19695055E+00 0.19212370E+04</pdfrwt>
<totfact> 0.38431462E+00</totfact>
</mgrwt>
</event>
<event>
 6    1  0.2236204E-005  0.2167736E+04  0.7818608E-02  0.8531978E-01
          2   -1    0    0  501    0  0.00000000000E+00  0.00000000000E+00  0.24577832417E+04  0.24577832417E+04  0.00000000000E+00 0. -1.
         -2   -1    0    0    0  501 -0.00000000000E+00 -0.00000000000E+00 -0.47797938821E+03  0.47797938821E+03  0.00000000000E+00 0.  1.
         23    2    1    2    0    0 -0.78782673123E+03 -0.41962973039E+03  0.16351737001E+03  0.91198975256E+03  0.90704517065E+02 0.  0.
         11    1    3    3    0    0 -0.59401542563E+03 -0.27150458108E+03  0.12656226238E+03  0.66527217716E+03  0.00000000000E+00 0. -1.
        -11    1    3    3    0    0 -0.19381130559E+03 -0.14812514931E+03  0.36955107634E+02  0.24671757540E+03  0.00000000000E+00 0.  1.
         22    1    1    2    0    0  0.78782673123E+03  0.41962973039E+03  0.18162864835E+04  0.20237728773E+04  0.00000000000E+00 0. -1.
<mgrwt>
<rscale>  0 0.21677359E+04</rscale>
<asrwt>0</asrwt>
<pdfrwt beam="1">  1        2 0.37812049E+00 0.21677359E+04</pdfrwt>
<pdfrwt beam="2">  1       -2 0.73535292E-01 0.21677359E+04</pdfrwt>
<totfact> 0.56302837E+00</totfact>
</mgrwt>
</event>
<event>
 6    1  0.2236204E-005  0.4183570E+04  0.7818608E-02  0.7968505E-01
         -2   -1    0    0    0  501 -0.00000000000E+00  0.00000000000E+00  0.16786594664E+04  0.16786594664E+04  0.00000000000E+00 0.  1.
          2   -1    0    0  501    0  0.00000000000E+00 -0.00000000000E+00 -0.26065827162E+04  0.26065827162E+04  0.00000000000E+00 0. -1.
         23    2    1    2    0    0  0.90151028671E+03  0.70433123107E+03 -0.22567489865E+04  0.25317938319E+04  0.90888606785E+02 0.  0.
         11    1    3    3    0    0  0.76624202471E+03  0.63342392235E+03 -0.19862309131E+04  0.22211406858E+04  0.00000000000E+00 0.  1.
        -11    1    3    3    0    0  0.13526826200E+03  0.70907308715E+02 -0.27051807338E+03  0.31065314606E+03  0.00000000000E+00 0. -1.
         22    1    1    2    0    0 -0.90151028671E+03 -0.70433123107E+03  0.13288257368E+04  0.17534483508E+04  0.00000000000E+00 0.  1.
<mgrwt>
<rscale>  0 0.41835701E+04</rscale>
<asrwt>0</asrwt>
<pdfrwt beam="1">  1        2 0.40101273E+00 0.41835701E+04</pdfrwt>
<pdfrwt beam="2">  1       -2 0.25825530E+00 0.41835701E+04</pdfrwt>
<totfact> 0.13405698E-01</totfact>
</mgrwt>
</event>
<event>
 6    1  0.2236204E-005  0.2567447E+04  0.7818608E-02  0.8379343E-01
          2   -1    0    0  501    0  0.00000000000E+00  0.00000000000E+00  0.20364922107E+04  0.20364922107E+04  0.00000000000E+00 0. -1.
         -2   -1    0    0    0  501 -0.00000000000E+00 -0.00000000000E+00 -0.80920818243E+03  0.80920818243E+03  0.00000000000E+00 0.  1.
         23    2    1    2    0    0  0.97266165971E+03  0.83513270908E+03  0.60384788350E+03  0.14201513857E+04  0.93168373212E+02 0.  0.
         13    1    3    3    0    0  0.10705770248E+03  0.10338064553E+03  0.39550665329E+02  0.15399079407E+03  0.00000000000E+00 0. -1.
        -13    1    3    3    0    0  0.86560395723E+03  0.73175206354E+03  0.56429721817E+03  0.12661605916E+04  0.00000000000E+00 0.  1.
         22    1    1    2    0    0 -0.97266165971E+03 -0.83513270908E+03  0.62343614475E+03  0.14255490074E+04  0.00000000000E+00 0. -1.
<mgrwt>
<rscale>  0 0.25674471E+04</rscale>
<asrwt>0</asrwt>
<pdfrwt beam="1">  1        2 0.31330649E+00 0.25674471E+04</pdfrwt>
<pdfrwt beam="2">  1       -2 0.12449357E+00 0.25674471E+04</pdfrwt>
<totfact> 0.27391791E+00</totfact>
</mgrwt>
</event>
<event>
 6    1  0.2236204E-005  0.3574014E+04  0.7818608E-02  0.8096470E-01
         -2   -1    0    0    0  501 -0.00000000000E+00  0.00000000000E+00  0.15369041691E+04  0.15369041691E+04  0.00000000000E+00 0.  1.
          2   -1    0    0  501    0  0.00000000000E+00 -0.00000000000E+00 -0.20778098051E+04  0.20778098051E+04  0.00000000000E+00 0. -1.
         23    2    1    2    0    0 -0.68645157331E+03 -0.69962303351E+03 -0.17804626916E+04  0.20344640428E+04  0.91150390451E+02 0.  0.
         11    1    3    3    0    0 -0.11432939982E+03 -0.16592923215E+03 -0.33975042316E+03  0.39501148310E+03  0.00000000000E+00 0.  1.
        -11    1    3    3    0    0 -0.57212217349E+03 -0.53369380136E+03 -0.14407122684E+04  0.16394525597E+04  0.00000000000E+00 0. -1.
         22    1    1    2    0    0  0.68645157331E+03  0.69962303351E+03  0.12395570557E+04  0.15802499314E+04  0.00000000000E+00 0.  1.
<mgrwt>
<rscale>  0 0.35740143E+04</rscale>
<asrwt>0</asrwt>
<pdfrwt beam="1">  1        2 0.31966305E+00 0.35740143E+04</pdfrwt>
<pdfrwt beam="2">  1       -2 0.23644679E+00 0.35740143E+04</pdfrwt>
<totfact> 0.38488090E-01</totfact>
</mgrwt>
</event>
<event>
 6    1  0.2425948E-005  0.3763741E+04  0.7818608E-02  0.8053981E-01
         -2   -1    0    0    0  501 -0.00000000000E+00  0.00000000000E+00  0.12430561844E+04  0.12430561844E+04  0.00000000000E+00 0.  1.
          2   -1    0    0  501    0  0.00000000000E+00 -0.00000000000E+00 -0.28489747261E+04  0.28489747261E+04  0.00000000000E+00 0. -1.
         23    2    1    2    0    0  0.30439609859E+03  0.80446053392E+03  0.10152076980E+04  0.13333869501E+04  0.86373336987E+02 0.  0.
         13    1    3    3    0    0  0.11986830425E+03  0.31443128485E+03  0.46330100571E+03  0.57261091952E+03  0.00000000000E+00 0. -1.
        -13    1    3    3    0    0  0.18452779434E+03  0.49002924906E+03  0.55190669226E+03  0.76077603063E+03  0.00000000000E+00 0.  1.
         22    1    1    2    0    0 -0.30439609859E+03 -0.80446053392E+03 -0.26211262397E+04  0.27586439603E+04  0.00000000000E+00 0. -1.
<mgrwt>
<rscale>  0 0.37637405E+04</rscale>
<asrwt>0</asrwt>
<pdfrwt beam="1">  1        2 0.43830380E+00 0.37637405E+04</pdfrwt>
<pdfrwt beam="2">  1       -2 0.19123941E+00 0.37637405E+04</pdfrwt>
<totfact> 0.26393181E-01</totfact>
</mgrwt>
</event>
<event>
 6    1  0.2236204E-005  0.1177166E+04  0.7818608E-02  0.9133081E-01
          1   -1    0    0  501    0  0.00000000000E+00  0.00000000000E+00  0.22707334043E+03  0.22707334043E+03  0.00000000000E+00 0. -1.
         -1   -1    0    0    0  501 -0.00000000000E+00 -0.00000000000E+00 -0.15256314150E+04  0.15256314150E+04  0.00000000000E+00 0.  1.
         23    2    1    2    0    0  0.11387965881E+03 -0.31770770247E+03  0.58363902798E+02  0.35444011181E+03  0.91184904511E+02 0.  0.
         13    1    3    3    0    0 -0.94312466974E+01 -0.60971110929E+02 -0.73807202589E+01  0.62136139354E+02  0.00000000000E+00 0. -1.
        -13    1    3    3    0    0  0.12331090551E+03 -0.25673659154E+03  0.65744623057E+02  0.29230397246E+03  0.00000000000E+00 0.  1.
         22    1    1    2    0    0 -0.11387965881E+03  0.31770770247E+03 -0.13569219774E+04  0.13982646436E+04  0.00000000000E+00 0.  1.
<mgrwt>
<rscale>  0 0.11771665E+04</rscale>
<asrwt>0</asrwt>
<pdfrwt beam="1">  1        1 0.34934359E-01 0.11771665E+04</pdfrwt>
<pdfrwt beam="2">  1       -1 0.23471253E+00 0.11771665E+04</pdfrwt>
<totfact> 0.10998185E+01</totfact>
</mgrwt>
</event>
<event>
 6    1  0.2236204E-005  0.2690731E+04  0.7818608E-02  0.8338019E-01
         -2   -1    0    0    0  501 -0.00000000000E+00  0.00000000000E+00  0.25146180068E+04  0.25146180068E+04  0.00000000000E+00 0. -1.
          2   -1    0    0  501    0  0.00000000000E+00 -0.00000000000E+00 -0.71979434369E+03  0.71979434369E+03  0.00000000000E+00 0.  1.
         23    2    1    2    0    0 -0.36263010320E+03  0.99418052363E+03 -0.96735593546E+02  0.10669502570E+04  0.95548786092E+02 0.  0.
         13    1    3    3    0    0 -0.16537159157E+03  0.34285753084E+03 -0.60633603789E+02  0.38545490483E+03  0.00000000000E+00 0.  1.
        -13    1    3    3    0    0 -0.19725851163E+03  0.65132299280E+03 -0.36101989757E+02  0.68149535217E+03  0.00000000000E+00 0. -1.
         22    1    1    2    0    0  0.36263010320E+03 -0.99418052363E+03  0.18915592567E+04  0.21674620935E+04  0.00000000000E+00 0. -1.
<mgrwt>
<rscale>  0 0.26907306E+04</rscale>
<asrwt>0</asrwt>
<pdfrwt beam="1">  1        2 0.11073759E+00 0.26907306E+04</pdfrwt>
<pdfrwt beam="2">  1       -2 0.38686430E+00 0.26907306E+04</pdfrwt>
<totfact> 0.31377158E-01</totfact>
</mgrwt>
</event>
<event>
 6    1  0.2236204E-005  0.7874666E+03  0.7818608E-02  0.9578338E-01
          2   -1    0    0  501    0  0.00000000000E+00  0.00000000000E+00  0.48760994097E+03  0.48760994097E+03  0.00000000000E+00 0. -1.
         -2   -1    0    0    0  501 -0.00000000000E+00 -0.00000000000E+00 -0.31793016603E+03  0.31793016603E+03  0.00000000000E+00 0.  1.
         23    2    1    2    0    0 -0.15695873271E+03 -0.41095131756E+02  0.44715071823E+03  0.48411363330E+03  0.89985507241E+02 0.  0.
         11    1    3    3    0    0 -0.12827688322E+03 -0.32333067220E+02  0.23351697128E+03  0.26838509995E+03  0.00000000000E+00 0. -1.
        -11    1    3    3    0    0 -0.28681849492E+02 -0.87620645357E+01  0.21363374695E+03  0.21572853335E+03  0.00000000000E+00 0.  1.
         22    1    1    2    0    0  0.15695873271E+03  0.41095131756E+02 -0.27747094329E+03  0.32142647370E+03  0.00000000000E+00 0.  1.
<mgrwt>
<rscale>  0 0.78746659E+03</rscale>
<asrwt>0</asrwt>
<pdfrwt beam="1">  1        2 0.75016914E-01 0.78746659E+03</pdfrwt>
<pdfrwt beam="2">  1       -2 0.48912333E-01 0.78746659E+03</pdfrwt>
<totfact> 0.25277966E+02</totfact>
</mgrwt>
</event>
<event>
 6    1  0.2236204E-005  0.8072872E+03  0.7818608E-02  0.9549529E-01
         -2   -1    0    0    0  501 -0.00000000000E+00  0.00000000000E+00  0.45791468070E+02  0.45791468070E+02  0.00000000000E+00 0.  1.
          2   -1    0    0  501    0  0.00000000000E+00 -0.00000000000E+00 -0.35580464316E+04  0.35580464316E+04  0.00000000000E+00 0. -1.
         23    2    1    2    0    0  0.14360485709E+03 -0.29868593592E+03 -0.27665887845E+04  0.27878393128E+04  0.90547710762E+02 0.  0.
         13    1    3    3    0    0 -0.25904763282E+01 -0.26208079823E+02 -0.44060906965E+03  0.44139543073E+03  0.00000000000E+00 0.  1.
        -13    1    3    3    0    0  0.14619533342E+03 -0.27247785610E+03 -0.23259797149E+04  0.23464438820E+04  0.00000000000E+00 0. -1.
         22    1    1    2    0    0 -0.14360485709E+03  0.29868593592E+03 -0.74566617902E+03  0.81599858690E+03  0.00000000000E+00 0.  1.
<mgrwt>
<rscale>  0 0.80728723E+03</rscale>
<asrwt>0</asrwt>
<pdfrwt beam="1">  1        2 0.54739185E+00 0.80728723E+03</pdfrwt>
<pdfrwt beam="2">  1       -2 0.70448401E-02 0.80728723E+03</pdfrwt>
<totfact> 0.95425902E+01</totfact>
</mgrwt>
</event>
<event>
 6    1  0.2236204E-005  0.5090602E+04  0.7818608E-02  0.7814681E-01
         -2   -1    0    0    0  501 -0.00000000000E+00  0.00000000000E+00  0.23402205069E+04  0.23402205069E+04  0.00000000000E+00 0.  1.
          2   -1    0    0  501    0  0.00000000000E+00 -0.00000000000E+00 -0.27683535711E+04  0.27683535711E+04  0.00000000000E+00 0. -1.
         23    2    1    2    0    0  0.15287073227E+04 -0.16739862810E+04  0.94545961144E+03  0.24579264238E+04  0.91281326185E+02 0.  0.
         11    1    3    3    0    0  0.50821934591E+03 -0.52222563718E+03  0.26523219006E+03  0.77547058895E+03  0.00000000000E+00 0. -1.
        -11    1    3    3    0    0  0.10204879768E+04 -0.11517606439E+04  0.68022742138E+03  0.16824558349E+04  0.00000000000E+00 0.  1.
         22    1    1    2    0    0 -0.15287073227E+04  0.16739862810E+04 -0.13735926757E+04  0.26506476541E+04  0.00000000000E+00 0. -1.
<mgrwt>
<rscale>  0 0.50906022E+04</rscale>
<asrwt>0</asrwt>
<pdfrwt beam="1">  1        2 0.42590055E+00 0.50906022E+04</pdfrwt>
<pdfrwt beam="2">  1       -2 0.36003393E+00 0.50906022E+04</pdfrwt>
<totfact> 0.23477236E-02</totfact>
</mgrwt>
</event>
<event>
 6    1  0.2236204E-005  0.2550457E+04  0.7818608E-02  0.8385227E-01
          2   -1    0    0  501    0  0.00000000000E+00  0.00000000000E+00  0.13280099571E+04  0.13280099571E+04  0.00000000000E+00 0. -1.
         -2   -1    0    0    0  501 -0.00000000000E+00 -0.00000000000E+00 -0.12245445221E+04  0.12245445221E+04  0.00000000000E+00 0.  1.
         23    2    1    2    0    0  0.72042550750E+03 -0.62930921756E+03 -0.78975962974E+03  0.12437787080E+04  0.90676339919E+02 0.  0.
         13    1    3    3    0    0  0.48307358605E+03 -0.45814894211E+03 -0.58881617705E+03  0.88879977107E+03  0.00000000000E+00 0.  1.
        -13    1    3    3    0    0  0.23735192145E+03 -0.17116027545E+03 -0.20094345269E+03  0.35497893696E+03  0.00000000000E+00 0. -1.
         22    1    1    2    0    0 -0.72042550750E+03  0.62930921756E+03  0.89322506472E+03  0.13087757712E+04  0.00000000000E+00 0. -1.
<mgrwt>
<rscale>  0 0.25504567E+04</rscale>
<asrwt>0</asrwt>
<pdfrwt beam="1">  1        2 0.20430922E+00 0.25504567E+04</pdfrwt>
<pdfrwt beam="2">  1       -2 0.18839147E+00 0.25504567E+04</pdfrwt>
<totfact> 0.22474739E+00</totfact>
</mgrwt>
</event>
<event>
 6    1  0.2236204E-005  0.1599232E+04  0.7818608E-02  0.8821020E-01
          2   -1    0    0  501    0  0.00000000000E+00  0.00000000000E+00  0.69292653195E+03  0.69292653195E+03  0.00000000000E+00 0. -1.
         -2   -1    0    0    0  501 -0.00000000000E+00 -0.00000000000E+00 -0.92273259005E+03  0.92273259005E+03  0.00000000000E+00 0.  1.
         23    2    1    2    0    0 -0.41367407321E+03 -0.39045874102E+03  0.44877460464E+03  0.73018976447E+03  0.90521705033E+02 0.  0.
         11    1    3    3    0    0 -0.14144623695E+03 -0.15316327683E+03  0.21784849537E+03  0.30153605796E+03  0.00000000000E+00 0.  1.
        -11    1    3    3    0    0 -0.27222783626E+03 -0.23729546419E+03  0.23092610927E+03  0.42865370651E+03  0.00000000000E+00 0. -1.
         22    1    1    2    0    0  0.41367407321E+03  0.39045874102E+03 -0.67858066273E+03  0.88546935753E+03  0.00000000000E+00 0.  1.
<mgrwt>
<rscale>  0 0.15992322E+04</rscale>
<asrwt>0</asrwt>
<pdfrwt beam="1">  1        2 0.10660408E+00 0.15992322E+04</pdfrwt>
<pdfrwt beam="2">  1       -2 0.14195886E+00 0.15992322E+04</pdfrwt>
<totfact> 0.13780053E+01</totfact>
</mgrwt>
</event>
<event>
 6    1  0.2236204E-005  0.1693574E+04  0.7818608E-02  0.8765038E-01
          2   -1    0    0  501    0  0.00000000000E+00  0.00000000000E+00  0.33406700095E+04  0.33406700095E+04  0.00000000000E+00 0. -1.
         -2   -1    0    0    0  501 -0.00000000000E+00 -0.00000000000E+00 -0.21464205344E+03  0.21464205344E+03  0.00000000000E+00 0.  1.
         23    2    1    2    0    0  0.41206207439E+03  0.22673906245E+03  0.30395855900E+04  0.30771091371E+04  0.91182933365E+02 0.  0.
         11    1    3    3    0    0  0.25452410199E+03  0.15848868215E+03  0.16575658644E+04  0.16844660209E+04  0.00000000000E+00 0.  1.
        -11    1    3    3    0    0  0.15753797240E+03  0.68250380294E+02  0.13820197256E+04  0.13926431162E+04  0.00000000000E+00 0. -1.
         22    1    1    2    0    0 -0.41206207439E+03 -0.22673906245E+03  0.86442366055E+02  0.47820292580E+03  0.00000000000E+00 0.  1.
<mgrwt>
<rscale>  0 0.16935741E+04</rscale>
<asrwt>0</asrwt>
<pdfrwt beam="1">  1        2 0.51394920E+00 0.16935741E+04</pdfrwt>
<pdfrwt beam="2">  1       -2 0.33021857E-01 0.16935741E+04</pdfrwt>
<totfact> 0.85941389E+00</totfact>
</mgrwt>
</event>
<event>
 6    1  0.2236204E-005  0.9782834E+03  0.7818608E-02  0.9332689E-01
          1   -1    0    0  501    0  0.00000000000E+00  0.00000000000E+00  0.45241842627E+03  0.45241842627E+03  0.00000000000E+00 0. -1.
         -1   -1    0    0    0  501 -0.00000000000E+00 -0.00000000000E+00 -0.52884581172E+03  0.52884581172E+03  0.00000000000E+00 0.  1.
         23    2    1    2    0    0 -0.17642908127E+03  0.42455161189E+03 -0.19315606249E+03  0.50692588204E+03  0.91067521834E+02 0.  0.
         13    1    3    3    0    0 -0.65300847848E+02  0.92145308103E+02 -0.15546866347E+02  0.11400291044E+03  0.00000000000E+00 0. -1.
        -13    1    3    3    0    0 -0.11112823342E+03  0.33240630379E+03 -0.17760919614E+03  0.39292297161E+03  0.00000000000E+00 0.  1.
         22    1    1    2    0    0  0.17642908127E+03 -0.42455161189E+03  0.11672867704E+03  0.47433835595E+03  0.00000000000E+00 0. -1.
<mgrwt>
<rscale>  0 0.97828337E+03</rscale>
<asrwt>0</asrwt>
<pdfrwt beam="1">  1        1 0.69602834E-01 0.97828337E+03</pdfrwt>
<pdfrwt beam="2">  1       -1 0.81360895E-01 0.97828337E+03</pdfrwt>
<totfact> 0.76826931E+01</totfact>
</mgrwt>
</event>
<event>
 6    1  0.2236204E-005  0.3992759E+04  0.7818608E-02  0.8006009E-01
         -1   -1    0    0    0  501 -0.00000000000E+00  0.00000000000E+00  0.11555621354E+04  0.11555621354E+04  0.00000000000E+00 0.  1.
          1   -1    0    0  501    0  0.00000000000E+00 -0.00000000000E+00 -0.34489981326E+04  0.34489981326E+04  0.00000000000E+00 0. -1.
         23    2    1    2    0    0  0.29762403001E+03 -0.50421366274E+03 -0.33470948526E+04  0.33991522604E+04  0.91545923695E+02 0.  0.
         13    1    3    3    0    0  0.17487038845E+03 -0.37290293276E+03 -0.24184346298E+04  0.24532554511E+04  0.00000000000E+00 0. -1.
        -13    1    3    3    0    0  0.12275364156E+03 -0.13131072999E+03 -0.92866022282E+03  0.94589680927E+03  0.00000000000E+00 0.  1.
         22    1    1    2    0    0 -0.29762403001E+03  0.50421366274E+03  0.10536588555E+04  0.12054080076E+04  0.00000000000E+00 0.  1.
<mgrwt>
<rscale>  0 0.39927593E+04</rscale>
<asrwt>0</asrwt>
<pdfrwt beam="1">  1        1 0.53061510E+00 0.39927593E+04</pdfrwt>
<pdfrwt beam="2">  1       -1 0.17777879E+00 0.39927593E+04</pdfrwt>
<totfact> 0.46271547E-02</totfact>
</mgrwt>
</event>
<event>
 6    1  0.2917870E-005  0.3718120E+04  0.7818608E-02  0.8063958E-01
          1   -1    0    0  501    0  0.00000000000E+00  0.00000000000E+00  0.26735543145E+04  0.26735543145E+04  0.00000000000E+00 0. -1.
         -1   -1    0    0    0  501 -0.00000000000E+00 -0.00000000000E+00 -0.12927002500E+04  0.12927002500E+04  0.00000000000E+00 0.  1.
         23    2    1    2    0    0 -0.11261813226E+03 -0.18168057589E+04  0.10877491529E+04  0.21225147513E+04  0.91676825284E+02 0.  0.
         11    1    3    3    0    0 -0.23508874906E+01 -0.60476497911E+03  0.33192845050E+03  0.68987151186E+03  0.00000000000E+00 0.  1.
        -11    1    3    3    0    0 -0.11026724477E+03 -0.12120407798E+04  0.75582070244E+03  0.14326432394E+04  0.00000000000E+00 0. -1.
         22    1    1    2    0    0  0.11261813226E+03  0.18168057589E+04  0.29310491152E+03  0.18437398131E+04  0.00000000000E+00 0. -1.
<mgrwt>
<rscale>  0 0.37181201E+04</rscale>
<asrwt>0</asrwt>
<pdfrwt beam="1">  1        1 0.41131605E+00 0.37181201E+04</pdfrwt>
<pdfrwt beam="2">  1       -1 0.19887696E+00 0.37181201E+04</pdfrwt>
<totfact> 0.12571978E-01</totfact>
</mgrwt>
</event>
<event>
 6    1  0.2236204E-005  0.2018293E+04  0.7818608E-02  0.8598116E-01
          2   -1    0    0  501    0  0.00000000000E+00  0.00000000000E+00  0.14657159242E+04  0.14657159242E+04  0.00000000000E+00 0. -1.
         -2   -1    0    0    0  501 -0.00000000000E+00 -0.00000000000E+00 -0.69479809512E+03  0.69479809512E+03  0.00000000000E+00 0.  1.
         23    2    1    2    0    0  0.47558835605E+03  0.77322680305E+03 -0.80405178259E+02  0.91600012376E+03  0.92343167947E+02 0.  0.
         13    1    3    3    0    0  0.45925022150E+03  0.75742047351E+03 -0.91895233308E+02  0.89052864835E+03  0.00000000000E+00 0. -1.
        -13    1    3    3    0    0  0.16338134551E+02  0.15806329548E+02  0.11490055049E+02  0.25471475407E+02  0.00000000000E+00 0.  1.
         22    1    1    2    0    0 -0.47558835605E+03 -0.77322680305E+03  0.85132300730E+03  0.12445138955E+04  0.00000000000E+00 0. -1.
<mgrwt>
<rscale>  0 0.20182930E+04</rscale>
<asrwt>0</asrwt>
<pdfrwt beam="1">  1        2 0.22549476E+00 0.20182930E+04</pdfrwt>
<pdfrwt beam="2">  1       -2 0.10689201E+00 0.20182930E+04</pdfrwt>
<totfact> 0.86725043E+00</totfact>
</mgrwt>
</event>
<event>
 6    1  0.2236204E-005  0.2177361E+04  0.7818608E-02  0.8527911E-01
         -2   -1    0    0    0  501 -0.00000000000E+00  0.00000000000E+00  0.10090238836E+04  0.10090238836E+04  0.00000000000E+00 0.  1.
          2   -1    0    0  501    0  0.00000000000E+00 -0.00000000000E+00 -0.11746252188E+04  0.11746252188E+04  0.00000000000E+00 0. -1.
         23    2    1    2    0    0 -0.66421960457E+03 -0.29967104111E+03 -0.89170175731E+03  0.11549546683E+04  0.88305411962E+02 0.  0.
         11    1    3    3    0    0 -0.21285501323E+03 -0.62125151389E+02 -0.22989688864E+03  0.31940471271E+03  0.00000000000E+00 0.  1.
        -11    1    3    3    0    0 -0.45136459133E+03 -0.23754588972E+03 -0.66180486867E+03  0.83554995555E+03  0.00000000000E+00 0. -1.
         22    1    1    2    0    0  0.66421960457E+03  0.29967104111E+03  0.72610042209E+03  0.10286944342E+04  0.00000000000E+00 0.  1.
<mgrwt>
<rscale>  0 0.21773607E+04</rscale>
<asrwt>0</asrwt>
<pdfrwt beam="1">  1        2 0.18071157E+00 0.21773607E+04</pdfrwt>
<pdfrwt beam="2">  1       -2 0.15523444E+00 0.21773607E+04</pdfrwt>
<totfact> 0.49119212E+00</totfact>
</mgrwt>
</event>
<event>
 6    1  0.2236204E-005  0.1599914E+04  0.7818608E-02  0.8820601E-01
         -2   -1    0    0    0  501 -0.00000000000E+00  0.00000000000E+00  0.19212631849E+03  0.19212631849E+03  0.00000000000E+00 0.  1.
          2   -1    0    0  501    0  0.00000000000E+00 -0.00000000000E+00 -0.33307816030E+04  0.33307816030E+04  0.00000000000E+00 0. -1.
         23    2    1    2    0    0 -0.13957671555E+03  0.66308780656E+03 -0.25001756070E+04  0.25918744112E+04  0.88135116798E+02 0.  0.
         11    1    3    3    0    0 -0.78137597722E+02  0.18680583221E+03 -0.69247297674E+03  0.72147122371E+03  0.00000000000E+00 0. -1.
        -11    1    3    3    0    0 -0.61439117825E+02  0.47628197436E+03 -0.18077026303E+04  0.18704031875E+04  0.00000000000E+00 0.  1.
         22    1    1    2    0    0  0.13957671555E+03 -0.66308780656E+03 -0.63847967755E+03  0.93103351034E+03  0.00000000000E+00 0.  1.
<mgrwt>
<rscale>  0 0.15999135E+04</rscale>
<asrwt>0</asrwt>
<pdfrwt beam="1">  1        2 0.51242796E+00 0.15999135E+04</pdfrwt>
<pdfrwt beam="2">  1       -2 0.29557894E-01 0.15999135E+04</pdfrwt>
<totfact> 0.10842320E+01</totfact>
</mgrwt>
</event>
<event>
 6    1  0.2236204E-005  0.2367688E+04  0.7818608E-02  0.8451701E-01
          1   -1    0    0  501    0  0.00000000000E+00  0.00000000000E+00  0.14235489975E+04  0.14235489975E+04  0.00000000000E+00 0. -1.
         -1   -1    0    0    0  501 -0.00000000000E+00 -0.00000000000E+00 -0.98450156926E+03  0.98450156926E+03  0.00000000000E+00 0.  1.
         23    2    1    2    0    0  0.30612580419E+03  0.11363044618E+04  0.32931110626E+03  0.12261271775E+04  0.10020585208E+03 0.  0.
         13    1    3    3    0    0  0.12758316338E+03  0.59803641237E+03  0.13118339742E+03  0.62540714567E+03  0.00000000000E+00 0. -1.
        -13    1    3    3    0    0  0.17854264082E+03  0.53826804940E+03  0.19812770883E+03  0.60072003180E+03  0.00000000000E+00 0.  1.
         22    1    1    2    0    0 -0.30612580419E+03 -0.11363044618E+04  0.10973632201E+03  0.11819233893E+04  0.00000000000E+00 0.  1.
<mgrwt>
<rscale>  0 0.23676877E+04</rscale>
<asrwt>0</asrwt>
<pdfrwt beam="1">  1        1 0.21900754E+00 0.23676877E+04</pdfrwt>
<pdfrwt beam="2">  1       -1 0.15146178E+00 0.23676877E+04</pdfrwt>
<totfact> 0.22589126E+00</totfact>
</mgrwt>
</event>
<event>
 6    1  0.2236204E-005  0.1223215E+04  0.7818608E-02  0.9092775E-01
         -2   -1    0    0    0  501 -0.00000000000E+00  0.00000000000E+00  0.47337099213E+03  0.47337099213E+03  0.00000000000E+00 0.  1.
          2   -1    0    0  501    0  0.00000000000E+00 -0.00000000000E+00 -0.79021300803E+03  0.79021300803E+03  0.00000000000E+00 0. -1.
         23    2    1    2    0    0 -0.44719073655E+03 -0.15967844944E+03 -0.55203281168E+03  0.73368639449E+03  0.89881801393E+02 0.  0.
         11    1    3    3    0    0 -0.20012963402E+03 -0.44144465616E+02 -0.18263306938E+03  0.27450945756E+03  0.00000000000E+00 0.  1.
        -11    1    3    3    0    0 -0.24706110253E+03 -0.11553398383E+03 -0.36939974230E+03  0.45917693694E+03  0.00000000000E+00 0. -1.
         22    1    1    2    0    0  0.44719073655E+03  0.15967844944E+03  0.23519079577E+03  0.52989760567E+03  0.00000000000E+00 0.  1.
<mgrwt>
<rscale>  0 0.12232153E+04</rscale>
<asrwt>0</asrwt>
<pdfrwt beam="1">  1        2 0.12157123E+00 0.12232153E+04</pdfrwt>
<pdfrwt beam="2">  1       -2 0.72826307E-01 0.12232153E+04</pdfrwt>
<totfact> 0.58817474E+01</totfact>
</mgrwt>
</event>
<event>
 6    1  0.2236204E-005  0.1519195E+04  0.7818608E-02  0.8871788E-01
          2   -1    0    0  501    0  0.00000000000E+00  0.00000000000E+00  0.10057452643E+04  0.10057452643E+04  0.00000000000E+00 0. -1.
         -2   -1    0    0    0  501 -0.00000000000E+00 -0.00000000000E+00 -0.57369267563E+03  0.57369267563E+03  0.00000000000E+00 0.  1.
         23    2    1    2    0    0 -0.52451189097E+03 -0.52355225039E+03  0.56277920465E+02  0.74851900050E+03  0.88847099635E+02 0.  0.
         13    1    3    3    0    0 -0.21661391283E+03 -0.25173180867E+03 -0.11240998947E+02  0.33229031101E+03  0.00000000000E+00 0. -1.
        -13    1    3    3    0    0 -0.30789797814E+03 -0.27182044172E+03  0.67518919412E+02  0.41622868949E+03  0.00000000000E+00 0.  1.
         22    1    1    2    0    0  0.52451189097E+03  0.52355225039E+03  0.37577466821E+03  0.83091893944E+03  0.00000000000E+00 0. -1.
<mgrwt>
<rscale>  0 0.15191954E+04</rscale>
<asrwt>0</asrwt>
<pdfrwt beam="1">  1        2 0.15473004E+00 0.15191954E+04</pdfrwt>
<pdfrwt beam="2">  1       -2 0.88260412E-01 0.15191954E+04</pdfrwt>
<totfact> 0.26642919E+01</totfact>
</mgrwt>
</event>
<event>
 6    1  0.2236204E-005  0.7208577E+03  0.7818608E-02  0.9682213E-01
          2   -1    0    0  501    0  0.00000000000E+00  0.00000000000E+00  0.27922099463E+04  0.27922099463E+04  0.00000000000E+00 0. -1.
         -2   -1    0    0    0  501 -0.00000000000E+00 -0.00000000000E+00 -0.46525495988E+02  0.46525495988E+02  0.00000000000E+00 0.  1.
         23    2    1    2    0    0  0.16875615002E+03 -0.17874285538E+03  0.24020767013E+04  0.24162500204E+04  0.88679398125E+02 0.  0.
         13    1    3    3    0    0  0.81304754336E+02 -0.10022010557E+03  0.85133831029E+03  0.86106413884E+03  0.00000000000E+00 0. -1.
        -13    1    3    3    0    0  0.87451395688E+02 -0.78522749807E+02  0.15507383910E+04  0.15551858816E+04  0.00000000000E+00 0.  1.
         22    1    1    2    0    0 -0.16875615002E+03  0.17874285538E+03  0.34360774898E+03  0.42248542185E+03  0.00000000000E+00 0.  1.
<mgrwt>
<rscale>  0 0.72085769E+03</rscale>
<asrwt>0</asrwt>
<pdfrwt beam="1">  1        2 0.42957063E+00 0.72085769E+03</pdfrwt>
<pdfrwt beam="2">  1       -2 0.71577708E-02 0.72085769E+03</pdfrwt>
<totfact> 0.28861124E+02</totfact>
</mgrwt>
</event>
<event>
 6    1  0.2236204E-005  0.2869108E+04  0.7818608E-02  0.8282129E-01
         -2   -1    0    0    0  501 -0.00000000000E+00  0.00000000000E+00  0.71485375752E+03  0.71485375752E+03  0.00000000000E+00 0.  1.
          2   -1    0    0  501    0  0.00000000000E+00 -0.00000000000E+00 -0.28788334283E+04  0.28788334283E+04  0.00000000000E+00 0. -1.
         23    2    1    2    0    0  0.86687524322E+02  0.25807349923E+03 -0.28454379395E+04  0.28598602103E+04  0.90369777601E+02 0.  0.
         11    1    3    3    0    0  0.33142162457E+02  0.12926652925E+02 -0.30924450085E+03  0.31128389389E+03  0.00000000000E+00 0. -1.
        -11    1    3    3    0    0  0.53545361864E+02  0.24514684631E+03 -0.25361934387E+04  0.25485763164E+04  0.00000000000E+00 0.  1.
         22    1    1    2    0    0 -0.86687524322E+02 -0.25807349923E+03  0.68145826880E+03  0.73382697551E+03  0.00000000000E+00 0.  1.
<mgrwt>
<rscale>  0 0.28691078E+04</rscale>
<asrwt>0</asrwt>
<pdfrwt beam="1">  1        2 0.44289745E+00 0.28691078E+04</pdfrwt>
<pdfrwt beam="2">  1       -2 0.10997750E+00 0.28691078E+04</pdfrwt>
<totfact> 0.11769200E+00</totfact>
</mgrwt>
</event>
<event>
 6    1  0.2236204E-005  0.3832437E+04  0.7818608E-02  0.8039230E-01
         -1   -1    0    0    0  501 -0.00000000000E+00  0.00000000000E+00  0.12819783198E+04  0.12819783198E+04  0.00000000000E+00 0.  1.
          1   -1    0    0  501    0  0.00000000000E+00 -0.00000000000E+00 -0.28642399818E+04  0.28642399818E+04  0.00000000000E+00 0. -1.
         23    2    1    2    0    0  0.12107539528E+04  0.30417904110E+02 -0.23965291864E+04  0.26868067816E+04  0.93424607537E+02 0.  0.
         11    1    3    3    0    0  0.23700958085E+03  0.33056787952E+02 -0.53107614373E+03  0.58250164213E+03  0.00000000000E+00 0.  1.
        -11    1    3    3    0    0  0.97374437195E+03 -0.26388838427E+01 -0.18654530427E+04  0.21043051395E+04  0.00000000000E+00 0. -1.
         22    1    1    2    0    0 -0.12107539528E+04 -0.30417904110E+02  0.81426752445E+03  0.14594115199E+04  0.00000000000E+00 0.  1.
<mgrwt>
<rscale>  0 0.38324371E+04</rscale>
<asrwt>0</asrwt>
<pdfrwt beam="1">  1        1 0.44065231E+00 0.38324371E+04</pdfrwt>
<pdfrwt beam="2">  1       -1 0.19722743E+00 0.38324371E+04</pdfrwt>
<totfact> 0.93535748E-02</totfact>
</mgrwt>
</event>
<event>
 6    1  0.2236204E-005  0.2669940E+04  0.7818608E-02  0.8344825E-01
         -2   -1    0    0    0  501 -0.00000000000E+00  0.00000000000E+00  0.16390208492E+04  0.16390208492E+04  0.00000000000E+00 0. -1.
          2   -1    0    0  501    0  0.00000000000E+00 -0.00000000000E+00 -0.10873231406E+04  0.10873231406E+04  0.00000000000E+00 0.  1.
         23    2    1    2    0    0  0.22513304426E+03  0.12817828997E+04  0.57282922001E+03  0.14247684713E+04  0.90441096158E+02 0.  0.
         13    1    3    3    0    0  0.19845123430E+03  0.11023150344E+04  0.45809962887E+03  0.12100977636E+04  0.00000000000E+00 0. -1.
        -13    1    3    3    0    0  0.26681809966E+02  0.17946786524E+03  0.11472959113E+03  0.21467070764E+03  0.00000000000E+00 0.  1.
         22    1    1    2    0    0 -0.22513304426E+03 -0.12817828997E+04 -0.21131511391E+02  0.13015755185E+04  0.00000000000E+00 0. -1.
<mgrwt>
<rscale>  0 0.26699403E+04</rscale>
<asrwt>0</asrwt>
<pdfrwt beam="1">  1        2 0.16728048E+00 0.26699403E+04</pdfrwt>
<pdfrwt beam="2">  1       -2 0.25215705E+00 0.26699403E+04</pdfrwt>
<totfact> 0.12159315E+00</totfact>
</mgrwt>
</event>
<event>
 6    1  0.2236204E-005  0.1658860E+04  0.7818608E-02  0.8785182E-01
         -2   -1    0    0    0  501 -0.00000000000E+00  0.00000000000E+00  0.29976792891E+03  0.29976792891E+03  0.00000000000E+00 0.  1.
          2   -1    0    0  501    0  0.00000000000E+00 -0.00000000000E+00 -0.22949547069E+04  0.22949547069E+04  0.00000000000E+00 0. -1.
         23    2    1    2    0    0  0.29103127068E+03  0.76920570632E+03 -0.11381362462E+04  0.14069043698E+04  0.87459542436E+02 0.  0.
         13    1    3    3    0    0  0.23857724853E+03  0.52353477216E+03 -0.81483578408E+03  0.99747938134E+03  0.00000000000E+00 0.  1.
        -13    1    3    3    0    0  0.52454022148E+02  0.24567093417E+03 -0.32330046216E+03  0.40942498845E+03  0.00000000000E+00 0. -1.
         22    1    1    2    0    0 -0.29103127068E+03 -0.76920570632E+03 -0.85705053175E+03  0.11878182660E+04  0.00000000000E+00 0. -1.
<mgrwt>
<rscale>  0 0.16588596E+04</rscale>
<asrwt>0</asrwt>
<pdfrwt beam="1">  1        2 0.35306994E+00 0.16588596E+04</pdfrwt>
<pdfrwt beam="2">  1       -2 0.46118144E-01 0.16588596E+04</pdfrwt>
<totfact> 0.19439174E+01</totfact>
</mgrwt>
</event>
<event>
 6    1  0.2236204E-005  0.3513376E+04  0.7818608E-02  0.8110627E-01
          2   -1    0    0  501    0  0.00000000000E+00  0.00000000000E+00  0.34948351304E+04  0.34948351304E+04  0.00000000000E+00 0. -1.
         -2   -1    0    0    0  501 -0.00000000000E+00 -0.00000000000E+00 -0.88300375957E+03  0.88300375957E+03  0.00000000000E+00 0.  1.
         23    2    1    2    0    0  0.13108459448E+04  0.10406517096E+04  0.64664824540E+03  0.17965179513E+04  0.89720256923E+02 0.  0.
         13    1    3    3    0    0  0.15353425737E+03  0.87176814246E+02  0.72440895408E+02  0.19084089828E+03  0.00000000000E+00 0.  1.
        -13    1    3    3    0    0  0.11573116874E+04  0.95347489534E+03  0.57420734999E+03  0.16056770531E+04  0.00000000000E+00 0. -1.
         22    1    1    2    0    0 -0.13108459448E+04 -0.10406517096E+04  0.19651831254E+04  0.25813209386E+04  0.00000000000E+00 0.  1.
<mgrwt>
<rscale>  0 0.35133759E+04</rscale>
<asrwt>0</asrwt>
<pdfrwt beam="1">  1        2 0.53766694E+00 0.35133759E+04</pdfrwt>
<pdfrwt beam="2">  1       -2 0.13584673E+00 0.35133759E+04</pdfrwt>
<totfact> 0.26082884E-01</totfact>
</mgrwt>
</event>
<event>
 6    1  0.2236204E-005  0.3547069E+04  0.7818608E-02  0.8102725E-01
          2   -1    0    0  501    0  0.00000000000E+00  0.00000000000E+00  0.22866594044E+04  0.22866594044E+04  0.00000000000E+00 0. -1.
         -2   -1    0    0    0  501 -0.00000000000E+00 -0.00000000000E+00 -0.13755544000E+04  0.13755544000E+04  0.00000000000E+00 0.  1.
         23    2    1    2    0    0  0.30218318964E+03  0.10742242576E+04 -0.96583440448E+03  0.14785989160E+04  0.90256422972E+02 0.  0.
         13    1    3    3    0    0  0.20933790082E+03  0.58964328516E+03 -0.56113299170E+03  0.84045927613E+03  0.00000000000E+00 0. -1.
        -13    1    3    3    0    0  0.92845288817E+02  0.48458097245E+03 -0.40470141277E+03  0.63813963990E+03  0.00000000000E+00 0.  1.
         22    1    1    2    0    0 -0.30218318964E+03 -0.10742242576E+04  0.18769394089E+04  0.21836148883E+04  0.00000000000E+00 0. -1.
<mgrwt>
<rscale>  0 0.35470689E+04</rscale>
<asrwt>0</asrwt>
<pdfrwt beam="1">  1        2 0.35179375E+00 0.35470689E+04</pdfrwt>
<pdfrwt beam="2">  1       -2 0.21162375E+00 0.35470689E+04</pdfrwt>
<totfact> 0.42214093E-01</totfact>
</mgrwt>
</event>
<event>
 6    1  0.2236204E-005  0.1093574E+04  0.7818608E-02  0.9211477E-01
         -2   -1    0    0    0  501 -0.00000000000E+00  0.00000000000E+00  0.40542306153E+03  0.40542306153E+03  0.00000000000E+00 0.  1.
          2   -1    0    0  501    0  0.00000000000E+00 -0.00000000000E+00 -0.73744248758E+03  0.73744248758E+03  0.00000000000E+00 0. -1.
         23    2    1    2    0    0  0.29172081272E+03 -0.17153737863E+03  0.27632406606E+03  0.44672769693E+03  0.93190884100E+02 0.  0.
         11    1    3    3    0    0  0.20081866501E+03 -0.70538227624E+02  0.14343576548E+03  0.25666631370E+03  0.00000000000E+00 0. -1.
        -11    1    3    3    0    0  0.90902147715E+02 -0.10099915100E+03  0.13288830058E+03  0.19006138323E+03  0.00000000000E+00 0.  1.
         22    1    1    2    0    0 -0.29172081272E+03  0.17153737863E+03 -0.60834349211E+03  0.69613785218E+03  0.00000000000E+00 0. -1.
<mgrwt>
<rscale>  0 0.10935743E+04</rscale>
<asrwt>0</asrwt>
<pdfrwt beam="1">  1        2 0.11345269E+00 0.10935743E+04</pdfrwt>
<pdfrwt beam="2">  1       -2 0.62372779E-01 0.10935743E+04</pdfrwt>
<totfact> 0.90839798E+01</totfact>
</mgrwt>
</event>
<event>
 6    1  0.2236204E-005  0.1499714E+04  0.7818608E-02  0.8884643E-01
          2   -1    0    0  501    0  0.00000000000E+00  0.00000000000E+00  0.11057104931E+04  0.11057104931E+04  0.00000000000E+00 0. -1.
         -2   -1    0    0    0  501 -0.00000000000E+00 -0.00000000000E+00 -0.50852871327E+03  0.50852871327E+03  0.00000000000E+00 0.  1.
         23    2    1    2    0    0 -0.27295381825E+03  0.68919057732E+03  0.19876786327E+03  0.77268048134E+03  0.89660604549E+02 0.  0.
         13    1    3    3    0    0 -0.60110721525E+02  0.73023459743E+02  0.19238867476E+02  0.96518695271E+02  0.00000000000E+00 0.  1.
        -13    1    3    3    0    0 -0.21284309673E+03  0.61616711758E+03  0.17952899579E+03  0.67616178607E+03  0.00000000000E+00 0. -1.
         22    1    1    2    0    0  0.27295381825E+03 -0.68919057732E+03  0.39841391657E+03  0.84155872504E+03  0.00000000000E+00 0. -1.
<mgrwt>
<rscale>  0 0.14997140E+04</rscale>
<asrwt>0</asrwt>
<pdfrwt beam="1">  1        2 0.17010931E+00 0.14997140E+04</pdfrwt>
<pdfrwt beam="2">  1       -2 0.78235187E-01 0.14997140E+04</pdfrwt>
<totfact> 0.30350460E+01</totfact>
</mgrwt>
</event>
<event>
 6    1  0.2236204E-005  0.1577943E+04  0.7818608E-02  0.8834214E-01
         -2   -1    0    0    0  501 -0.00000000000E+00  0.00000000000E+00  0.80451566975E+03  0.80451566975E+03  0.00000000000E+00 0.  1.
          2   -1    0    0  501    0  0.00000000000E+00 -0.00000000000E+00 -0.77372801505E+03  0.77372801505E+03  0.00000000000E+00 0. -1.
         23    2    1    2    0    0  0.53374512734E+03  0.57561826881E+03  0.38056495298E+02  0.79321305586E+03  0.10732382215E+03 0.  0.
         13    1    3    3    0    0  0.24166992129E+03  0.25757363549E+03  0.70575801003E+02  0.36017977767E+03  0.00000000000E+00 0. -1.
        -13    1    3    3    0    0  0.29207520605E+03  0.31804463332E+03 -0.32519305705E+02  0.43303327818E+03  0.00000000000E+00 0.  1.
         22    1    1    2    0    0 -0.53374512734E+03 -0.57561826881E+03 -0.72688405949E+01  0.78503062895E+03  0.00000000000E+00 0.  1.
<mgrwt>
<rscale>  0 0.15779434E+04</rscale>
<asrwt>0</asrwt>
<pdfrwt beam="1">  1        2 0.11903508E+00 0.15779434E+04</pdfrwt>
<pdfrwt beam="2">  1       -2 0.12377164E+00 0.15779434E+04</pdfrwt>
<totfact> 0.16995733E+01</totfact>
</mgrwt>
</event>
<event>
 6    1  0.2236204E-005  0.1700508E+04  0.7818608E-02  0.8761075E-01
         -1   -1    0    0    0  501 -0.00000000000E+00  0.00000000000E+00  0.63596791466E+03  0.63596791466E+03  0.00000000000E+00 0.  1.
          1   -1    0    0  501    0  0.00000000000E+00 -0.00000000000E+00 -0.11367420091E+04  0.11367420091E+04  0.00000000000E+00 0. -1.
         23    2    1    2    0    0  0.83198364897E+03 -0.15610877211E+03 -0.29969828730E+03  0.90265347666E+03  0.91637844988E+02 0.  0.
         13    1    3    3    0    0  0.35293533187E+03 -0.10210489657E+03 -0.16002111149E+03  0.40074370177E+03  0.00000000000E+00 0. -1.
        -13    1    3    3    0    0  0.47904831710E+03 -0.54003875544E+02 -0.13967717581E+03  0.50190977489E+03  0.00000000000E+00 0.  1.
         22    1    1    2    0    0 -0.83198364897E+03  0.15610877211E+03 -0.20107580711E+03  0.87005644707E+03  0.00000000000E+00 0.  1.
<mgrwt>
<rscale>  0 0.17005075E+04</rscale>
<asrwt>0</asrwt>
<pdfrwt beam="1">  1        1 0.17488339E+00 0.17005075E+04</pdfrwt>
<pdfrwt beam="2">  1       -1 0.97841217E-01 0.17005075E+04</pdfrwt>
<totfact> 0.11344831E+01</totfact>
</mgrwt>
</event>
<event>
 6    1  0.2236204E-005  0.1241938E+04  0.7818608E-02  0.9076920E-01
         -2   -1    0    0    0  501 -0.00000000000E+00  0.00000000000E+00  0.15617978973E+03  0.15617978973E+03  0.00000000000E+00 0.  1.
          2   -1    0    0  501    0  0.00000000000E+00 -0.00000000000E+00 -0.24689639538E+04  0.24689639538E+04  0.00000000000E+00 0. -1.
         23    2    1    2    0    0 -0.50305362263E+03 -0.77097319864E+01 -0.40550089453E+03  0.65261950857E+03  0.91426802943E+02 0.  0.
         13    1    3    3    0    0 -0.34571132281E+03 -0.47747687385E+02 -0.27775511026E+03  0.44603145814E+03  0.00000000000E+00 0. -1.
        -13    1    3    3    0    0 -0.15734229981E+03  0.40037955399E+02 -0.12774578427E+03  0.20658805043E+03  0.00000000000E+00 0.  1.
         22    1    1    2    0    0  0.50305362263E+03  0.77097319864E+01 -0.19072832695E+04  0.19725242349E+04  0.00000000000E+00 0. -1.
<mgrwt>
<rscale>  0 0.12419376E+04</rscale>
<asrwt>0</asrwt>
<pdfrwt beam="1">  1        2 0.37984060E+00 0.12419376E+04</pdfrwt>
<pdfrwt beam="2">  1       -2 0.24027660E-01 0.12419376E+04</pdfrwt>
<totfact> 0.55323801E+01</totfact>
</mgrwt>
</event>
<event>
 6    1  0.2236204E-005  0.5090914E+04  0.7818608E-02  0.7814634E-01
         -1   -1    0    0    0  501 -0.00000000000E+00  0.00000000000E+00  0.20824092754E+04  0.20824092754E+04  0.00000000000E+00 0.  1.
          1   -1    0    0  501    0  0.00000000000E+00 -0.00000000000E+00 -0.31114688166E+04  0.31114688166E+04  0.00000000000E+00 0. -1.
         23    2    1    2    0    0 -0.15551735632E+04 -0.19451708221E+04 -0.10477592410E+04  0.27033753279E+04  0.90467661469E+02 0.  0.
         13    1    3    3    0    0 -0.23140348765E+03 -0.24102597120E+03 -0.14693029814E+03  0.36500630871E+03  0.00000000000E+00 0. -1.
        -13    1    3    3    0    0 -0.13237700756E+04 -0.17041448509E+04 -0.90082894290E+03  0.23383690192E+04  0.00000000000E+00 0.  1.
         22    1    1    2    0    0  0.15551735632E+04  0.19451708221E+04  0.18699699853E+02  0.24905027640E+04  0.00000000000E+00 0. -1.
<mgrwt>
<rscale>  0 0.50909141E+04</rscale>
<asrwt>0</asrwt>
<pdfrwt beam="1">  1        1 0.47868751E+00 0.50909141E+04</pdfrwt>
<pdfrwt beam="2">  1       -1 0.32037066E+00 0.50909141E+04</pdfrwt>
<totfact> 0.86321260E-03</totfact>
</mgrwt>
</event>
<event>
 6    1  0.2236204E-005  0.2998385E+04  0.7818608E-02  0.8244192E-01
          2   -1    0    0  501    0  0.00000000000E+00  0.00000000000E+00  0.11438654621E+04  0.11438654621E+04  0.00000000000E+00 0. -1.
         -2   -1    0    0    0  501 -0.00000000000E+00 -0.00000000000E+00 -0.19648973468E+04  0.19648973468E+04  0.00000000000E+00 0.  1.
         23    2    1    2    0    0  0.64302395287E+03 -0.11392143695E+03  0.98667823635E+03  0.11867134393E+04  0.91087579501E+02 0.  0.
         13    1    3    3    0    0  0.97590401403E+02 -0.40728701543E+01  0.98957567993E+02  0.13904342840E+03  0.00000000000E+00 0.  1.
        -13    1    3    3    0    0  0.54543355147E+03 -0.10984856680E+03  0.88772066836E+03  0.10476700109E+04  0.00000000000E+00 0. -1.
         22    1    1    2    0    0 -0.64302395287E+03  0.11392143695E+03 -0.18077101211E+04  0.19220493697E+04  0.00000000000E+00 0.  1.
<mgrwt>
<rscale>  0 0.29983850E+04</rscale>
<asrwt>0</asrwt>
<pdfrwt beam="1">  1        2 0.17597930E+00 0.29983850E+04</pdfrwt>
<pdfrwt beam="2">  1       -2 0.30229189E+00 0.29983850E+04</pdfrwt>
<totfact> 0.53944956E-01</totfact>
</mgrwt>
</event>
<event>
 6    1  0.4441270E-005  0.4365877E+04  0.7818608E-02  0.7934548E-01
          2   -1    0    0  501    0  0.00000000000E+00  0.00000000000E+00  0.19542447837E+04  0.19542447837E+04  0.00000000000E+00 0. -1.
         -2   -1    0    0    0  501 -0.00000000000E+00 -0.00000000000E+00 -0.24383952722E+04  0.24383952722E+04  0.00000000000E+00 0.  1.
         23    2    1    2    0    0  0.19531168547E+04  0.68392054234E+03  0.45403315168E+03  0.21205042107E+04  0.89326639476E+02 0.  0.
         13    1    3    3    0    0  0.71853203687E+03  0.26390970970E+03  0.12551574732E+03  0.77568732471E+03  0.00000000000E+00 0.  1.
        -13    1    3    3    0    0  0.12345848178E+04  0.42001083265E+03  0.32851740436E+03  0.13448168860E+04  0.00000000000E+00 0. -1.
         22    1    1    2    0    0 -0.19531168547E+04 -0.68392054234E+03 -0.93818364025E+03  0.22721358452E+04  0.00000000000E+00 0.  1.
<mgrwt>
<rscale>  0 0.43658773E+04</rscale>
<asrwt>0</asrwt>
<pdfrwt beam="1">  1        2 0.30065304E+00 0.43658773E+04</pdfrwt>
<pdfrwt beam="2">  1       -2 0.37513774E+00 0.43658773E+04</pdfrwt>
<totfact> 0.58386867E-02</totfact>
</mgrwt>
</event>
<event>
 6    1  0.2236204E-005  0.4240618E+04  0.7818608E-02  0.7957691E-01
          2   -1    0    0  501    0  0.00000000000E+00  0.00000000000E+00  0.24818564046E+04  0.24818564046E+04  0.00000000000E+00 0. -1.
         -2   -1    0    0    0  501 -0.00000000000E+00 -0.00000000000E+00 -0.18114305462E+04  0.18114305462E+04  0.00000000000E+00 0.  1.
         23    2    1    2    0    0  0.32864251700E+03 -0.16054197172E+04 -0.10247371482E+04  0.19355431158E+04  0.10422359608E+03 0.  0.
         13    1    3    3    0    0  0.58060596168E+02 -0.17604560211E+03 -0.14618663902E+03  0.23607969052E+03  0.00000000000E+00 0. -1.
        -13    1    3    3    0    0  0.27058192083E+03 -0.14293741151E+04 -0.87855050918E+03  0.16994634253E+04  0.00000000000E+00 0.  1.
         22    1    1    2    0    0 -0.32864251700E+03  0.16054197172E+04  0.16951630066E+04  0.23577438350E+04  0.00000000000E+00 0.  1.
<mgrwt>
<rscale>  0 0.42406181E+04</rscale>
<asrwt>0</asrwt>
<pdfrwt beam="1">  1        2 0.38182406E+00 0.42406181E+04</pdfrwt>
<pdfrwt beam="2">  1       -2 0.27868162E+00 0.42406181E+04</pdfrwt>
<totfact> 0.11838107E-01</totfact>
</mgrwt>
</event>
<event>
 6    1  0.2236204E-005  0.2208103E+04  0.7818608E-02  0.8515063E-01
          2   -1    0    0  501    0  0.00000000000E+00  0.00000000000E+00  0.40491887336E+04  0.40491887336E+04  0.00000000000E+00 0. -1.
         -2   -1    0    0    0  501 -0.00000000000E+00 -0.00000000000E+00 -0.30103064170E+03  0.30103064170E+03  0.00000000000E+00 0.  1.
         23    2    1    2    0    0  0.80265783003E+03 -0.75494182537E+03  0.18735718397E+04  0.21757607373E+04  0.97296430155E+02 0.  0.
         11    1    3    3    0    0  0.15200576972E+03 -0.98863380986E+02  0.34011040971E+03  0.38542809047E+03  0.00000000000E+00 0.  1.
        -11    1    3    3    0    0  0.65065206031E+03 -0.65607844439E+03  0.15334614300E+04  0.17903326468E+04  0.00000000000E+00 0. -1.
         22    1    1    2    0    0 -0.80265783003E+03  0.75494182537E+03  0.18745862522E+04  0.21744586381E+04  0.00000000000E+00 0.  1.
<mgrwt>
<rscale>  0 0.22081032E+04</rscale>
<asrwt>0</asrwt>
<pdfrwt beam="1">  1        2 0.62295208E+00 0.22081032E+04</pdfrwt>
<pdfrwt beam="2">  1       -2 0.46312409E-01 0.22081032E+04</pdfrwt>
<totfact> 0.12687578E+00</totfact>
</mgrwt>
</event>
<event>
 6    1  0.2236204E-005  0.9917353E+03  0.7818608E-02  0.9317656E-01
         -2   -1    0    0    0  501 -0.00000000000E+00  0.00000000000E+00  0.17652288368E+03  0.17652288368E+03  0.00000000000E+00 0.  1.
          2   -1    0    0  501    0  0.00000000000E+00 -0.00000000000E+00 -0.13929340885E+04  0.13929340885E+04  0.00000000000E+00 0. -1.
         23    2    1    2    0    0 -0.12257043987E+03 -0.44721372053E+03 -0.87253619918E+03  0.99215839773E+03  0.89639515528E+02 0.  0.
         11    1    3    3    0    0 -0.12483158168E+03 -0.31551920448E+03 -0.66006589349E+03  0.74217401997E+03  0.00000000000E+00 0. -1.
        -11    1    3    3    0    0  0.22611418126E+01 -0.13169451605E+03 -0.21247030570E+03  0.24998437776E+03  0.00000000000E+00 0.  1.
         22    1    1    2    0    0  0.12257043987E+03  0.44721372053E+03 -0.34387500564E+03  0.57729857445E+03  0.00000000000E+00 0. -1.
<mgrwt>
<rscale>  0 0.99173533E+03</rscale>
<asrwt>0</asrwt>
<pdfrwt beam="1">  1        2 0.21429754E+00 0.99173533E+03</pdfrwt>
<pdfrwt beam="2">  1       -2 0.27157368E-01 0.99173533E+03</pdfrwt>
<totfact> 0.17969558E+02</totfact>
</mgrwt>
</event>
<event>
 6    1  0.2236204E-005  0.2500240E+04  0.7818608E-02  0.8402900E-01
         -2   -1    0    0    0  501 -0.00000000000E+00  0.00000000000E+00  0.16089188657E+04  0.16089188657E+04  0.00000000000E+00 0.  1.
          2   -1    0    0  501    0  0.00000000000E+00 -0.00000000000E+00 -0.97133512603E+03  0.97133512603E+03  0.00000000000E+00 0. -1.
         23    2    1    2    0    0  0.20785815329E+03  0.16156256275E+03 -0.94022046668E+03  0.98063729166E+03  0.91255127323E+02 0.  0.
         11    1    3    3    0    0  0.80757525650E+02  0.72954488159E+02 -0.55227984582E+03  0.56290066921E+03  0.00000000000E+00 0.  1.
        -11    1    3    3    0    0  0.12710062764E+03  0.88608074592E+02 -0.38794062086E+03  0.41773662245E+03  0.00000000000E+00 0. -1.
         22    1    1    2    0    0 -0.20785815329E+03 -0.16156256275E+03  0.15778042063E+04  0.15996167000E+04  0.00000000000E+00 0.  1.
<mgrwt>
<rscale>  0 0.25002395E+04</rscale>
<asrwt>0</asrwt>
<pdfrwt beam="1">  1        2 0.14943617E+00 0.25002395E+04</pdfrwt>
<pdfrwt beam="2">  1       -2 0.24752598E+00 0.25002395E+04</pdfrwt>
<totfact> 0.15603114E+00</totfact>
</mgrwt>
</event>
<event>
 6    1  0.2236204E-005  0.3831609E+04  0.7818608E-02  0.8039405E-01
         -1   -1    0    0    0  501 -0.00000000000E+00  0.00000000000E+00  0.14822704690E+04  0.14822704690E+04  0.00000000000E+00 0.  1.
          1   -1    0    0  501    0  0.00000000000E+00 -0.00000000000E+00 -0.24761387107E+04  0.24761387107E+04  0.00000000000E+00 0. -1.
         23    2    1    2    0    0  0.54303866609E+03  0.17017447778E+04 -0.12094398162E+04  0.21591600626E+04  0.91658196985E+02 0.  0.
         13    1    3    3    0    0  0.20691765306E+03  0.52143278240E+03 -0.40103845006E+03  0.68959328603E+03  0.00000000000E+00 0. -1.
        -13    1    3    3    0    0  0.33612101304E+03  0.11803119954E+04 -0.80840136612E+03  0.14695667765E+04  0.00000000000E+00 0.  1.
         22    1    1    2    0    0 -0.54303866609E+03 -0.17017447778E+04  0.21557157443E+03  0.17992491171E+04  0.00000000000E+00 0. -1.
<mgrwt>
<rscale>  0 0.38316092E+04</rscale>
<asrwt>0</asrwt>
<pdfrwt beam="1">  1        1 0.38094441E+00 0.38316092E+04</pdfrwt>
<pdfrwt beam="2">  1       -1 0.22804161E+00 0.38316092E+04</pdfrwt>
<totfact> 0.10862668E-01</totfact>
</mgrwt>
</event>
<event>
 6    1  0.2236204E-005  0.1671520E+04  0.7818608E-02  0.8777776E-01
          2   -1    0    0  501    0  0.00000000000E+00  0.00000000000E+00  0.35482504246E+04  0.35482504246E+04  0.00000000000E+00 0. -1.
         -2   -1    0    0    0  501 -0.00000000000E+00 -0.00000000000E+00 -0.19685617196E+03  0.19685617196E+03  0.00000000000E+00 0.  1.
         23    2    1    2    0    0  0.45544642802E+03 -0.51334157863E+03  0.27396584270E+04  0.28257743685E+04  0.91222037284E+02 0.  0.
         11    1    3    3    0    0  0.33884939712E+03 -0.43654915373E+03  0.22015053299E+04  0.22698061140E+04  0.00000000000E+00 0. -1.
        -11    1    3    3    0    0  0.11659703091E+03 -0.76792424906E+02  0.53815309702E+03  0.55596825446E+03  0.00000000000E+00 0.  1.
         22    1    1    2    0    0 -0.45544642802E+03  0.51334157863E+03  0.61173582571E+03  0.91933222809E+03  0.00000000000E+00 0.  1.
<mgrwt>
<rscale>  0 0.16715203E+04</rscale>
<asrwt>0</asrwt>
<pdfrwt beam="1">  1        2 0.54588464E+00 0.16715203E+04</pdfrwt>
<pdfrwt beam="2">  1       -2 0.30285567E-01 0.16715203E+04</pdfrwt>
<totfact> 0.73030011E+00</totfact>
</mgrwt>
</event>
<event>
 6    1  0.2236204E-005  0.4211031E+03  0.7818608E-02  0.1036708E+00
         -2   -1    0    0    0  501 -0.00000000000E+00  0.00000000000E+00  0.22325617405E+03  0.22325617405E+03  0.00000000000E+00 0.  1.
          2   -1    0    0  501    0  0.00000000000E+00 -0.00000000000E+00 -0.19856987632E+03  0.19856987632E+03  0.00000000000E+00 0. -1.
         23    2    1    2    0    0  0.12216774690E+03 -0.82676885408E+02 -0.12268644900E+03  0.21330949889E+03  0.93212401464E+02 0.  0.
         13    1    3    3    0    0  0.58132622014E+02 -0.92872317290E+02 -0.80347147329E+02  0.13586880858E+03  0.00000000000E+00 0. -1.
        -13    1    3    3    0    0  0.64035124883E+02  0.10195431882E+02 -0.42339301668E+02  0.77440690311E+02  0.00000000000E+00 0.  1.
         22    1    1    2    0    0 -0.12216774690E+03  0.82676885408E+02  0.14737274673E+03  0.20851655148E+03  0.00000000000E+00 0.  1.
<mgrwt>
<rscale>  0 0.42110308E+03</rscale>
<asrwt>0</asrwt>
<pdfrwt beam="1">  1        2 0.30549212E-01 0.42110308E+03</pdfrwt>
<pdfrwt beam="2">  1       -2 0.34347104E-01 0.42110308E+03</pdfrwt>
<totfact> 0.13778697E+03</totfact>
</mgrwt>
</event>
<event>
 6    1  0.2236204E-005  0.2764617E+04  0.7818608E-02  0.8314338E-01
          2   -1    0    0  501    0  0.00000000000E+00  0.00000000000E+00  0.12279529391E+04  0.12279529391E+04  0.00000000000E+00 0. -1.
         -2   -1    0    0    0  501 -0.00000000000E+00 -0.00000000000E+00 -0.15560671333E+04  0.15560671333E+04  0.00000000000E+00 0.  1.
         23    2    1    2    0    0  0.19970344518E+03  0.30011534422E+03  0.11780937346E+04  0.12352744475E+04  0.89707452729E+02 0.  0.
         13    1    3    3    0    0  0.35072250086E+02  0.11401017690E+03  0.46805823335E+03  0.48301852239E+03  0.00000000000E+00 0. -1.
        -13    1    3    3    0    0  0.16463119510E+03  0.18610516732E+03  0.71003550130E+03  0.75225592507E+03  0.00000000000E+00 0.  1.
         22    1    1    2    0    0 -0.19970344518E+03 -0.30011534422E+03 -0.15062079288E+04  0.15487456249E+04  0.00000000000E+00 0.  1.
<mgrwt>
<rscale>  0 0.27646173E+04</rscale>
<asrwt>0</asrwt>
<pdfrwt beam="1">  1        2 0.18891584E+00 0.27646173E+04</pdfrwt>
<pdfrwt beam="2">  1       -2 0.23939494E+00 0.27646173E+04</pdfrwt>
<totfact> 0.11885138E+00</totfact>
</mgrwt>
</event>
<event>
 6    1  0.2236204E-005  0.2611618E+04  0.7818608E-02  0.8364266E-01
         -2   -1    0    0    0  501 -0.00000000000E+00  0.00000000000E+00  0.11547631871E+04  0.11547631871E+04  0.00000000000E+00 0.  1.
          2   -1    0    0  501    0  0.00000000000E+00 -0.00000000000E+00 -0.14766118462E+04  0.14766118462E+04  0.00000000000E+00 0. -1.
         23    2    1    2    0    0  0.10986232548E+04  0.13068718962E+03  0.53477813974E+03  0.12321389311E+04  0.90147042263E+02 0.  0.
         11    1    3    3    0    0  0.26857986553E+03  0.36018601609E+02  0.89023075528E+02  0.28523252235E+03  0.00000000000E+00 0. -1.
        -11    1    3    3    0    0  0.83004338923E+03  0.94668588013E+02  0.44575506421E+03  0.94690640870E+03  0.00000000000E+00 0.  1.
         22    1    1    2    0    0 -0.10986232548E+04 -0.13068718962E+03 -0.85662679878E+03  0.13992361022E+04  0.00000000000E+00 0.  1.
<mgrwt>
<rscale>  0 0.26116179E+04</rscale>
<asrwt>0</asrwt>
<pdfrwt beam="1">  1        2 0.22717105E+00 0.26116179E+04</pdfrwt>
<pdfrwt beam="2">  1       -2 0.17765588E+00 0.26116179E+04</pdfrwt>
<totfact> 0.21773953E+00</totfact>
</mgrwt>
</event>
<event>
 6    1  0.2236204E-005  0.1786931E+04  0.7818608E-02  0.8713280E-01
         -4   -1    0    0    0  501 -0.00000000000E+00  0.00000000000E+00  0.93419882427E+03  0.93419882427E+03  0.00000000000E+00 0. -1.
          4   -1    0    0  501    0  0.00000000000E+00 -0.00000000000E+00 -0.85450836314E+03  0.85450836314E+03  0.00000000000E+00 0.  1.
         23    2    1    2    0    0 -0.48588493649E+03 -0.53005001105E+03  0.56675700452E+03  0.92021941928E+03  0.92482926655E+02 0.  0.
         11    1    3    3    0    0 -0.34756438719E+03 -0.41953177413E+03  0.46328091146E+03  0.71514831725E+03  0.00000000000E+00 0.  1.
        -11    1    3    3    0    0 -0.13832054930E+03 -0.11051823691E+03  0.10347609306E+03  0.20507110202E+03  0.00000000000E+00 0. -1.
         22    1    1    2    0    0  0.48588493649E+03  0.53005001105E+03 -0.48706654339E+03  0.86848776814E+03  0.00000000000E+00 0.  1.
<mgrwt>
<rscale>  0 0.17869311E+04</rscale>
<asrwt>0</asrwt>
<pdfrwt beam="1">  1        4 0.13146283E+00 0.17869311E+04</pdfrwt>
<pdfrwt beam="2">  1       -4 0.14372290E+00 0.17869311E+04</pdfrwt>
<totfact> 0.26521362E-01</totfact>
</mgrwt>
</event>
<event>
 6    1  0.2236204E-005  0.2227576E+04  0.7818608E-02  0.8507037E-01
         -2   -1    0    0    0  501 -0.00000000000E+00  0.00000000000E+00  0.13208078683E+04  0.13208078683E+04  0.00000000000E+00 0.  1.
          2   -1    0    0  501    0  0.00000000000E+00 -0.00000000000E+00 -0.93921586602E+03  0.93921586602E+03  0.00000000000E+00 0. -1.
         23    2    1    2    0    0  0.99890295412E+03  0.40182646260E+03 -0.90621414883E+02  0.10843294164E+04  0.91029800821E+02 0.  0.
         11    1    3    3    0    0  0.53866431441E+03  0.25907736002E+03 -0.72626974749E+02  0.60212540185E+03  0.00000000000E+00 0. -1.
        -11    1    3    3    0    0  0.46023863971E+03  0.14274910258E+03 -0.17994440134E+02  0.48220401455E+03  0.00000000000E+00 0.  1.
         22    1    1    2    0    0 -0.99890295412E+03 -0.40182646260E+03  0.47221341713E+03  0.11756943179E+04  0.00000000000E+00 0. -1.
<mgrwt>
<rscale>  0 0.22275760E+04</rscale>
<asrwt>0</asrwt>
<pdfrwt beam="1">  1        2 0.14449475E+00 0.22275760E+04</pdfrwt>
<pdfrwt beam="2">  1       -2 0.20320121E+00 0.22275760E+04</pdfrwt>
<totfact> 0.31889126E+00</totfact>
</mgrwt>
</event>
<event>
 6    1  0.2236204E-005  0.3258027E+03  0.7818608E-02  0.1073009E+00
         -2   -1    0    0    0  501 -0.00000000000E+00  0.00000000000E+00  0.41009735779E+02  0.41009735779E+02  0.00000000000E+00 0.  1.
          2   -1    0    0  501    0  0.00000000000E+00 -0.00000000000E+00 -0.64708639226E+03  0.64708639226E+03  0.00000000000E+00 0. -1.
         23    2    1    2    0    0  0.11698917069E+02  0.13680458895E+03 -0.45471317603E+03  0.48373550699E+03  0.91562044846E+02 0.  0.
         13    1    3    3    0    0 -0.35899177632E+02  0.49373836926E+02 -0.22993206602E+03  0.23789762864E+03  0.00000000000E+00 0. -1.
        -13    1    3    3    0    0  0.47598094701E+02  0.87430752025E+02 -0.22478111000E+03  0.24583787835E+03  0.00000000000E+00 0.  1.
         22    1    1    2    0    0 -0.11698917069E+02 -0.13680458895E+03 -0.15136348046E+03  0.20436062105E+03  0.00000000000E+00 0. -1.
<mgrwt>
<rscale>  0 0.32580265E+03</rscale>
<asrwt>0</asrwt>
<pdfrwt beam="1">  1        2 0.99551750E-01 0.32580265E+03</pdfrwt>
<pdfrwt beam="2">  1       -2 0.63091903E-02 0.32580265E+03</pdfrwt>
<totfact> 0.63324055E+03</totfact>
</mgrwt>
</event>
<event>
 6    1  0.2236204E-005  0.1141692E+04  0.7818608E-02  0.9165482E-01
          2   -1    0    0  501    0  0.00000000000E+00  0.00000000000E+00  0.75384029012E+03  0.75384029012E+03  0.00000000000E+00 0. -1.
         -2   -1    0    0    0  501 -0.00000000000E+00 -0.00000000000E+00 -0.43227353414E+03  0.43227353414E+03  0.00000000000E+00 0.  1.
         23    2    1    2    0    0 -0.13608996067E+03 -0.28405322580E+03  0.65179435206E+03  0.72976201074E+03  0.92249674544E+02 0.  0.
         13    1    3    3    0    0 -0.84025633605E+02 -0.16227341625E+03  0.47441794633E+03  0.50839488247E+03  0.00000000000E+00 0.  1.
        -13    1    3    3    0    0 -0.52064327062E+02 -0.12177980954E+03  0.17737640574E+03  0.22136712827E+03  0.00000000000E+00 0. -1.
         22    1    1    2    0    0  0.13608996067E+03  0.28405322580E+03 -0.33022759609E+03  0.45635181351E+03  0.00000000000E+00 0.  1.
<mgrwt>
<rscale>  0 0.11416921E+04</rscale>
<asrwt>0</asrwt>
<pdfrwt beam="1">  1        2 0.11597543E+00 0.11416921E+04</pdfrwt>
<pdfrwt beam="2">  1       -2 0.66503620E-01 0.11416921E+04</pdfrwt>
<totfact> 0.76702444E+01</totfact>
</mgrwt>
</event>
<event>
 6    1  0.2236204E-005  0.8843915E+03  0.7818608E-02  0.9445306E-01
          2   -1    0    0  501    0  0.00000000000E+00  0.00000000000E+00  0.20569076124E+04  0.20569076124E+04  0.00000000000E+00 0. -1.
         -2   -1    0    0    0  501 -0.00000000000E+00 -0.00000000000E+00 -0.95063617999E+02  0.95063617999E+02  0.00000000000E+00 0.  1.
         23    2    1    2    0    0  0.29306298971E+03  0.23059763172E+03  0.15477245453E+04  0.15946956237E+04  0.92421212042E+02 0.  0.
         13    1    3    3    0    0  0.23475474800E+02  0.53363989696E+02  0.32121291979E+03  0.32646064564E+03  0.00000000000E+00 0. -1.
        -13    1    3    3    0    0  0.26958751491E+03  0.17723364203E+03  0.12265116255E+04  0.12682349781E+04  0.00000000000E+00 0.  1.
         22    1    1    2    0    0 -0.29306298971E+03 -0.23059763172E+03  0.41411944910E+03  0.55727560669E+03  0.00000000000E+00 0.  1.
<mgrwt>
<rscale>  0 0.88439150E+03</rscale>
<asrwt>0</asrwt>
<pdfrwt beam="1">  1        2 0.31644729E+00 0.88439150E+03</pdfrwt>
<pdfrwt beam="2">  1       -2 0.14625173E-01 0.88439150E+03</pdfrwt>
<totfact> 0.23032067E+02</totfact>
</mgrwt>
</event>
<event>
 6    1  0.2236204E-005  0.1483710E+04  0.7818608E-02  0.8895358E-01
         -2   -1    0    0    0  501 -0.00000000000E+00  0.00000000000E+00  0.28417418369E+03  0.28417418369E+03  0.00000000000E+00 0.  1.
          2   -1    0    0  501    0  0.00000000000E+00 -0.00000000000E+00 -0.19366608577E+04  0.19366608577E+04  0.00000000000E+00 0. -1.
         23    2    1    2    0    0  0.51580363793E+03 -0.12871764935E+02 -0.16213590621E+04  0.17039327261E+04  0.91446442334E+02 0.  0.
         13    1    3    3    0    0  0.63750585550E+02 -0.14668524521E+02 -0.31048692805E+03  0.31730338048E+03  0.00000000000E+00 0. -1.
        -13    1    3    3    0    0  0.45205305238E+03  0.17967595855E+01 -0.13108721340E+04  0.13866293457E+04  0.00000000000E+00 0.  1.
         22    1    1    2    0    0 -0.51580363793E+03  0.12871764935E+02 -0.31127611891E+02  0.51690231520E+03  0.00000000000E+00 0.  1.
<mgrwt>
<rscale>  0 0.14837102E+04</rscale>
<asrwt>0</asrwt>
<pdfrwt beam="1">  1        2 0.29794782E+00 0.14837102E+04</pdfrwt>
<pdfrwt beam="2">  1       -2 0.43719106E-01 0.14837102E+04</pdfrwt>
<totfact> 0.34783068E+01</totfact>
</mgrwt>
</event>
<event>
 6    1  0.2236204E-005  0.4330155E+04  0.7818608E-02  0.7941066E-01
         -2   -1    0    0    0  501 -0.00000000000E+00  0.00000000000E+00  0.25985914240E+04  0.25985914240E+04  0.00000000000E+00 0.  1.
          2   -1    0    0  501    0  0.00000000000E+00 -0.00000000000E+00 -0.18038854087E+04  0.18038854087E+04  0.00000000000E+00 0. -1.
         23    2    1    2    0    0  0.14244672157E+04 -0.10293765832E+04 -0.88642393610E+03  0.19704157907E+04  0.89822018812E+02 0.  0.
         13    1    3    3    0    0  0.10736547462E+04 -0.74966363351E+03 -0.62296433351E+03  0.14501084919E+04  0.00000000000E+00 0. -1.
        -13    1    3    3    0    0  0.35081246951E+03 -0.27971294966E+03 -0.26345960259E+03  0.52030729878E+03  0.00000000000E+00 0.  1.
         22    1    1    2    0    0 -0.14244672157E+04  0.10293765832E+04  0.16811299513E+04  0.24320610420E+04  0.00000000000E+00 0. -1.
<mgrwt>
<rscale>  0 0.43301553E+04</rscale>
<asrwt>0</asrwt>
<pdfrwt beam="1">  1        2 0.27752083E+00 0.43301553E+04</pdfrwt>
<pdfrwt beam="2">  1       -2 0.39978329E+00 0.43301553E+04</pdfrwt>
<totfact> 0.49109583E-02</totfact>
</mgrwt>
</event>
<event>
 6    1  0.2236204E-005  0.1691766E+04  0.7818608E-02  0.8766075E-01
         -2   -1    0    0    0  501 -0.00000000000E+00  0.00000000000E+00  0.89904696507E+03  0.89904696507E+03  0.00000000000E+00 0.  1.
          2   -1    0    0  501    0  0.00000000000E+00 -0.00000000000E+00 -0.79586274488E+03  0.79586274488E+03  0.00000000000E+00 0. -1.
         23    2    1    2    0    0  0.35015713098E+03 -0.26392060550E+03  0.77384507519E+03  0.89362943139E+03  0.86448006665E+02 0.  0.
         13    1    3    3    0    0  0.74251310248E+02 -0.24983512689E+02  0.97378918953E+02  0.12498034580E+03  0.00000000000E+00 0. -1.
        -13    1    3    3    0    0  0.27590582073E+03 -0.23893709281E+03  0.67646615624E+03  0.76864908559E+03  0.00000000000E+00 0.  1.
         22    1    1    2    0    0 -0.35015713098E+03  0.26392060550E+03 -0.67066085500E+03  0.80128027857E+03  0.00000000000E+00 0. -1.
<mgrwt>
<rscale>  0 0.16917659E+04</rscale>
<asrwt>0</asrwt>
<pdfrwt beam="1">  1        2 0.12244042E+00 0.16917659E+04</pdfrwt>
<pdfrwt beam="2">  1       -2 0.13831492E+00 0.16917659E+04</pdfrwt>
<totfact> 0.12236798E+01</totfact>
</mgrwt>
</event>
<event>
 6    1  0.2236204E-005  0.3137527E+04  0.7818608E-02  0.8205514E-01
         -2   -1    0    0    0  501 -0.00000000000E+00  0.00000000000E+00  0.25620998009E+04  0.25620998009E+04  0.00000000000E+00 0.  1.
          2   -1    0    0  501    0  0.00000000000E+00 -0.00000000000E+00 -0.96054757550E+03  0.96054757550E+03  0.00000000000E+00 0. -1.
         23    2    1    2    0    0  0.13330895217E+04  0.82229515387E+03  0.86943025361E+03  0.17936882750E+04  0.90064804199E+02 0.  0.
         13    1    3    3    0    0  0.34460577480E+03  0.23179408103E+03  0.27245954061E+03  0.49670498014E+03  0.00000000000E+00 0. -1.
        -13    1    3    3    0    0  0.98848374686E+03  0.59050107284E+03  0.59697071300E+03  0.12969832948E+04  0.00000000000E+00 0.  1.
         22    1    1    2    0    0 -0.13330895217E+04 -0.82229515387E+03  0.73212197175E+03  0.17289591014E+04  0.00000000000E+00 0. -1.
<mgrwt>
<rscale>  0 0.31375269E+04</rscale>
<asrwt>0</asrwt>
<pdfrwt beam="1">  1        2 0.14777655E+00 0.31375269E+04</pdfrwt>
<pdfrwt beam="2">  1       -2 0.39416920E+00 0.31375269E+04</pdfrwt>
<totfact> 0.18310338E-01</totfact>
</mgrwt>
</event>
<event>
 6    1  0.2236204E-005  0.1993968E+04  0.7818608E-02  0.8609446E-01
         -2   -1    0    0    0  501 -0.00000000000E+00  0.00000000000E+00  0.68086819832E+03  0.68086819832E+03  0.00000000000E+00 0.  1.
          2   -1    0    0  501    0  0.00000000000E+00 -0.00000000000E+00 -0.14598671870E+04  0.14598671870E+04  0.00000000000E+00 0. -1.
         23    2    1    2    0    0 -0.22676536624E+03  0.32308502028E+00 -0.14302987585E+04  0.14510876303E+04  0.92076795794E+02 0.  0.
         13    1    3    3    0    0 -0.16919625106E+03 -0.53670912626E+01 -0.77668033605E+03  0.79491415980E+03  0.00000000000E+00 0.  1.
        -13    1    3    3    0    0 -0.57569115181E+02  0.56901762829E+01 -0.65361842249E+03  0.65617347046E+03  0.00000000000E+00 0. -1.
         22    1    1    2    0    0  0.22676536624E+03 -0.32308502028E+00  0.65129976990E+03  0.68964775501E+03  0.00000000000E+00 0.  1.
<mgrwt>
<rscale>  0 0.19939680E+04</rscale>
<asrwt>0</asrwt>
<pdfrwt beam="1">  1        2 0.22459495E+00 0.19939680E+04</pdfrwt>
<pdfrwt beam="2">  1       -2 0.10474895E+00 0.19939680E+04</pdfrwt>
<totfact> 0.91935424E+00</totfact>
</mgrwt>
</event>
<event>
 6    1  0.2236204E-005  0.4767948E+04  0.7818608E-02  0.7865336E-01
          2   -1    0    0  501    0  0.00000000000E+00  0.00000000000E+00  0.30824874333E+04  0.30824874333E+04  0.00000000000E+00 0. -1.
         -2   -1    0    0    0  501 -0.00000000000E+00 -0.00000000000E+00 -0.18437487721E+04  0.18437487721E+04  0.00000000000E+00 0.  1.
         23    2    1    2    0    0  0.95309109152E+03  0.26141576782E+03  0.28601407767E+04  0.30273771656E+04  0.88805450165E+02 0.  0.
         13    1    3    3    0    0  0.40814817380E+03  0.91312616848E+02  0.10914963023E+04  0.11688828443E+04  0.00000000000E+00 0. -1.
        -13    1    3    3    0    0  0.54494291772E+03  0.17010315098E+03  0.17686444744E+04  0.18584943213E+04  0.00000000000E+00 0.  1.
         22    1    1    2    0    0 -0.95309109152E+03 -0.26141576782E+03 -0.16214021155E+04  0.18988590397E+04  0.00000000000E+00 0.  1.
<mgrwt>
<rscale>  0 0.47679482E+04</rscale>
<asrwt>0</asrwt>
<pdfrwt beam="1">  1        2 0.47422884E+00 0.47679482E+04</pdfrwt>
<pdfrwt beam="2">  1       -2 0.28365366E+00 0.47679482E+04</pdfrwt>
<totfact> 0.45776666E-02</totfact>
</mgrwt>
</event>
<event>
 6    1  0.2236204E-005  0.4337372E+04  0.7818608E-02  0.7939744E-01
          2   -1    0    0  501    0  0.00000000000E+00  0.00000000000E+00  0.14668369820E+04  0.14668369820E+04  0.00000000000E+00 0. -1.
         -2   -1    0    0    0  501 -0.00000000000E+00 -0.00000000000E+00 -0.32063536866E+04  0.32063536866E+04  0.00000000000E+00 0.  1.
         23    2    1    2    0    0 -0.91939088863E+03  0.14522322747E+04  0.55313131307E+03  0.18077948637E+04  0.88937248267E+02 0.  0.
         11    1    3    3    0    0 -0.69057925320E+03  0.11160678202E+04  0.45904224074E+03  0.13904052873E+04  0.00000000000E+00 0.  1.
        -11    1    3    3    0    0 -0.22881163543E+03  0.33616445453E+03  0.94089072330E+02  0.41738957645E+03  0.00000000000E+00 0. -1.
         22    1    1    2    0    0  0.91939088863E+03 -0.14522322747E+04 -0.22926480176E+04  0.28653958048E+04  0.00000000000E+00 0.  1.
<mgrwt>
<rscale>  0 0.43373716E+04</rscale>
<asrwt>0</asrwt>
<pdfrwt beam="1">  1        2 0.22566723E+00 0.43373716E+04</pdfrwt>
<pdfrwt beam="2">  1       -2 0.49328518E+00 0.43373716E+04</pdfrwt>
<totfact> 0.18539648E-02</totfact>
</mgrwt>
</event>
<event>
 6    1  0.2236204E-005  0.1246303E+04  0.7818608E-02  0.9073266E-01
          2   -1    0    0  501    0  0.00000000000E+00  0.00000000000E+00  0.15981404579E+04  0.15981404579E+04  0.00000000000E+00 0. -1.
         -2   -1    0    0    0  501 -0.00000000000E+00 -0.00000000000E+00 -0.24298102200E+03  0.24298102200E+03  0.00000000000E+00 0.  1.
         23    2    1    2    0    0 -0.55856428286E+03 -0.24970419076E+03  0.82567041614E+03  0.10319831339E+04  0.94399743111E+02 0.  0.
         11    1    3    3    0    0 -0.48182631911E+02  0.18593987469E+01  0.45037256729E+02  0.65980132429E+02  0.00000000000E+00 0. -1.
        -11    1    3    3    0    0 -0.51038165095E+03 -0.25156358950E+03  0.78063315941E+03  0.96600300143E+03  0.00000000000E+00 0.  1.
         22    1    1    2    0    0  0.55856428286E+03  0.24970419076E+03  0.52948901975E+03  0.80913834602E+03  0.00000000000E+00 0.  1.
<mgrwt>
<rscale>  0 0.12463030E+04</rscale>
<asrwt>0</asrwt>
<pdfrwt beam="1">  1        2 0.24586776E+00 0.12463030E+04</pdfrwt>
<pdfrwt beam="2">  1       -2 0.37381697E-01 0.12463030E+04</pdfrwt>
<totfact> 0.74183099E+01</totfact>
</mgrwt>
</event>
<event>
 6    1  0.2236204E-005  0.5310823E+04  0.7818608E-02  0.7782270E-01
         -1   -1    0    0    0  501 -0.00000000000E+00  0.00000000000E+00  0.24176961600E+04  0.24176961600E+04  0.00000000000E+00 0.  1.
          1   -1    0    0  501    0  0.00000000000E+00 -0.00000000000E+00 -0.29165000083E+04  0.29165000083E+04  0.00000000000E+00 0. -1.
         23    2    1    2    0    0 -0.22728025600E+04 -0.89986670230E+03  0.79022268723E+03  0.25706873538E+04  0.92682342204E+02 0.  0.
         13    1    3    3    0    0 -0.14244277066E+04 -0.60736369245E+03  0.48012325393E+03  0.16212351110E+04  0.00000000000E+00 0.  1.
        -13    1    3    3    0    0 -0.84837485341E+03 -0.29250300984E+03  0.31009943330E+03  0.94945224272E+03  0.00000000000E+00 0. -1.
         22    1    1    2    0    0  0.22728025600E+04  0.89986670230E+03 -0.12890265355E+04  0.27635088145E+04  0.00000000000E+00 0.  1.
<mgrwt>
<rscale>  0 0.53108232E+04</rscale>
<asrwt>0</asrwt>
<pdfrwt beam="1">  1        1 0.44869231E+00 0.53108232E+04</pdfrwt>
<pdfrwt beam="2">  1       -1 0.37195326E+00 0.53108232E+04</pdfrwt>
<totfact> 0.53695069E-03</totfact>
</mgrwt>
</event>
<event>
 6    1  0.2236204E-005  0.2126432E+04  0.7818608E-02  0.8549689E-01
          2   -1    0    0  501    0  0.00000000000E+00  0.00000000000E+00  0.56051990630E+03  0.56051990630E+03  0.00000000000E+00 0. -1.
         -2   -1    0    0    0  501 -0.00000000000E+00 -0.00000000000E+00 -0.20167489801E+04  0.20167489801E+04  0.00000000000E+00 0.  1.
         23    2    1    2    0    0 -0.60414979384E+03 -0.76402209948E+03 -0.12402235737E+04  0.15795789957E+04  0.90490601737E+02 0.  0.
         11    1    3    3    0    0 -0.21763655581E+03 -0.25689482872E+03 -0.49714771989E+03  0.60043024478E+03  0.00000000000E+00 0.  1.
        -11    1    3    3    0    0 -0.38651323803E+03 -0.50712727076E+03 -0.74307585378E+03  0.97914875090E+03  0.00000000000E+00 0. -1.
         22    1    1    2    0    0  0.60414979384E+03  0.76402209948E+03 -0.21600550008E+03  0.99768989068E+03  0.00000000000E+00 0. -1.
<mgrwt>
<rscale>  0 0.21264317E+04</rscale>
<asrwt>0</asrwt>
<pdfrwt beam="1">  1        2 0.86233831E-01 0.21264317E+04</pdfrwt>
<pdfrwt beam="2">  1       -2 0.31026908E+00 0.21264317E+04</pdfrwt>
<totfact> 0.13619198E+00</totfact>
</mgrwt>
</event>
<event>
 6    1  0.2236204E-005  0.1064492E+04  0.7818608E-02  0.9240509E-01
         -2   -1    0    0    0  501 -0.00000000000E+00  0.00000000000E+00  0.17413904042E+03  0.17413904042E+03  0.00000000000E+00 0.  1.
          2   -1    0    0  501    0  0.00000000000E+00 -0.00000000000E+00 -0.16267788654E+04  0.16267788654E+04  0.00000000000E+00 0. -1.
         23    2    1    2    0    0  0.42502273905E+03 -0.56865345167E+00 -0.20038092603E+03  0.47849701894E+03  0.90345058227E+02 0.  0.
         13    1    3    3    0    0  0.23114140996E+03  0.14363808656E+02 -0.15543891251E+03  0.27891562509E+03  0.00000000000E+00 0.  1.
        -13    1    3    3    0    0  0.19388132908E+03 -0.14932462107E+02 -0.44942013524E+02  0.19958139385E+03  0.00000000000E+00 0. -1.
         22    1    1    2    0    0 -0.42502273905E+03  0.56865345167E+00 -0.12522588990E+04  0.13224208869E+04  0.00000000000E+00 0. -1.
<mgrwt>
<rscale>  0 0.10644918E+04</rscale>
<asrwt>0</asrwt>
<pdfrwt beam="1">  1        2 0.25027367E+00 0.10644918E+04</pdfrwt>
<pdfrwt beam="2">  1       -2 0.26790622E-01 0.10644918E+04</pdfrwt>
<totfact> 0.13548972E+02</totfact>
</mgrwt>
</event>
<event>
 6    1  0.2236204E-005  0.2938471E+04  0.7818608E-02  0.8261522E-01
         -1   -1    0    0    0  501 -0.00000000000E+00  0.00000000000E+00  0.14570279291E+04  0.14570279291E+04  0.00000000000E+00 0.  1.
          1   -1    0    0  501    0  0.00000000000E+00 -0.00000000000E+00 -0.14815457507E+04  0.14815457507E+04  0.00000000000E+00 0. -1.
         23    2    1    2    0    0  0.12026713193E+04 -0.83500869985E+03 -0.11652593550E+03  0.14715619811E+04  0.90876507620E+02 0.  0.
         13    1    3    3    0    0  0.69464447184E+03 -0.53143910625E+03 -0.88461321367E+02  0.87908126546E+03  0.00000000000E+00 0. -1.
        -13    1    3    3    0    0  0.50802684744E+03 -0.30356959360E+03 -0.28064614133E+02  0.59248071567E+03  0.00000000000E+00 0.  1.
         22    1    1    2    0    0 -0.12026713193E+04  0.83500869985E+03  0.92008113887E+02  0.14670116987E+04  0.00000000000E+00 0. -1.
<mgrwt>
<rscale>  0 0.29384714E+04</rscale>
<asrwt>0</asrwt>
<pdfrwt beam="1">  1        1 0.22793012E+00 0.29384714E+04</pdfrwt>
<pdfrwt beam="2">  1       -1 0.22415814E+00 0.29384714E+04</pdfrwt>
<totfact> 0.59504498E-01</totfact>
</mgrwt>
</event>
<event>
 6    1  0.2236204E-005  0.5897372E+04  0.7818608E-02  0.7703258E-01
          2   -1    0    0  501    0  0.00000000000E+00  0.00000000000E+00  0.33332613688E+04  0.33332613688E+04  0.00000000000E+00 0. -1.
         -2   -1    0    0    0  501 -0.00000000000E+00 -0.00000000000E+00 -0.26084806694E+04  0.26084806694E+04  0.00000000000E+00 0.  1.
         23    2    1    2    0    0  0.14832998167E+04  0.93302339694E+03 -0.20259742555E+04  0.26802448624E+04  0.91814123075E+02 0.  0.
         13    1    3    3    0    0  0.31408251006E+03  0.20158448936E+03 -0.49027620000E+03  0.61616140886E+03  0.00000000000E+00 0. -1.
        -13    1    3    3    0    0  0.11692173067E+04  0.73143890758E+03 -0.15356980555E+04  0.20640834536E+04  0.00000000000E+00 0.  1.
         22    1    1    2    0    0 -0.14832998167E+04 -0.93302339694E+03  0.27507549549E+04  0.32614971758E+04  0.00000000000E+00 0. -1.
<mgrwt>
<rscale>  0 0.58973716E+04</rscale>
<asrwt>0</asrwt>
<pdfrwt beam="1">  1        2 0.51280944E+00 0.58973716E+04</pdfrwt>
<pdfrwt beam="2">  1       -2 0.40130472E+00 0.58973716E+04</pdfrwt>
<totfact> 0.52240811E-03</totfact>
</mgrwt>
</event>
<event>
 6    1  0.2236204E-005  0.1054554E+04  0.7818608E-02  0.9250655E-01
          2   -1    0    0  501    0  0.00000000000E+00  0.00000000000E+00  0.10725903427E+04  0.10725903427E+04  0.00000000000E+00 0. -1.
         -2   -1    0    0    0  501 -0.00000000000E+00 -0.00000000000E+00 -0.25920508818E+03  0.25920508818E+03  0.00000000000E+00 0.  1.
         23    2    1    2    0    0 -0.22923134091E+03 -0.46833787957E+03  0.34996069268E+03  0.63419260574E+03  0.88546020037E+02 0.  0.
         11    1    3    3    0    0 -0.15988801520E+03 -0.30774636951E+03  0.18187259525E+03  0.39159883332E+03  0.00000000000E+00 0.  1.
        -11    1    3    3    0    0 -0.69343325712E+02 -0.16059151006E+03  0.16808809743E+03  0.24259377243E+03  0.00000000000E+00 0. -1.
         22    1    1    2    0    0  0.22923134091E+03  0.46833787957E+03  0.46342456180E+03  0.69760282509E+03  0.00000000000E+00 0. -1.
<mgrwt>
<rscale>  0 0.10545537E+04</rscale>
<asrwt>0</asrwt>
<pdfrwt beam="1">  1        2 0.16501390E+00 0.10545537E+04</pdfrwt>
<pdfrwt beam="2">  1       -2 0.39877706E-01 0.10545537E+04</pdfrwt>
<totfact> 0.13408105E+02</totfact>
</mgrwt>
</event>
<event>
 6    1  0.2236204E-005  0.3385992E+04  0.7818608E-02  0.8141353E-01
          3   -1    0    0  501    0  0.00000000000E+00  0.00000000000E+00  0.45475559105E+04  0.45475559105E+04  0.00000000000E+00 0. -1.
         -3   -1    0    0    0  501 -0.00000000000E+00 -0.00000000000E+00 -0.63028028166E+03  0.63028028166E+03  0.00000000000E+00 0.  1.
         23    2    1    2    0    0  0.86009101738E+03  0.15625942963E+03  0.41749749730E+04  0.42664731913E+04  0.90575377296E+02 0.  0.
         11    1    3    3    0    0  0.24927493240E+03  0.31404560490E+02  0.13953745329E+04  0.14178132196E+04  0.00000000000E+00 0.  1.
        -11    1    3    3    0    0  0.61081608498E+03  0.12485486914E+03  0.27796004400E+04  0.28486599717E+04  0.00000000000E+00 0. -1.
         22    1    1    2    0    0 -0.86009101738E+03 -0.15625942963E+03 -0.25769934412E+03  0.91136300094E+03  0.00000000000E+00 0.  1.
<mgrwt>
<rscale>  0 0.33859916E+04</rscale>
<asrwt>0</asrwt>
<pdfrwt beam="1">  1        3 0.69962396E+00 0.33859916E+04</pdfrwt>
<pdfrwt beam="2">  1       -3 0.96966200E-01 0.33859916E+04</pdfrwt>
<totfact> 0.66880123E-04</totfact>
</mgrwt>
</event>
<event>
 6    1  0.2236204E-005  0.2682876E+04  0.7818608E-02  0.8340583E-01
         -1   -1    0    0    0  501 -0.00000000000E+00  0.00000000000E+00  0.16054737221E+04  0.16054737221E+04  0.00000000000E+00 0. -1.
          1   -1    0    0  501    0  0.00000000000E+00 -0.00000000000E+00 -0.11208256254E+04  0.11208256254E+04  0.00000000000E+00 0.  1.
         23    2    1    2    0    0 -0.83319028254E+03  0.60498311617E+03  0.11138185898E+04  0.15196236964E+04  0.91944058429E+02 0.  0.
         11    1    3    3    0    0 -0.46221912505E+03  0.37495715630E+03  0.59458434772E+03  0.84129063657E+03  0.00000000000E+00 0.  1.
        -11    1    3    3    0    0 -0.37097115749E+03  0.23002595987E+03  0.51923424204E+03  0.67833305979E+03  0.00000000000E+00 0. -1.
         22    1    1    2    0    0  0.83319028254E+03 -0.60498311617E+03 -0.62917049302E+03  0.12066756511E+04  0.00000000000E+00 0.  1.
<mgrwt>
<rscale>  0 0.26828761E+04</rscale>
<asrwt>0</asrwt>
<pdfrwt beam="1">  1        1 0.17243471E+00 0.26828761E+04</pdfrwt>
<pdfrwt beam="2">  1       -1 0.24699596E+00 0.26828761E+04</pdfrwt>
<totfact> 0.78008231E-01</totfact>
</mgrwt>
</event>
<event>
 6    1  0.2236204E-005  0.1337179E+04  0.7818608E-02  0.9000591E-01
         -2   -1    0    0    0  501 -0.00000000000E+00  0.00000000000E+00  0.83052528101E+03  0.83052528101E+03  0.00000000000E+00 0.  1.
          2   -1    0    0  501    0  0.00000000000E+00 -0.00000000000E+00 -0.53822771703E+03  0.53822771703E+03  0.00000000000E+00 0. -1.
         23    2    1    2    0    0  0.59608715552E-01 -0.19640334533E+03  0.79760800434E+03  0.82661563653E+03  0.92415390303E+02 0.  0.
         11    1    3    3    0    0 -0.11869586471E+02 -0.49498436563E+02  0.38745773030E+03  0.39078699450E+03  0.00000000000E+00 0. -1.
        -11    1    3    3    0    0  0.11929195187E+02 -0.14690490877E+03  0.41015027405E+03  0.43582864203E+03  0.00000000000E+00 0.  1.
         22    1    1    2    0    0 -0.59608715552E-01  0.19640334533E+03 -0.50531044036E+03  0.54213736151E+03  0.00000000000E+00 0. -1.
<mgrwt>
<rscale>  0 0.13371787E+04</rscale>
<asrwt>0</asrwt>
<pdfrwt beam="1">  1        2 0.82804264E-01 0.13371787E+04</pdfrwt>
<pdfrwt beam="2">  1       -2 0.12777312E+00 0.13371787E+04</pdfrwt>
<totfact> 0.25042061E+01</totfact>
</mgrwt>
</event>
<event>
 6    1  0.2236204E-005  0.1290157E+04  0.7818608E-02  0.9037408E-01
          2   -1    0    0  501    0  0.00000000000E+00  0.00000000000E+00  0.59680483959E+03  0.59680483959E+03  0.00000000000E+00 0. -1.
         -2   -1    0    0    0  501 -0.00000000000E+00 -0.00000000000E+00 -0.69725656213E+03  0.69725656213E+03  0.00000000000E+00 0.  1.
         23    2    1    2    0    0  0.33181308345E+03 -0.45089648333E+03  0.26372693205E+03  0.62620389185E+03  0.95769820161E+02 0.  0.
         13    1    3    3    0    0  0.13502249747E+03 -0.18927643596E+03  0.16206679725E+03  0.28341187484E+03  0.00000000000E+00 0. -1.
        -13    1    3    3    0    0  0.19679058598E+03 -0.26162004737E+03  0.10166013481E+03  0.34279201701E+03  0.00000000000E+00 0.  1.
         22    1    1    2    0    0 -0.33181308345E+03  0.45089648333E+03 -0.36417865459E+03  0.66785750987E+03  0.00000000000E+00 0.  1.
<mgrwt>
<rscale>  0 0.12901567E+04</rscale>
<asrwt>0</asrwt>
<pdfrwt beam="1">  1        2 0.91816129E-01 0.12901567E+04</pdfrwt>
<pdfrwt beam="2">  1       -2 0.10727024E+00 0.12901567E+04</pdfrwt>
<totfact> 0.34187191E+01</totfact>
</mgrwt>
</event>
<event>
 6    1  0.2236204E-005  0.1239686E+04  0.7818608E-02  0.9078811E-01
          2   -1    0    0  501    0  0.00000000000E+00  0.00000000000E+00  0.93455954296E+03  0.93455954296E+03  0.00000000000E+00 0. -1.
         -2   -1    0    0    0  501 -0.00000000000E+00 -0.00000000000E+00 -0.41110874996E+03  0.41110874996E+03  0.00000000000E+00 0.  1.
         23    2    1    2    0    0 -0.22323756834E+03  0.36112084578E+03  0.74964627163E+03  0.86461978005E+03  0.73174820149E+02 0.  0.
         13    1    3    3    0    0 -0.14131640863E+03  0.26128015079E+03  0.57745251244E+03  0.64937589166E+03  0.00000000000E+00 0. -1.
        -13    1    3    3    0    0 -0.81921159706E+02  0.99840694999E+02  0.17219375919E+03  0.21524388839E+03  0.00000000000E+00 0.  1.
         22    1    1    2    0    0  0.22323756834E+03 -0.36112084578E+03 -0.22619547863E+03  0.48104851287E+03  0.00000000000E+00 0.  1.
<mgrwt>
<rscale>  0 0.12396864E+04</rscale>
<asrwt>0</asrwt>
<pdfrwt beam="1">  1        2 0.14377839E+00 0.12396864E+04</pdfrwt>
<pdfrwt beam="2">  1       -2 0.63247500E-01 0.12396864E+04</pdfrwt>
<totfact> 0.63347397E+01</totfact>
</mgrwt>
</event>
<event>
 6    1  0.2236204E-005  0.3788934E+04  0.7818608E-02  0.8048534E-01
         -2   -1    0    0    0  501 -0.00000000000E+00  0.00000000000E+00  0.19287389342E+04  0.19287389342E+04  0.00000000000E+00 0.  1.
          2   -1    0    0  501    0  0.00000000000E+00 -0.00000000000E+00 -0.18608042293E+04  0.18608042293E+04  0.00000000000E+00 0. -1.
         23    2    1    2    0    0  0.30180315781E+03  0.11978244279E+04 -0.14011962146E+04  0.18701124759E+04  0.90007413573E+02 0.  0.
         13    1    3    3    0    0  0.16127562253E+03  0.47104424676E+03 -0.58702481578E+03  0.76973413798E+03  0.00000000000E+00 0. -1.
        -13    1    3    3    0    0  0.14052753528E+03  0.72678018112E+03 -0.81417139884E+03  0.11003783379E+04  0.00000000000E+00 0.  1.
         22    1    1    2    0    0 -0.30180315781E+03 -0.11978244279E+04  0.14691309195E+04  0.19194306877E+04  0.00000000000E+00 0.  1.
<mgrwt>
<rscale>  0 0.37889342E+04</rscale>
<asrwt>0</asrwt>
<pdfrwt beam="1">  1        2 0.28627757E+00 0.37889342E+04</pdfrwt>
<pdfrwt beam="2">  1       -2 0.29672907E+00 0.37889342E+04</pdfrwt>
<totfact> 0.21324672E-01</totfact>
</mgrwt>
</event>
<event>
 6    1  0.2236204E-005  0.2062125E+04  0.7818608E-02  0.8578113E-01
         -2   -1    0    0    0  501 -0.00000000000E+00  0.00000000000E+00  0.58963272464E+03  0.58963272464E+03  0.00000000000E+00 0.  1.
          2   -1    0    0  501    0  0.00000000000E+00 -0.00000000000E+00 -0.18029701462E+04  0.18029701462E+04  0.00000000000E+00 0. -1.
         23    2    1    2    0    0 -0.62169987920E+03 -0.48972457808E+03 -0.13710222624E+04  0.15856298780E+04  0.90438730132E+02 0.  0.
         11    1    3    3    0    0 -0.42031544077E+03 -0.33811427013E+03 -0.10144625625E+04  0.11489650213E+04  0.00000000000E+00 0. -1.
        -11    1    3    3    0    0 -0.20138443843E+03 -0.15161030795E+03 -0.35655969989E+03  0.43666485673E+03  0.00000000000E+00 0.  1.
         22    1    1    2    0    0  0.62169987920E+03  0.48972457808E+03  0.15768484080E+03  0.80697299285E+03  0.00000000000E+00 0.  1.
<mgrwt>
<rscale>  0 0.20621253E+04</rscale>
<asrwt>0</asrwt>
<pdfrwt beam="1">  1        2 0.27738002E+00 0.20621253E+04</pdfrwt>
<pdfrwt beam="2">  1       -2 0.90712728E-01 0.20621253E+04</pdfrwt>
<totfact> 0.82455887E+00</totfact>
</mgrwt>
</event>
<event>
 6    1  0.2236204E-005  0.1436085E+04  0.7818608E-02  0.8928105E-01
          2   -1    0    0  501    0  0.00000000000E+00  0.00000000000E+00  0.22246825777E+04  0.22246825777E+04  0.00000000000E+00 0. -1.
         -2   -1    0    0    0  501 -0.00000000000E+00 -0.00000000000E+00 -0.23175673494E+03  0.23175673494E+03  0.00000000000E+00 0.  1.
         23    2    1    2    0    0 -0.35406558954E+03  0.75497374979E+02  0.20555231358E+04  0.20890420938E+04  0.88652199724E+02 0.  0.
         11    1    3    3    0    0 -0.13084177483E+03  0.68031937593E+02  0.92276688206E+03  0.93447666273E+03  0.00000000000E+00 0. -1.
        -11    1    3    3    0    0 -0.22322381471E+03  0.74654373862E+01  0.11327562538E+04  0.11545654311E+04  0.00000000000E+00 0.  1.
         22    1    1    2    0    0  0.35406558954E+03 -0.75497374979E+02 -0.62597293038E+02  0.36739721885E+03  0.00000000000E+00 0.  1.
<mgrwt>
<rscale>  0 0.14360852E+04</rscale>
<asrwt>0</asrwt>
<pdfrwt beam="1">  1        2 0.34225884E+00 0.14360852E+04</pdfrwt>
<pdfrwt beam="2">  1       -2 0.35654884E-01 0.14360852E+04</pdfrwt>
<totfact> 0.35946351E+01</totfact>
</mgrwt>
</event>
<event>
 6    1  0.2236204E-005  0.2193370E+04  0.7818608E-02  0.8521193E-01
         -2   -1    0    0    0  501 -0.00000000000E+00  0.00000000000E+00  0.16147509004E+04  0.16147509004E+04  0.00000000000E+00 0. -1.
          2   -1    0    0  501    0  0.00000000000E+00 -0.00000000000E+00 -0.74483209132E+03  0.74483209132E+03  0.00000000000E+00 0.  1.
         23    2    1    2    0    0 -0.52940170122E+03  0.91193415901E+03  0.75214527352E+03  0.12985642938E+04  0.93041072282E+02 0.  0.
         11    1    3    3    0    0 -0.23861879479E+03  0.32131289282E+03  0.28718185524E+03  0.49259955572E+03  0.00000000000E+00 0.  1.
        -11    1    3    3    0    0 -0.29078290643E+03  0.59062126619E+03  0.46496341828E+03  0.80596473811E+03  0.00000000000E+00 0. -1.
         22    1    1    2    0    0  0.52940170122E+03 -0.91193415901E+03  0.11777353559E+03  0.10610186979E+04  0.00000000000E+00 0.  1.
<mgrwt>
<rscale>  0 0.21933703E+04</rscale>
<asrwt>0</asrwt>
<pdfrwt beam="1">  1        2 0.11458955E+00 0.21933703E+04</pdfrwt>
<pdfrwt beam="2">  1       -2 0.24842321E+00 0.21933703E+04</pdfrwt>
<totfact> 0.22735278E+00</totfact>
</mgrwt>
</event>
<event>
 6    1  0.2236204E-005  0.3181376E+04  0.7818608E-02  0.8193753E-01
          2   -1    0    0  501    0  0.00000000000E+00  0.00000000000E+00  0.27412913172E+04  0.27412913172E+04  0.00000000000E+00 0. -1.
         -2   -1    0    0    0  501 -0.00000000000E+00 -0.00000000000E+00 -0.92302780398E+03  0.92302780398E+03  0.00000000000E+00 0.  1.
         23    2    1    2    0    0  0.15156280633E+04 -0.35561988958E+03  0.54096478645E+03  0.16505947186E+04  0.90697810282E+02 0.  0.
         11    1    3    3    0    0  0.55275886171E+03 -0.12217590704E+03  0.15141489128E+03  0.58599981294E+03  0.00000000000E+00 0. -1.
        -11    1    3    3    0    0  0.96286920159E+03 -0.23344398254E+03  0.38954989517E+03  0.10645949057E+04  0.00000000000E+00 0.  1.
         22    1    1    2    0    0 -0.15156280633E+04  0.35561988958E+03  0.12772987268E+04  0.20137244026E+04  0.00000000000E+00 0.  1.
<mgrwt>
<rscale>  0 0.31813759E+04</rscale>
<asrwt>0</asrwt>
<pdfrwt beam="1">  1        2 0.42173712E+00 0.31813759E+04</pdfrwt>
<pdfrwt beam="2">  1       -2 0.14200428E+00 0.31813759E+04</pdfrwt>
<totfact> 0.73194437E-01</totfact>
</mgrwt>
</event>
<event>
 6    1  0.2236204E-005  0.3225100E+04  0.7818608E-02  0.8182220E-01
          1   -1    0    0  501    0  0.00000000000E+00  0.00000000000E+00  0.15255421358E+04  0.15255421358E+04  0.00000000000E+00 0.  1.
         -1   -1    0    0    0  501 -0.00000000000E+00 -0.00000000000E+00 -0.17045203947E+04  0.17045203947E+04  0.00000000000E+00 0. -1.
         23    2    1    2    0    0  0.30092648018E+03  0.15780977995E+04  0.33791929993E+02  0.16095007253E+04  0.91658491262E+02 0.  0.
         11    1    3    3    0    0  0.60045266067E+02  0.23569089447E+03  0.34493143906E+02  0.24565302500E+03  0.00000000000E+00 0. -1.
        -11    1    3    3    0    0  0.24088121411E+03  0.13424069050E+04 -0.70121391310E+00  0.13638477003E+04  0.00000000000E+00 0.  1.
         22    1    1    2    0    0 -0.30092648018E+03 -0.15780977995E+04 -0.21277018883E+03  0.16205618052E+04  0.00000000000E+00 0. -1.
<mgrwt>
<rscale>  0 0.32251001E+04</rscale>
<asrwt>0</asrwt>
<pdfrwt beam="1">  1        1 0.23469879E+00 0.32251001E+04</pdfrwt>
<pdfrwt beam="2">  1       -1 0.26223391E+00 0.32251001E+04</pdfrwt>
<totfact> 0.30425570E-01</totfact>
</mgrwt>
</event>
<event>
 6    1  0.2236204E-005  0.3251485E+04  0.7818608E-02  0.8175351E-01
         -2   -1    0    0    0  501 -0.00000000000E+00  0.00000000000E+00  0.15261013141E+04  0.15261013141E+04  0.00000000000E+00 0.  1.
          2   -1    0    0  501    0  0.00000000000E+00 -0.00000000000E+00 -0.17318892202E+04  0.17318892202E+04  0.00000000000E+00 0. -1.
         23    2    1    2    0    0 -0.15075540067E+04  0.58115643611E+02  0.50059208079E+03  0.15921366401E+04  0.90609813240E+02 0.  0.
         13    1    3    3    0    0 -0.83246431588E+03 -0.12151950436E+02  0.26654444843E+03  0.87417987285E+03  0.00000000000E+00 0. -1.
        -13    1    3    3    0    0 -0.67508969082E+03  0.70267594047E+02  0.23404763236E+03  0.71795676725E+03  0.00000000000E+00 0.  1.
         22    1    1    2    0    0  0.15075540067E+04 -0.58115643611E+02 -0.70637998687E+03  0.16658538943E+04  0.00000000000E+00 0. -1.
<mgrwt>
<rscale>  0 0.32514848E+04</rscale>
<asrwt>0</asrwt>
<pdfrwt beam="1">  1        2 0.26644449E+00 0.32514848E+04</pdfrwt>
<pdfrwt beam="2">  1       -2 0.23478482E+00 0.32514848E+04</pdfrwt>
<totfact> 0.63008573E-01</totfact>
</mgrwt>
</event>
<event>
 6    1  0.2236204E-005  0.3473784E+04  0.7818608E-02  0.8120031E-01
          2   -1    0    0  501    0  0.00000000000E+00  0.00000000000E+00  0.23588584250E+04  0.23588584250E+04  0.00000000000E+00 0. -1.
         -2   -1    0    0    0  501 -0.00000000000E+00 -0.00000000000E+00 -0.12789213571E+04  0.12789213571E+04  0.00000000000E+00 0.  1.
         23    2    1    2    0    0  0.41786350634E+03  0.99719506445E+03 -0.88154750010E+03  0.13980410436E+04  0.91568871297E+02 0.  0.
         11    1    3    3    0    0  0.22140344145E+03  0.51237952630E+03 -0.51338529778E+03  0.75836450790E+03  0.00000000000E+00 0.  1.
        -11    1    3    3    0    0  0.19646006489E+03  0.48481553815E+03 -0.36816220232E+03  0.63967653572E+03  0.00000000000E+00 0. -1.
         22    1    1    2    0    0 -0.41786350634E+03 -0.99719506445E+03  0.19614845680E+04  0.22397387386E+04  0.00000000000E+00 0. -1.
<mgrwt>
<rscale>  0 0.34737843E+04</rscale>
<asrwt>0</asrwt>
<pdfrwt beam="1">  1        2 0.36290130E+00 0.34737843E+04</pdfrwt>
<pdfrwt beam="2">  1       -2 0.19675713E+00 0.34737843E+04</pdfrwt>
<totfact> 0.48284939E-01</totfact>
</mgrwt>
</event>
<event>
 6    1  0.2236204E-005  0.1699025E+04  0.7818608E-02  0.8761921E-01
          2   -1    0    0  501    0  0.00000000000E+00  0.00000000000E+00  0.20066607215E+04  0.20066607215E+04  0.00000000000E+00 0. -1.
         -2   -1    0    0    0  501 -0.00000000000E+00 -0.00000000000E+00 -0.35963801177E+03  0.35963801177E+03  0.00000000000E+00 0.  1.
         23    2    1    2    0    0  0.42865160398E+03 -0.54527705843E+03  0.14855782153E+03  0.71509726488E+03  0.90694012237E+02 0.  0.
         13    1    3    3    0    0  0.17734446463E+03 -0.17500478929E+03  0.84174916259E+02  0.26298888177E+03  0.00000000000E+00 0.  1.
        -13    1    3    3    0    0  0.25130713935E+03 -0.37027226915E+03  0.64382905267E+02  0.45210838311E+03  0.00000000000E+00 0. -1.
         22    1    1    2    0    0 -0.42865160398E+03  0.54527705843E+03  0.14984648882E+04  0.16512014684E+04  0.00000000000E+00 0. -1.
<mgrwt>
<rscale>  0 0.16990250E+04</rscale>
<asrwt>0</asrwt>
<pdfrwt beam="1">  1        2 0.30871703E+00 0.16990250E+04</pdfrwt>
<pdfrwt beam="2">  1       -2 0.55328926E-01 0.16990250E+04</pdfrwt>
<totfact> 0.19359143E+01</totfact>
</mgrwt>
</event>
<event>
 6    1  0.2236204E-005  0.1420451E+04  0.7818608E-02  0.8939147E-01
          2   -1    0    0  501    0  0.00000000000E+00  0.00000000000E+00  0.97651913082E+03  0.97651913082E+03  0.00000000000E+00 0. -1.
         -2   -1    0    0    0  501 -0.00000000000E+00 -0.00000000000E+00 -0.51654941677E+03  0.51654941677E+03  0.00000000000E+00 0.  1.
         23    2    1    2    0    0 -0.22586685381E+03 -0.32851876603E+03  0.84499008803E+03  0.93882933600E+03  0.91933987093E+02 0.  0.
         13    1    3    3    0    0 -0.31308218171E+02 -0.11922158642E+03  0.26485601231E+03  0.29213472654E+03  0.00000000000E+00 0.  1.
        -13    1    3    3    0    0 -0.19455863564E+03 -0.20929717960E+03  0.58013407572E+03  0.64669460946E+03  0.00000000000E+00 0. -1.
         22    1    1    2    0    0  0.22586685381E+03  0.32851876603E+03 -0.38502037398E+03  0.55423921159E+03  0.00000000000E+00 0.  1.
<mgrwt>
<rscale>  0 0.14204512E+04</rscale>
<asrwt>0</asrwt>
<pdfrwt beam="1">  1        2 0.15023371E+00 0.14204512E+04</pdfrwt>
<pdfrwt beam="2">  1       -2 0.79469141E-01 0.14204512E+04</pdfrwt>
<totfact> 0.35582002E+01</totfact>
</mgrwt>
</event>
<event>
 6    1  0.2236204E-005  0.2491655E+04  0.7818608E-02  0.8405964E-01
          2   -1    0    0  501    0  0.00000000000E+00  0.00000000000E+00  0.78777519152E+03  0.78777519152E+03  0.00000000000E+00 0. -1.
         -2   -1    0    0    0  501 -0.00000000000E+00 -0.00000000000E+00 -0.19702148206E+04  0.19702148206E+04  0.00000000000E+00 0.  1.
         23    2    1    2    0    0  0.31977068426E+03  0.12022228575E+04 -0.57270442277E+03  0.13725766762E+04  0.91560289511E+02 0.  0.
         13    1    3    3    0    0  0.27652759091E+02  0.65717193985E+02 -0.54786555739E+02  0.89916580008E+02  0.00000000000E+00 0.  1.
        -13    1    3    3    0    0  0.29211792517E+03  0.11365056635E+04 -0.51791786703E+03  0.12826600962E+04  0.00000000000E+00 0. -1.
         22    1    1    2    0    0 -0.31977068426E+03 -0.12022228575E+04 -0.60973520628E+03  0.13854133359E+04  0.00000000000E+00 0. -1.
<mgrwt>
<rscale>  0 0.24916552E+04</rscale>
<asrwt>0</asrwt>
<pdfrwt beam="1">  1        2 0.12119618E+00 0.24916552E+04</pdfrwt>
<pdfrwt beam="2">  1       -2 0.30310997E+00 0.24916552E+04</pdfrwt>
<totfact> 0.95471363E-01</totfact>
</mgrwt>
</event>
<event>
 6    1  0.2236204E-005  0.3301207E+04  0.7818608E-02  0.8162588E-01
         -2   -1    0    0    0  501 -0.00000000000E+00  0.00000000000E+00  0.21434704511E+04  0.21434704511E+04  0.00000000000E+00 0.  1.
          2   -1    0    0  501    0  0.00000000000E+00 -0.00000000000E+00 -0.12710659573E+04  0.12710659573E+04  0.00000000000E+00 0. -1.
         23    2    1    2    0    0  0.11197309920E+04 -0.38325124733E+03 -0.75161039686E+03  0.14050331419E+04  0.92308874009E+02 0.  0.
         13    1    3    3    0    0  0.65193432740E+03 -0.17537350063E+03 -0.43562698848E+03  0.80345821612E+03  0.00000000000E+00 0.  1.
        -13    1    3    3    0    0  0.46779666460E+03 -0.20787774670E+03 -0.31598340838E+03  0.60157492581E+03  0.00000000000E+00 0. -1.
         22    1    1    2    0    0 -0.11197309920E+04  0.38325124733E+03  0.16240148906E+04  0.20095032665E+04  0.00000000000E+00 0.  1.
<mgrwt>
<rscale>  0 0.33012072E+04</rscale>
<asrwt>0</asrwt>
<pdfrwt beam="1">  1        2 0.19554861E+00 0.33012072E+04</pdfrwt>
<pdfrwt beam="2">  1       -2 0.32976469E+00 0.33012072E+04</pdfrwt>
<totfact> 0.29891882E-01</totfact>
</mgrwt>
</event>
<event>
 6    1  0.2236204E-005  0.1496742E+04  0.7818608E-02  0.8886622E-01
          2   -1    0    0  501    0  0.00000000000E+00  0.00000000000E+00  0.76287770111E+03  0.76287770111E+03  0.00000000000E+00 0. -1.
         -2   -1    0    0    0  501 -0.00000000000E+00 -0.00000000000E+00 -0.73414017494E+03  0.73414017494E+03  0.00000000000E+00 0.  1.
         23    2    1    2    0    0 -0.64994272130E+03 -0.21789100625E+03  0.30767067826E+03  0.75694643699E+03  0.91676772588E+02 0.  0.
         13    1    3    3    0    0 -0.15039857371E+03 -0.92349819406E+02  0.81648706138E+02  0.19446010216E+03  0.00000000000E+00 0.  1.
        -13    1    3    3    0    0 -0.49954414759E+03 -0.12554118684E+03  0.22602197213E+03  0.56248633483E+03  0.00000000000E+00 0. -1.
         22    1    1    2    0    0  0.64994272130E+03  0.21789100625E+03 -0.27893315210E+03  0.74007143906E+03  0.00000000000E+00 0.  1.
<mgrwt>
<rscale>  0 0.14967420E+04</rscale>
<asrwt>0</asrwt>
<pdfrwt beam="1">  1        2 0.11736580E+00 0.14967420E+04</pdfrwt>
<pdfrwt beam="2">  1       -2 0.11294464E+00 0.14967420E+04</pdfrwt>
<totfact> 0.21841224E+01</totfact>
</mgrwt>
</event>
<event>
 6    1  0.2236204E-005  0.4094405E+04  0.7818608E-02  0.7985768E-01
         -2   -1    0    0    0  501 -0.00000000000E+00  0.00000000000E+00  0.16894237110E+04  0.16894237110E+04  0.00000000000E+00 0. -1.
          2   -1    0    0  501    0  0.00000000000E+00 -0.00000000000E+00 -0.24807505193E+04  0.24807505193E+04  0.00000000000E+00 0.  1.
         23    2    1    2    0    0  0.66130758822E+03  0.18388186635E+04 -0.10140250561E+04  0.22034062437E+04  0.90390579998E+02 0.  0.
         11    1    3    3    0    0  0.14372544031E+03  0.29963188929E+03 -0.17475042517E+03  0.37546502150E+03  0.00000000000E+00 0. -1.
        -11    1    3    3    0    0  0.51758214790E+03  0.15391867742E+04 -0.83927463092E+03  0.18279412222E+04  0.00000000000E+00 0.  1.
         22    1    1    2    0    0 -0.66130758822E+03 -0.18388186635E+04  0.22269824777E+03  0.19667679866E+04  0.00000000000E+00 0. -1.
<mgrwt>
<rscale>  0 0.40944053E+04</rscale>
<asrwt>0</asrwt>
<pdfrwt beam="1">  1        2 0.38165392E+00 0.40944053E+04</pdfrwt>
<pdfrwt beam="2">  1       -2 0.25991134E+00 0.40944053E+04</pdfrwt>
<totfact> 0.15621010E-01</totfact>
</mgrwt>
</event>
<event>
 6    1  0.2236204E-005  0.2505547E+04  0.7818608E-02  0.8401012E-01
         -2   -1    0    0    0  501 -0.00000000000E+00  0.00000000000E+00  0.52926419205E+03  0.52926419205E+03  0.00000000000E+00 0.  1.
          2   -1    0    0  501    0  0.00000000000E+00 -0.00000000000E+00 -0.29653259330E+04  0.29653259330E+04  0.00000000000E+00 0. -1.
         23    2    1    2    0    0  0.80759107269E+03  0.92416224239E+03 -0.15595756647E+04  0.19864432380E+04  0.86030768644E+02 0.  0.
         11    1    3    3    0    0  0.20527129166E+03  0.20672688738E+03 -0.42243111243E+03  0.51314749721E+03  0.00000000000E+00 0.  1.
        -11    1    3    3    0    0  0.60231978103E+03  0.71743535501E+03 -0.11371445522E+04  0.14732957408E+04  0.00000000000E+00 0. -1.
         22    1    1    2    0    0 -0.80759107269E+03 -0.92416224239E+03 -0.87648607632E+03  0.15081468871E+04  0.00000000000E+00 0.  1.
<mgrwt>
<rscale>  0 0.25055465E+04</rscale>
<asrwt>0</asrwt>
<pdfrwt beam="1">  1        2 0.45620398E+00 0.25055465E+04</pdfrwt>
<pdfrwt beam="2">  1       -2 0.81425262E-01 0.25055465E+04</pdfrwt>
<totfact> 0.21675881E+00</totfact>
</mgrwt>
</event>
<event>
 6    1  0.2236204E-005  0.1097909E+04  0.7818608E-02  0.9207232E-01
          2   -1    0    0  501    0  0.00000000000E+00  0.00000000000E+00  0.15295207068E+04  0.15295207068E+04  0.00000000000E+00 0. -1.
         -2   -1    0    0    0  501 -0.00000000000E+00 -0.00000000000E+00 -0.19702321431E+03  0.19702321431E+03  0.00000000000E+00 0.  1.
         23    2    1    2    0    0  0.51655088674E+03  0.11707557299E+03  0.87318443001E+03  0.10254733129E+04  0.92806024494E+02 0.  0.
         13    1    3    3    0    0  0.43451692068E+02  0.47350113406E+01  0.33163554534E+02  0.54866120925E+02  0.00000000000E+00 0.  1.
        -13    1    3    3    0    0  0.47309919467E+03  0.11234056165E+03  0.84002087548E+03  0.97060719193E+03  0.00000000000E+00 0. -1.
         22    1    1    2    0    0 -0.51655088674E+03 -0.11707557299E+03  0.45931306243E+03  0.70107060821E+03  0.00000000000E+00 0. -1.
<mgrwt>
<rscale>  0 0.10979091E+04</rscale>
<asrwt>0</asrwt>
<pdfrwt beam="1">  1        2 0.23531087E+00 0.10979091E+04</pdfrwt>
<pdfrwt beam="2">  1       -2 0.30311265E-01 0.10979091E+04</pdfrwt>
<totfact> 0.12192853E+02</totfact>
</mgrwt>
</event>
<event>
 6    1  0.2236204E-005  0.1011070E+04  0.7818608E-02  0.9296486E-01
          1   -1    0    0  501    0  0.00000000000E+00  0.00000000000E+00  0.42770647115E+03  0.42770647115E+03  0.00000000000E+00 0. -1.
         -1   -1    0    0    0  501 -0.00000000000E+00 -0.00000000000E+00 -0.59752581393E+03  0.59752581393E+03  0.00000000000E+00 0.  1.
         23    2    1    2    0    0 -0.44708227499E+03  0.10832837645E+03 -0.28695941604E+03  0.55053301762E+03  0.95515963511E+02 0.  0.
         11    1    3    3    0    0 -0.57450338907E+02  0.12293746089E+02 -0.79306165816E+02  0.98697241957E+02  0.00000000000E+00 0. -1.
        -11    1    3    3    0    0 -0.38963193608E+03  0.96034630363E+02 -0.20765325023E+03  0.45183577567E+03  0.00000000000E+00 0.  1.
         22    1    1    2    0    0  0.44708227499E+03 -0.10832837645E+03  0.11714007326E+03  0.47469926745E+03  0.00000000000E+00 0. -1.
<mgrwt>
<rscale>  0 0.10110700E+04</rscale>
<asrwt>0</asrwt>
<pdfrwt beam="1">  1        1 0.65800996E-01 0.10110700E+04</pdfrwt>
<pdfrwt beam="2">  1       -1 0.91927048E-01 0.10110700E+04</pdfrwt>
<totfact> 0.63372807E+01</totfact>
</mgrwt>
</event>
<event>
 6    1  0.2236204E-005  0.8739928E+03  0.7818608E-02  0.9458689E-01
         -2   -1    0    0    0  501 -0.00000000000E+00  0.00000000000E+00  0.93975871086E+03  0.93975871086E+03  0.00000000000E+00 0.  1.
          2   -1    0    0  501    0  0.00000000000E+00 -0.00000000000E+00 -0.20320731948E+03  0.20320731948E+03  0.00000000000E+00 0. -1.
         23    2    1    2    0    0 -0.27708934786E+03  0.38685022079E+02 -0.58785327148E+02  0.29985540091E+03  0.90457222697E+02 0.  0.
         13    1    3    3    0    0 -0.69744110667E+02  0.39223778790E+02 -0.45582167422E+02  0.92089520480E+02  0.00000000000E+00 0.  1.
        -13    1    3    3    0    0 -0.20734523719E+03 -0.53875671126E+00 -0.13203159726E+02  0.20776588043E+03  0.00000000000E+00 0. -1.
         22    1    1    2    0    0  0.27708934786E+03 -0.38685022079E+02  0.79533671852E+03  0.84311062943E+03  0.00000000000E+00 0.  1.
<mgrwt>
<rscale>  0 0.87399279E+03</rscale>
<asrwt>0</asrwt>
<pdfrwt beam="1">  1        2 0.31262665E-01 0.87399279E+03</pdfrwt>
<pdfrwt beam="2">  1       -2 0.14457826E+00 0.87399279E+03</pdfrwt>
<totfact> 0.56330829E+01</totfact>
</mgrwt>
</event>
<event>
 6    1  0.2236204E-005  0.2088522E+04  0.7818608E-02  0.8566316E-01
         -2   -1    0    0    0  501 -0.00000000000E+00  0.00000000000E+00  0.48620768030E+03  0.48620768030E+03  0.00000000000E+00 0.  1.
          2   -1    0    0  501    0  0.00000000000E+00 -0.00000000000E+00 -0.22428294835E+04  0.22428294835E+04  0.00000000000E+00 0. -1.
         23    2    1    2    0    0  0.33996257826E+03 -0.55672865257E+03  0.18207731023E+03  0.68353585614E+03  0.92454164458E+02 0.  0.
         13    1    3    3    0    0  0.16863954210E+03 -0.21388740231E+03  0.42618297791E+02  0.27568720560E+03  0.00000000000E+00 0. -1.
        -13    1    3    3    0    0  0.17132303616E+03 -0.34284125026E+03  0.13945901244E+03  0.40784865054E+03  0.00000000000E+00 0.  1.
         22    1    1    2    0    0 -0.33996257826E+03  0.55672865257E+03 -0.19386991134E+04  0.20455013076E+04  0.00000000000E+00 0. -1.
<mgrwt>
<rscale>  0 0.20885219E+04</rscale>
<asrwt>0</asrwt>
<pdfrwt beam="1">  1        2 0.34505069E+00 0.20885219E+04</pdfrwt>
<pdfrwt beam="2">  1       -2 0.74801182E-01 0.20885219E+04</pdfrwt>
<totfact> 0.72367963E+00</totfact>
</mgrwt>
</event>
<event>
 6    1  0.2236204E-005  0.1497047E+04  0.7818608E-02  0.8886419E-01
         -2   -1    0    0    0  501 -0.00000000000E+00  0.00000000000E+00  0.50870770107E+03  0.50870770107E+03  0.00000000000E+00 0.  1.
          2   -1    0    0  501    0  0.00000000000E+00 -0.00000000000E+00 -0.11013943637E+04  0.11013943637E+04  0.00000000000E+00 0. -1.
         23    2    1    2    0    0 -0.43207458801E+03  0.14424299966E+02  0.35597979161E+03  0.56757410284E+03  0.92315979937E+02 0.  0.
         11    1    3    3    0    0 -0.35500857833E+03 -0.24084886280E+02  0.28212576619E+03  0.45409924068E+03  0.00000000000E+00 0.  1.
        -11    1    3    3    0    0 -0.77066009680E+02  0.38509186246E+02  0.73854025411E+02  0.11347486216E+03  0.00000000000E+00 0. -1.
         22    1    1    2    0    0  0.43207458801E+03 -0.14424299966E+02 -0.94866645428E+03  0.10425279620E+04  0.00000000000E+00 0. -1.
<mgrwt>
<rscale>  0 0.14970475E+04</rscale>
<asrwt>0</asrwt>
<pdfrwt beam="1">  1        2 0.16944528E+00 0.14970475E+04</pdfrwt>
<pdfrwt beam="2">  1       -2 0.78262724E-01 0.14970475E+04</pdfrwt>
<totfact> 0.30519298E+01</totfact>
</mgrwt>
</event>
<event>
 6    1  0.2236204E-005  0.1290935E+04  0.7818608E-02  0.9036785E-01
          3   -1    0    0  501    0  0.00000000000E+00  0.00000000000E+00  0.56010258625E+03  0.56010258625E+03  0.00000000000E+00 0. -1.
         -3   -1    0    0    0  501 -0.00000000000E+00 -0.00000000000E+00 -0.74384316310E+03  0.74384316310E+03  0.00000000000E+00 0.  1.
         23    2    1    2    0    0  0.21555264986E+03  0.53141920146E+03  0.19852863628E+03  0.61474399089E+03  0.98118511882E+02 0.  0.
         11    1    3    3    0    0  0.12689278228E+03  0.25661029386E+03  0.14562439164E+03  0.32118076616E+03  0.00000000000E+00 0.  1.
        -11    1    3    3    0    0  0.88659867580E+02  0.27480890760E+03  0.52904244643E+02  0.29356322474E+03  0.00000000000E+00 0. -1.
         22    1    1    2    0    0 -0.21555264986E+03 -0.53141920146E+03 -0.38226921314E+03  0.68920175846E+03  0.00000000000E+00 0.  1.
<mgrwt>
<rscale>  0 0.12909353E+04</rscale>
<asrwt>0</asrwt>
<pdfrwt beam="1">  1        3 0.86169628E-01 0.12909353E+04</pdfrwt>
<pdfrwt beam="2">  1       -3 0.11443741E+00 0.12909353E+04</pdfrwt>
<totfact> 0.20078661E+00</totfact>
</mgrwt>
</event>
<event>
 6    1  0.2236204E-005  0.3453808E+04  0.7818608E-02  0.8124825E-01
         -2   -1    0    0    0  501 -0.00000000000E+00  0.00000000000E+00  0.89271436493E+03  0.89271436493E+03  0.00000000000E+00 0.  1.
          2   -1    0    0  501    0  0.00000000000E+00 -0.00000000000E+00 -0.33405959031E+04  0.33405959031E+04  0.00000000000E+00 0. -1.
         23    2    1    2    0    0 -0.47053094643E+03  0.12950513418E+04  0.48663431425E+02  0.13817678548E+04  0.91416221129E+02 0.  0.
         13    1    3    3    0    0 -0.15837597423E+03  0.44819414410E+03 -0.26468685089E+02  0.47608983533E+03  0.00000000000E+00 0.  1.
        -13    1    3    3    0    0 -0.31215497220E+03  0.84685719769E+03  0.75132116514E+02  0.90567801943E+03  0.00000000000E+00 0. -1.
         22    1    1    2    0    0  0.47053094643E+03 -0.12950513418E+04 -0.24965449696E+04  0.28515424132E+04  0.00000000000E+00 0. -1.
<mgrwt>
<rscale>  0 0.34538083E+04</rscale>
<asrwt>0</asrwt>
<pdfrwt beam="1">  1        2 0.51393782E+00 0.34538083E+04</pdfrwt>
<pdfrwt beam="2">  1       -2 0.13734067E+00 0.34538083E+04</pdfrwt>
<totfact> 0.32530329E-01</totfact>
</mgrwt>
</event>
<event>
 6    1  0.2236204E-005  0.4828217E+04  0.7818608E-02  0.7855567E-01
         -2   -1    0    0    0  501 -0.00000000000E+00  0.00000000000E+00  0.17524388011E+04  0.17524388011E+04  0.00000000000E+00 0.  1.
          2   -1    0    0  501    0  0.00000000000E+00 -0.00000000000E+00 -0.33256047863E+04  0.33256047863E+04  0.00000000000E+00 0. -1.
         23    2    1    2    0    0  0.59049917528E+03  0.11050368865E+04  0.13823624494E+04  0.18679121067E+04  0.91509017737E+02 0.  0.
         13    1    3    3    0    0  0.30489161110E+03  0.49572888034E+03  0.59814237701E+03  0.83455396500E+03  0.00000000000E+00 0.  1.
        -13    1    3    3    0    0  0.28560756418E+03  0.60930800617E+03  0.78422007235E+03  0.10333581417E+04  0.00000000000E+00 0. -1.
         22    1    1    2    0    0 -0.59049917528E+03 -0.11050368865E+04 -0.29555284345E+04  0.32101314807E+04  0.00000000000E+00 0. -1.
<mgrwt>
<rscale>  0 0.48282166E+04</rscale>
<asrwt>0</asrwt>
<pdfrwt beam="1">  1        2 0.51163150E+00 0.48282166E+04</pdfrwt>
<pdfrwt beam="2">  1       -2 0.26960597E+00 0.48282166E+04</pdfrwt>
<totfact> 0.38460480E-02</totfact>
</mgrwt>
</event>
<event>
 6    1  0.2236204E-005  0.1826601E+04  0.7818608E-02  0.8692280E-01
          2   -1    0    0  501    0  0.00000000000E+00  0.00000000000E+00  0.71877170078E+03  0.71877170078E+03  0.00000000000E+00 0. -1.
         -2   -1    0    0    0  501 -0.00000000000E+00 -0.00000000000E+00 -0.11604765383E+04  0.11604765383E+04  0.00000000000E+00 0.  1.
         23    2    1    2    0    0 -0.31488012362E+03  0.42003419304E+03  0.54472979371E+03  0.76182643096E+03  0.89837337270E+02 0.  0.
         13    1    3    3    0    0 -0.11245718021E+03  0.22409998067E+03  0.26508086974E+03  0.36487708371E+03  0.00000000000E+00 0. -1.
        -13    1    3    3    0    0 -0.20242294341E+03  0.19593421237E+03  0.27964892397E+03  0.39694934724E+03  0.00000000000E+00 0.  1.
         22    1    1    2    0    0  0.31488012362E+03 -0.42003419304E+03 -0.98643463119E+03  0.11174218081E+04  0.00000000000E+00 0.  1.
<mgrwt>
<rscale>  0 0.18266009E+04</rscale>
<asrwt>0</asrwt>
<pdfrwt beam="1">  1        2 0.11058026E+00 0.18266009E+04</pdfrwt>
<pdfrwt beam="2">  1       -2 0.17853485E+00 0.18266009E+04</pdfrwt>
<totfact> 0.69224340E+00</totfact>
</mgrwt>
</event>
<event>
 6    1  0.2236204E-005  0.1018518E+04  0.7818608E-02  0.9288465E-01
          2   -1    0    0  501    0  0.00000000000E+00  0.00000000000E+00  0.22923937233E+04  0.22923937233E+04  0.00000000000E+00 0. -1.
         -2   -1    0    0    0  501 -0.00000000000E+00 -0.00000000000E+00 -0.11313264431E+03  0.11313264431E+03  0.00000000000E+00 0.  1.
         23    2    1    2    0    0  0.41603550997E+03  0.28206566936E+03  0.12156889062E+04  0.13187338761E+04  0.92265551529E+02 0.  0.
         13    1    3    3    0    0  0.95224827793E+02  0.92312814873E+02  0.23885588746E+03  0.27320607349E+03  0.00000000000E+00 0.  1.
        -13    1    3    3    0    0  0.32081068217E+03  0.18975285449E+03  0.97683301871E+03  0.10455278026E+04  0.00000000000E+00 0. -1.
         22    1    1    2    0    0 -0.41603550997E+03 -0.28206566936E+03  0.96357217283E+03  0.10867924915E+04  0.00000000000E+00 0.  1.
<mgrwt>
<rscale>  0 0.10185177E+04</rscale>
<asrwt>0</asrwt>
<pdfrwt beam="1">  1        2 0.35267592E+00 0.10185177E+04</pdfrwt>
<pdfrwt beam="2">  1       -2 0.17405024E-01 0.10185177E+04</pdfrwt>
<totfact> 0.12532568E+02</totfact>
</mgrwt>
</event>
<event>
 6    1  0.2327292E-005  0.4548569E+04  0.7818608E-02  0.7902189E-01
         -2   -1    0    0    0  501 -0.00000000000E+00  0.00000000000E+00  0.23328932990E+04  0.23328932990E+04  0.00000000000E+00 0.  1.
          2   -1    0    0  501    0  0.00000000000E+00 -0.00000000000E+00 -0.22171482521E+04  0.22171482521E+04  0.00000000000E+00 0. -1.
         23    2    1    2    0    0  0.12004339071E+03  0.18976036982E+04  0.13044730700E+04  0.23076355834E+04  0.90674056074E+02 0.  0.
         11    1    3    3    0    0  0.62212016655E+02  0.11112629109E+04  0.71004947983E+03  0.13202067474E+04  0.00000000000E+00 0. -1.
        -11    1    3    3    0    0  0.57831374056E+02  0.78634078734E+03  0.59442359017E+03  0.98742883602E+03  0.00000000000E+00 0.  1.
         22    1    1    2    0    0 -0.12004339071E+03 -0.18976036982E+04 -0.11887280231E+04  0.22424059677E+04  0.00000000000E+00 0. -1.
<mgrwt>
<rscale>  0 0.45485691E+04</rscale>
<asrwt>0</asrwt>
<pdfrwt beam="1">  1        2 0.34109973E+00 0.45485691E+04</pdfrwt>
<pdfrwt beam="2">  1       -2 0.35890666E+00 0.45485691E+04</pdfrwt>
<totfact> 0.52083723E-02</totfact>
</mgrwt>
</event>
<event>
 6    1  0.2236204E-005  0.1847155E+04  0.7818608E-02  0.8681617E-01
          2   -1    0    0  501    0  0.00000000000E+00  0.00000000000E+00  0.34616258264E+04  0.34616258264E+04  0.00000000000E+00 0. -1.
         -2   -1    0    0    0  501 -0.00000000000E+00 -0.00000000000E+00 -0.24641474149E+03  0.24641474149E+03  0.00000000000E+00 0.  1.
         23    2    1    2    0    0  0.76564316186E+03  0.14495166315E+03  0.62512455081E+03  0.10032727978E+04  0.92494144878E+02 0.  0.
         13    1    3    3    0    0  0.65349693304E+03  0.10240204052E+03  0.49411618565E+03  0.82564836602E+03  0.00000000000E+00 0.  1.
        -13    1    3    3    0    0  0.11214622882E+03  0.42549622628E+02  0.13100836515E+03  0.17762443178E+03  0.00000000000E+00 0. -1.
         22    1    1    2    0    0 -0.76564316186E+03 -0.14495166315E+03  0.25900865341E+04  0.27047677701E+04  0.00000000000E+00 0. -1.
<mgrwt>
<rscale>  0 0.18471553E+04</rscale>
<asrwt>0</asrwt>
<pdfrwt beam="1">  1        2 0.53255778E+00 0.18471553E+04</pdfrwt>
<pdfrwt beam="2">  1       -2 0.37909963E-01 0.18471553E+04</pdfrwt>
<totfact> 0.53787740E+00</totfact>
</mgrwt>
</event>
<event>
 6    1  0.2236204E-005  0.3322185E+04  0.7818608E-02  0.8157273E-01
          2   -1    0    0  501    0  0.00000000000E+00  0.00000000000E+00  0.13156216883E+04  0.13156216883E+04  0.00000000000E+00 0. -1.
         -2   -1    0    0    0  501 -0.00000000000E+00 -0.00000000000E+00 -0.20972814931E+04  0.20972814931E+04  0.00000000000E+00 0.  1.
         23    2    1    2    0    0  0.10417458212E+04 -0.10270357362E+04  0.41448569557E+03  0.15232469118E+04  0.91902137955E+02 0.  0.
         11    1    3    3    0    0  0.86997547225E+03 -0.86317607950E+03  0.38171832685E+03  0.12836039684E+04  0.00000000000E+00 0.  1.
        -11    1    3    3    0    0  0.17177034900E+03 -0.16385965667E+03  0.32767368727E+02  0.23964294343E+03  0.00000000000E+00 0. -1.
         22    1    1    2    0    0 -0.10417458212E+04  0.10270357362E+04 -0.11961455003E+04  0.18896562696E+04  0.00000000000E+00 0.  1.
<mgrwt>
<rscale>  0 0.33221854E+04</rscale>
<asrwt>0</asrwt>
<pdfrwt beam="1">  1        2 0.20240334E+00 0.33221854E+04</pdfrwt>
<pdfrwt beam="2">  1       -2 0.32265868E+00 0.33221854E+04</pdfrwt>
<totfact> 0.31107516E-01</totfact>
</mgrwt>
</event>
<event>
 6    1  0.2236204E-005  0.5673522E+04  0.7818608E-02  0.7732254E-01
         -2   -1    0    0    0  501 -0.00000000000E+00  0.00000000000E+00  0.26953024011E+04  0.26953024011E+04  0.00000000000E+00 0.  1.
          2   -1    0    0  501    0  0.00000000000E+00 -0.00000000000E+00 -0.29856437997E+04  0.29856437997E+04  0.00000000000E+00 0. -1.
         23    2    1    2    0    0  0.71121970174E+03  0.11522625186E+04 -0.26403565116E+04  0.29687306106E+04  0.91304731181E+02 0.  0.
         11    1    3    3    0    0  0.49485395216E+03  0.87760227381E+03 -0.19643906284E+04  0.22076903601E+04  0.00000000000E+00 0.  1.
        -11    1    3    3    0    0  0.21636574958E+03  0.27466024479E+03 -0.67596588323E+03  0.76104025054E+03  0.00000000000E+00 0. -1.
         22    1    1    2    0    0 -0.71121970174E+03 -0.11522625186E+04  0.23500151131E+04  0.27122155902E+04  0.00000000000E+00 0.  1.
<mgrwt>
<rscale>  0 0.56735220E+04</rscale>
<asrwt>0</asrwt>
<pdfrwt beam="1">  1        2 0.45932981E+00 0.56735220E+04</pdfrwt>
<pdfrwt beam="2">  1       -2 0.41466191E+00 0.56735220E+04</pdfrwt>
<totfact> 0.73063033E-03</totfact>
</mgrwt>
</event>
<event>
 6    1  0.2236204E-005  0.1887849E+04  0.7818608E-02  0.8660928E-01
         -2   -1    0    0    0  501 -0.00000000000E+00  0.00000000000E+00  0.80522770354E+03  0.80522770354E+03  0.00000000000E+00 0. -1.
          2   -1    0    0  501    0  0.00000000000E+00 -0.00000000000E+00 -0.11065115982E+04  0.11065115982E+04  0.00000000000E+00 0.  1.
         23    2    1    2    0    0 -0.35386092343E+03  0.59340296687E+03  0.49708160304E+03  0.85593055856E+03  0.90456435784E+02 0.  0.
         13    1    3    3    0    0 -0.33102646797E+03  0.53618108263E+03  0.42010827055E+03  0.75733720023E+03  0.00000000000E+00 0.  1.
        -13    1    3    3    0    0 -0.22834455460E+02  0.57221884239E+02  0.76973332492E+02  0.98593358331E+02  0.00000000000E+00 0. -1.
         22    1    1    2    0    0  0.35386092343E+03 -0.59340296687E+03 -0.79836549766E+03  0.10558087431E+04  0.00000000000E+00 0.  1.
<mgrwt>
<rscale>  0 0.18878494E+04</rscale>
<asrwt>0</asrwt>
<pdfrwt beam="1">  1        2 0.17023255E+00 0.18878494E+04</pdfrwt>
<pdfrwt beam="2">  1       -2 0.12388119E+00 0.18878494E+04</pdfrwt>
<totfact> 0.99252011E+00</totfact>
</mgrwt>
</event>
<event>
 6    1  0.2236204E-005  0.2874531E+04  0.7818608E-02  0.8280496E-01
         -2   -1    0    0    0  501 -0.00000000000E+00  0.00000000000E+00  0.66904427391E+03  0.66904427391E+03  0.00000000000E+00 0.  1.
          2   -1    0    0  501    0  0.00000000000E+00 -0.00000000000E+00 -0.30875866026E+04  0.30875866026E+04  0.00000000000E+00 0. -1.
         23    2    1    2    0    0  0.10936354054E+04 -0.35615091799E+03 -0.23336639007E+04  0.26033372348E+04  0.92172015990E+02 0.  0.
         11    1    3    3    0    0  0.76451122613E+03 -0.28659850021E+03 -0.16027477506E+04  0.17987263458E+04  0.00000000000E+00 0. -1.
        -11    1    3    3    0    0  0.32912417930E+03 -0.69552417773E+02 -0.73091615013E+03  0.80461088903E+03  0.00000000000E+00 0.  1.
         22    1    1    2    0    0 -0.10936354054E+04  0.35615091799E+03 -0.84878427991E+02  0.11532936417E+04  0.00000000000E+00 0.  1.
<mgrwt>
<rscale>  0 0.28745310E+04</rscale>
<asrwt>0</asrwt>
<pdfrwt beam="1">  1        2 0.47501332E+00 0.28745310E+04</pdfrwt>
<pdfrwt beam="2">  1       -2 0.10292989E+00 0.28745310E+04</pdfrwt>
<totfact> 0.10214639E+00</totfact>
</mgrwt>
</event>
<event>
 6    1  0.2236204E-005  0.2403244E+04  0.7818608E-02  0.8438290E-01
          2   -1    0    0  501    0  0.00000000000E+00  0.00000000000E+00  0.15563868936E+04  0.15563868936E+04  0.00000000000E+00 0.  1.
         -2   -1    0    0    0  501 -0.00000000000E+00 -0.00000000000E+00 -0.92772235765E+03  0.92772235765E+03  0.00000000000E+00 0. -1.
         23    2    1    2    0    0  0.57143454633E+03 -0.48300906024E+03  0.12843612764E+04  0.14892356872E+04  0.91672518152E+02 0.  0.
         13    1    3    3    0    0  0.20715431265E+03 -0.12292743271E+03  0.44171182940E+03  0.50312364603E+03  0.00000000000E+00 0. -1.
        -13    1    3    3    0    0  0.36428023368E+03 -0.36008162753E+03  0.84264944700E+03  0.98611204113E+03  0.00000000000E+00 0.  1.
         22    1    1    2    0    0 -0.57143454633E+03  0.48300906024E+03 -0.65569674048E+03  0.99487356407E+03  0.00000000000E+00 0. -1.
<mgrwt>
<rscale>  0 0.24032436E+04</rscale>
<asrwt>0</asrwt>
<pdfrwt beam="1">  1        2 0.23944414E+00 0.24032436E+04</pdfrwt>
<pdfrwt beam="2">  1       -2 0.14272652E+00 0.24032436E+04</pdfrwt>
<totfact> 0.36231311E+00</totfact>
</mgrwt>
</event>
<event>
 6    1  0.2236204E-005  0.1956681E+04  0.7818608E-02  0.8627146E-01
         -2   -1    0    0    0  501 -0.00000000000E+00  0.00000000000E+00  0.11954711747E+04  0.11954711747E+04  0.00000000000E+00 0.  1.
          2   -1    0    0  501    0  0.00000000000E+00 -0.00000000000E+00 -0.80064715015E+03  0.80064715015E+03  0.00000000000E+00 0. -1.
         23    2    1    2    0    0 -0.70645555585E+03 -0.21670070046E+03 -0.45338841842E+03  0.87117255088E+03  0.85684943187E+02 0.  0.
         13    1    3    3    0    0 -0.21688221515E+03 -0.10471337561E+03 -0.16650078580E+03  0.29278882826E+03  0.00000000000E+00 0.  1.
        -13    1    3    3    0    0 -0.48957334070E+03 -0.11198732485E+03 -0.28688763262E+03  0.57838372263E+03  0.00000000000E+00 0. -1.
         22    1    1    2    0    0  0.70645555585E+03  0.21670070046E+03  0.84821244296E+03  0.11249457740E+04  0.00000000000E+00 0.  1.
<mgrwt>
<rscale>  0 0.19566815E+04</rscale>
<asrwt>0</asrwt>
<pdfrwt beam="1">  1        2 0.12317648E+00 0.19566815E+04</pdfrwt>
<pdfrwt beam="2">  1       -2 0.18391864E+00 0.19566815E+04</pdfrwt>
<totfact> 0.54642886E+00</totfact>
</mgrwt>
</event>
<event>
 6    1  0.2236204E-005  0.2728246E+04  0.7818608E-02  0.8325898E-01
          1   -1    0    0  501    0  0.00000000000E+00  0.00000000000E+00  0.90576087328E+03  0.90576087328E+03  0.00000000000E+00 0. -1.
         -1   -1    0    0    0  501 -0.00000000000E+00 -0.00000000000E+00 -0.20544406451E+04  0.20544406451E+04  0.00000000000E+00 0.  1.
         23    2    1    2    0    0  0.46837872554E+03  0.36334689630E+03  0.75624611132E+03  0.96517214070E+03  0.90826662967E+02 0.  0.
         11    1    3    3    0    0  0.23643011866E+03  0.16318294461E+03  0.43457516081E+03  0.52094476177E+03  0.00000000000E+00 0. -1.
        -11    1    3    3    0    0  0.23194860688E+03  0.20016395168E+03  0.32167095050E+03  0.44422737892E+03  0.00000000000E+00 0.  1.
         22    1    1    2    0    0 -0.46837872554E+03 -0.36334689630E+03 -0.19049258831E+04  0.19950293777E+04  0.00000000000E+00 0.  1.
<mgrwt>
<rscale>  0 0.27282463E+04</rscale>
<asrwt>0</asrwt>
<pdfrwt beam="1">  1        1 0.13934783E+00 0.27282463E+04</pdfrwt>
<pdfrwt beam="2">  1       -1 0.31606779E+00 0.27282463E+04</pdfrwt>
<totfact> 0.40706755E-01</totfact>
</mgrwt>
</event>
<event>
 6    1  0.2236204E-005  0.1950879E+04  0.7818608E-02  0.8629937E-01
          2   -1    0    0  501    0  0.00000000000E+00  0.00000000000E+00  0.23421955762E+04  0.23421955762E+04  0.00000000000E+00 0.  1.
         -2   -1    0    0    0  501 -0.00000000000E+00 -0.00000000000E+00 -0.40623523549E+03  0.40623523549E+03  0.00000000000E+00 0. -1.
         23    2    1    2    0    0  0.88999413895E+03 -0.78559927631E+02  0.15138215211E+04  0.17602696848E+04  0.92911441157E+02 0.  0.
         11    1    3    3    0    0  0.36883466715E+03 -0.69377116248E+02  0.58031199921E+03  0.69109638429E+03  0.00000000000E+00 0. -1.
        -11    1    3    3    0    0  0.52115947180E+03 -0.91828113834E+01  0.93350952194E+03  0.10691733006E+04  0.00000000000E+00 0.  1.
         22    1    1    2    0    0 -0.88999413895E+03  0.78559927631E+02  0.42213881955E+03  0.98816112683E+03  0.00000000000E+00 0. -1.
<mgrwt>
<rscale>  0 0.19508792E+04</rscale>
<asrwt>0</asrwt>
<pdfrwt beam="1">  1        2 0.36033777E+00 0.19508792E+04</pdfrwt>
<pdfrwt beam="2">  1       -2 0.62497730E-01 0.19508792E+04</pdfrwt>
<totfact> 0.95053804E+00</totfact>
</mgrwt>
</event>
<event>
 6    1  0.2236204E-005  0.3035793E+04  0.7818608E-02  0.8233583E-01
          2   -1    0    0  501    0  0.00000000000E+00  0.00000000000E+00  0.23836142152E+04  0.23836142152E+04  0.00000000000E+00 0. -1.
         -2   -1    0    0    0  501 -0.00000000000E+00 -0.00000000000E+00 -0.96660326312E+03  0.96660326312E+03  0.00000000000E+00 0.  1.
         23    2    1    2    0    0  0.96208797040E+03  0.34973114668E+03 -0.52583373671E+03  0.11541822731E+04  0.87809242968E+02 0.  0.
         13    1    3    3    0    0  0.92997649195E+02  0.40641614601E+02 -0.82322711262E+02  0.13068026776E+03  0.00000000000E+00 0.  1.
        -13    1    3    3    0    0  0.86909032121E+03  0.30908953208E+03 -0.44351102545E+03  0.10235020053E+04  0.00000000000E+00 0. -1.
         22    1    1    2    0    0 -0.96208797040E+03 -0.34973114668E+03  0.19428446888E+04  0.21960352052E+04  0.00000000000E+00 0. -1.
<mgrwt>
<rscale>  0 0.30357927E+04</rscale>
<asrwt>0</asrwt>
<pdfrwt beam="1">  1        2 0.36670988E+00 0.30357927E+04</pdfrwt>
<pdfrwt beam="2">  1       -2 0.14870820E+00 0.30357927E+04</pdfrwt>
<totfact> 0.10628074E+00</totfact>
</mgrwt>
</event>
<event>
 6    1  0.2236204E-005  0.2891126E+04  0.7818608E-02  0.8275523E-01
          2   -1    0    0  501    0  0.00000000000E+00  0.00000000000E+00  0.13409454599E+04  0.13409454599E+04  0.00000000000E+00 0. -1.
         -2   -1    0    0    0  501 -0.00000000000E+00 -0.00000000000E+00 -0.15583424363E+04  0.15583424363E+04  0.00000000000E+00 0.  1.
         23    2    1    2    0    0  0.12974831281E+04  0.36650721569E+03 -0.62775266689E+03  0.14899682733E+04  0.90233240643E+02 0.  0.
         13    1    3    3    0    0  0.73648362286E+03  0.24832731181E+03 -0.33691289908E+03  0.84710382014E+03  0.00000000000E+00 0.  1.
        -13    1    3    3    0    0  0.56099950526E+03  0.11817990388E+03 -0.29083976782E+03  0.64286445315E+03  0.00000000000E+00 0. -1.
         22    1    1    2    0    0 -0.12974831281E+04 -0.36650721569E+03  0.41035569042E+03  0.14093196229E+04  0.00000000000E+00 0. -1.
<mgrwt>
<rscale>  0 0.28911259E+04</rscale>
<asrwt>0</asrwt>
<pdfrwt beam="1">  1        2 0.20629930E+00 0.28911259E+04</pdfrwt>
<pdfrwt beam="2">  1       -2 0.23974499E+00 0.28911259E+04</pdfrwt>
<totfact> 0.10049005E+00</totfact>
</mgrwt>
</event>
<event>
 6    1  0.2236204E-005  0.1686174E+04  0.7818608E-02  0.8769290E-01
         -2   -1    0    0    0  501 -0.00000000000E+00  0.00000000000E+00  0.57012446620E+03  0.57012446620E+03  0.00000000000E+00 0.  1.
          2   -1    0    0  501    0  0.00000000000E+00 -0.00000000000E+00 -0.12467373154E+04  0.12467373154E+04  0.00000000000E+00 0. -1.
         23    2    1    2    0    0 -0.25917898202E+03 -0.79852149196E+03 -0.29460124537E+03  0.89450437621E+03  0.92400581409E+02 0.  0.
         13    1    3    3    0    0 -0.79713986493E+02 -0.37609203242E+03 -0.15787726710E+03  0.41560169388E+03  0.00000000000E+00 0. -1.
        -13    1    3    3    0    0 -0.17946499552E+03 -0.42242945954E+03 -0.13672397827E+03  0.47890268233E+03  0.00000000000E+00 0.  1.
         22    1    1    2    0    0  0.25917898202E+03  0.79852149196E+03 -0.38201160385E+03  0.92235740541E+03  0.00000000000E+00 0. -1.
<mgrwt>
<rscale>  0 0.16861737E+04</rscale>
<asrwt>0</asrwt>
<pdfrwt beam="1">  1        2 0.19180574E+00 0.16861737E+04</pdfrwt>
<pdfrwt beam="2">  1       -2 0.87711457E-01 0.16861737E+04</pdfrwt>
<totfact> 0.18980782E+01</totfact>
</mgrwt>
</event>
<event>
 6    1  0.2236204E-005  0.7584717E+03  0.7818608E-02  0.9622153E-01
          2   -1    0    0  501    0  0.00000000000E+00  0.00000000000E+00  0.44300542119E+03  0.44300542119E+03  0.00000000000E+00 0. -1.
         -2   -1    0    0    0  501 -0.00000000000E+00 -0.00000000000E+00 -0.32464576828E+03  0.32464576828E+03  0.00000000000E+00 0.  1.
         23    2    1    2    0    0  0.14891623746E+03 -0.93148716692E+02 -0.27332510008E+03  0.33838475132E+03  0.94577483515E+02 0.  0.
         13    1    3    3    0    0  0.74305598047E+02 -0.75480089400E+02 -0.87580132049E+02  0.13743669571E+03  0.00000000000E+00 0.  1.
        -13    1    3    3    0    0  0.74610639414E+02 -0.17668627292E+02 -0.18574496803E+03  0.20094805561E+03  0.00000000000E+00 0. -1.
         22    1    1    2    0    0 -0.14891623746E+03  0.93148716692E+02  0.39168475299E+03  0.42926643815E+03  0.00000000000E+00 0. -1.
<mgrwt>
<rscale>  0 0.75847171E+03</rscale>
<asrwt>0</asrwt>
<pdfrwt beam="1">  1        2 0.68154680E-01 0.75847171E+03</pdfrwt>
<pdfrwt beam="2">  1       -2 0.49945503E-01 0.75847171E+03</pdfrwt>
<totfact> 0.27074751E+02</totfact>
</mgrwt>
</event>
<event>
 6    1  0.2236204E-005  0.1736662E+04  0.7818608E-02  0.8740726E-01
         -2   -1    0    0    0  501 -0.00000000000E+00  0.00000000000E+00  0.40275357214E+03  0.40275357214E+03  0.00000000000E+00 0.  1.
          2   -1    0    0  501    0  0.00000000000E+00 -0.00000000000E+00 -0.18721102119E+04  0.18721102119E+04  0.00000000000E+00 0. -1.
         23    2    1    2    0    0 -0.20889630802E+03 -0.68552907069E+03 -0.13732897910E+04  0.15518031962E+04  0.92631179760E+02 0.  0.
         13    1    3    3    0    0 -0.76094228251E+02 -0.21233729522E+03 -0.34645079837E+03  0.41340732239E+03  0.00000000000E+00 0. -1.
        -13    1    3    3    0    0 -0.13280207977E+03 -0.47319177547E+03 -0.10268389926E+04  0.11383958738E+04  0.00000000000E+00 0.  1.
         22    1    1    2    0    0  0.20889630802E+03  0.68552907069E+03 -0.96066848777E+02  0.72306058785E+03  0.00000000000E+00 0. -1.
<mgrwt>
<rscale>  0 0.17366624E+04</rscale>
<asrwt>0</asrwt>
<pdfrwt beam="1">  1        2 0.28801695E+00 0.17366624E+04</pdfrwt>
<pdfrwt beam="2">  1       -2 0.61962088E-01 0.17366624E+04</pdfrwt>
<totfact> 0.18058594E+01</totfact>
</mgrwt>
</event>
<event>
 6    1  0.2236204E-005  0.7103647E+03  0.7818608E-02  0.9699670E-01
          2   -1    0    0  501    0  0.00000000000E+00  0.00000000000E+00  0.14334693135E+04  0.14334693135E+04  0.00000000000E+00 0. -1.
         -2   -1    0    0    0  501 -0.00000000000E+00 -0.00000000000E+00 -0.88006414114E+02  0.88006414114E+02  0.00000000000E+00 0.  1.
         23    2    1    2    0    0 -0.11792182157E+03 -0.31843063097E+03  0.51076313155E+03  0.62035013971E+03  0.93014496444E+02 0.  0.
         13    1    3    3    0    0 -0.62222726103E+01 -0.85207409316E+02  0.19005846403E+03  0.20837763562E+03  0.00000000000E+00 0. -1.
        -13    1    3    3    0    0 -0.11169954896E+03 -0.23322322166E+03  0.32070466752E+03  0.41197250409E+03  0.00000000000E+00 0.  1.
         22    1    1    2    0    0  0.11792182157E+03  0.31843063097E+03  0.83469976784E+03  0.90112558790E+03  0.00000000000E+00 0.  1.
<mgrwt>
<rscale>  0 0.71036468E+03</rscale>
<asrwt>0</asrwt>
<pdfrwt beam="1">  1        2 0.22053372E+00 0.71036468E+03</pdfrwt>
<pdfrwt beam="2">  1       -2 0.13539449E-01 0.71036468E+03</pdfrwt>
<totfact> 0.58403315E+02</totfact>
</mgrwt>
</event>
<event>
 6    1  0.2236204E-005  0.2033104E+04  0.7818608E-02  0.8591298E-01
          1   -1    0    0  501    0  0.00000000000E+00  0.00000000000E+00  0.81777664350E+03  0.81777664350E+03  0.00000000000E+00 0.  1.
         -1   -1    0    0    0  501 -0.00000000000E+00 -0.00000000000E+00 -0.12636426952E+04  0.12636426952E+04  0.00000000000E+00 0. -1.
         23    2    1    2    0    0  0.17505795509E+03 -0.64823198092E+03  0.55521326148E+03  0.87601078555E+03  0.91011768200E+02 0.  0.
         11    1    3    3    0    0  0.29342351785E+02 -0.21171143163E+03  0.21952280143E+03  0.30638695181E+03  0.00000000000E+00 0.  1.
        -11    1    3    3    0    0  0.14571560330E+03 -0.43652054929E+03  0.33569046005E+03  0.56962383374E+03  0.00000000000E+00 0. -1.
         22    1    1    2    0    0 -0.17505795509E+03  0.64823198092E+03 -0.10010793132E+04  0.12054085532E+04  0.00000000000E+00 0. -1.
<mgrwt>
<rscale>  0 0.20331035E+04</rscale>
<asrwt>0</asrwt>
<pdfrwt beam="1">  1        1 0.12581179E+00 0.20331035E+04</pdfrwt>
<pdfrwt beam="2">  1       -1 0.19440657E+00 0.20331035E+04</pdfrwt>
<totfact> 0.32480936E+00</totfact>
</mgrwt>
</event>
<event>
 6    1  0.2236204E-005  0.3568677E+04  0.7818608E-02  0.8097705E-01
          2   -1    0    0  501    0  0.00000000000E+00  0.00000000000E+00  0.21065136750E+04  0.21065136750E+04  0.00000000000E+00 0. -1.
         -2   -1    0    0    0  501 -0.00000000000E+00 -0.00000000000E+00 -0.15114372905E+04  0.15114372905E+04  0.00000000000E+00 0.  1.
         23    2    1    2    0    0 -0.49289731333E+03  0.13408966536E+04 -0.78414027818E+03  0.16322042042E+04  0.90900996296E+02 0.  0.
         11    1    3    3    0    0 -0.21697152645E+03  0.56171275609E+03 -0.38065289530E+03  0.71238647540E+03  0.00000000000E+00 0.  1.
        -11    1    3    3    0    0 -0.27592578688E+03  0.77918389751E+03 -0.40348738288E+03  0.91981772877E+03  0.00000000000E+00 0. -1.
         22    1    1    2    0    0  0.49289731333E+03 -0.13408966536E+04  0.13792166627E+04  0.19857467612E+04  0.00000000000E+00 0. -1.
<mgrwt>
<rscale>  0 0.35686767E+04</rscale>
<asrwt>0</asrwt>
<pdfrwt beam="1">  1        2 0.32407903E+00 0.35686767E+04</pdfrwt>
<pdfrwt beam="2">  1       -2 0.23252881E+00 0.35686767E+04</pdfrwt>
<totfact> 0.39254045E-01</totfact>
</mgrwt>
</event>
<event>
 6    1  0.2236204E-005  0.8500297E+03  0.7818608E-02  0.9490297E-01
          2   -1    0    0  501    0  0.00000000000E+00  0.00000000000E+00  0.81345253513E+03  0.81345253513E+03  0.00000000000E+00 0. -1.
         -2   -1    0    0    0  501 -0.00000000000E+00 -0.00000000000E+00 -0.22206290775E+03  0.22206290775E+03  0.00000000000E+00 0.  1.
         23    2    1    2    0    0 -0.20924814243E+03  0.36374671145E+03  0.31689794232E+03  0.53407537630E+03  0.93358162620E+02 0.  0.
         13    1    3    3    0    0 -0.10780515288E+02 -0.42941701591E+01  0.10961009607E+02  0.15962554270E+02  0.00000000000E+00 0. -1.
        -13    1    3    3    0    0 -0.19846762714E+03  0.36804088161E+03  0.30593693271E+03  0.51811282203E+03  0.00000000000E+00 0.  1.
         22    1    1    2    0    0  0.20924814243E+03 -0.36374671145E+03  0.27449168507E+03  0.50144006658E+03  0.00000000000E+00 0.  1.
<mgrwt>
<rscale>  0 0.85002973E+03</rscale>
<asrwt>0</asrwt>
<pdfrwt beam="1">  1        2 0.12514654E+00 0.85002973E+03</pdfrwt>
<pdfrwt beam="2">  1       -2 0.34163525E-01 0.85002973E+03</pdfrwt>
<totfact> 0.27120161E+02</totfact>
</mgrwt>
</event>
<event>
 6    1  0.2236204E-005  0.8472538E+03  0.7818608E-02  0.9494030E-01
          2   -1    0    0  501    0  0.00000000000E+00  0.00000000000E+00  0.50960964584E+03  0.50960964584E+03  0.00000000000E+00 0. -1.
         -2   -1    0    0    0  501 -0.00000000000E+00 -0.00000000000E+00 -0.35215141132E+03  0.35215141132E+03  0.00000000000E+00 0.  1.
         23    2    1    2    0    0  0.14356950473E+03 -0.23399178763E+03  0.40154946711E+03  0.49441259970E+03  0.88529570429E+02 0.  0.
         11    1    3    3    0    0  0.71151108499E+02 -0.14609584573E+03  0.16347557075E+03  0.23050105990E+03  0.00000000000E+00 0. -1.
        -11    1    3    3    0    0  0.72418396231E+02 -0.87895941895E+02  0.23807389636E+03  0.26391153980E+03  0.00000000000E+00 0.  1.
         22    1    1    2    0    0 -0.14356950473E+03  0.23399178763E+03 -0.24409123259E+03  0.36734845745E+03  0.00000000000E+00 0.  1.
<mgrwt>
<rscale>  0 0.84725381E+03</rscale>
<asrwt>0</asrwt>
<pdfrwt beam="1">  1        2 0.78401484E-01 0.84725381E+03</pdfrwt>
<pdfrwt beam="2">  1       -2 0.54177140E-01 0.84725381E+03</pdfrwt>
<totfact> 0.19431787E+02</totfact>
</mgrwt>
</event>
<event>
 6    1  0.2236204E-005  0.1296638E+04  0.7818608E-02  0.9032235E-01
         -2   -1    0    0    0  501 -0.00000000000E+00  0.00000000000E+00  0.55512032364E+03  0.55512032364E+03  0.00000000000E+00 0.  1.
          2   -1    0    0  501    0  0.00000000000E+00 -0.00000000000E+00 -0.75716521068E+03  0.75716521068E+03  0.00000000000E+00 0. -1.
         23    2    1    2    0    0  0.53346355750E+03  0.69770400765E+02 -0.46177759956E+03  0.71486411024E+03  0.91328356164E+02 0.  0.
         13    1    3    3    0    0  0.75100084305E+02  0.27584062993E+02 -0.10753910030E+03  0.13403567170E+03  0.00000000000E+00 0.  1.
        -13    1    3    3    0    0  0.45836347320E+03  0.42186337772E+02 -0.35423849926E+03  0.58082843854E+03  0.00000000000E+00 0. -1.
         22    1    1    2    0    0 -0.53346355750E+03 -0.69770400765E+02  0.25973271252E+03  0.59742142409E+03  0.00000000000E+00 0.  1.
<mgrwt>
<rscale>  0 0.12966384E+04</rscale>
<asrwt>0</asrwt>
<pdfrwt beam="1">  1        2 0.11648696E+00 0.12966384E+04</pdfrwt>
<pdfrwt beam="2">  1       -2 0.85403126E-01 0.12966384E+04</pdfrwt>
<totfact> 0.43301718E+01</totfact>
</mgrwt>
</event>
<event>
 6    1  0.2236204E-005  0.3533964E+04  0.7818608E-02  0.8105788E-01
          2   -1    0    0  501    0  0.00000000000E+00  0.00000000000E+00  0.37274407082E+04  0.37274407082E+04  0.00000000000E+00 0. -1.
         -2   -1    0    0    0  501 -0.00000000000E+00 -0.00000000000E+00 -0.83763252580E+03  0.83763252580E+03  0.00000000000E+00 0.  1.
         23    2    1    2    0    0  0.11620903891E+04 -0.61151571436E+03  0.29708318670E+04  0.32494097593E+04  0.91740178059E+02 0.  0.
         11    1    3    3    0    0  0.67848933047E+03 -0.40128890105E+03  0.17252196717E+04  0.18967771269E+04  0.00000000000E+00 0. -1.
        -11    1    3    3    0    0  0.48360105866E+03 -0.21022681331E+03  0.12456121953E+04  0.13526326324E+04  0.00000000000E+00 0.  1.
         22    1    1    2    0    0 -0.11620903891E+04  0.61151571436E+03 -0.81023684555E+02  0.13156634748E+04  0.00000000000E+00 0.  1.
<mgrwt>
<rscale>  0 0.35339641E+04</rscale>
<asrwt>0</asrwt>
<pdfrwt beam="1">  1        2 0.57345241E+00 0.35339641E+04</pdfrwt>
<pdfrwt beam="2">  1       -2 0.12886654E+00 0.35339641E+04</pdfrwt>
<totfact> 0.20222776E-01</totfact>
</mgrwt>
</event>
<event>
 6    1  0.2236204E-005  0.1441518E+04  0.7818608E-02  0.8924302E-01
          2   -1    0    0  501    0  0.00000000000E+00  0.00000000000E+00  0.15726885467E+04  0.15726885467E+04  0.00000000000E+00 0. -1.
         -2   -1    0    0    0  501 -0.00000000000E+00 -0.00000000000E+00 -0.33032185377E+03  0.33032185377E+03  0.00000000000E+00 0.  1.
         23    2    1    2    0    0  0.49700506527E+01 -0.38184482584E+03  0.14261683513E+04  0.14792023990E+04  0.90848216725E+02 0.  0.
         11    1    3    3    0    0  0.44332532095E+02 -0.27494738383E+03  0.99524080268E+03  0.10334726376E+04  0.00000000000E+00 0. -1.
        -11    1    3    3    0    0 -0.39362481442E+02 -0.10689744201E+03  0.43092754867E+03  0.44572976146E+03  0.00000000000E+00 0.  1.
         22    1    1    2    0    0 -0.49700506527E+01  0.38184482584E+03 -0.18380165843E+03  0.42380800142E+03  0.00000000000E+00 0.  1.
<mgrwt>
<rscale>  0 0.14415178E+04</rscale>
<asrwt>0</asrwt>
<pdfrwt beam="1">  1        2 0.24195208E+00 0.14415178E+04</pdfrwt>
<pdfrwt beam="2">  1       -2 0.50818748E-01 0.14415178E+04</pdfrwt>
<totfact> 0.41026326E+01</totfact>
</mgrwt>
</event>
<event>
 6    1  0.2236204E-005  0.2425128E+04  0.7818608E-02  0.8430156E-01
         -2   -1    0    0    0  501 -0.00000000000E+00  0.00000000000E+00  0.89076001995E+03  0.89076001995E+03  0.00000000000E+00 0.  1.
          2   -1    0    0  501    0  0.00000000000E+00 -0.00000000000E+00 -0.16506252959E+04  0.16506252959E+04  0.00000000000E+00 0. -1.
         23    2    1    2    0    0  0.49927111878E+03  0.44553939794E+03  0.67836856983E+03  0.95510236494E+03  0.65265655596E+02 0.  0.
         11    1    3    3    0    0  0.29430456338E+03  0.28560023074E+03  0.45272667942E+03  0.61085523169E+03  0.00000000000E+00 0. -1.
        -11    1    3    3    0    0  0.20496655540E+03  0.15993916720E+03  0.22564189041E+03  0.34424713324E+03  0.00000000000E+00 0.  1.
         22    1    1    2    0    0 -0.49927111878E+03 -0.44553939794E+03 -0.14382338457E+04  0.15862829509E+04  0.00000000000E+00 0. -1.
<mgrwt>
<rscale>  0 0.24251276E+04</rscale>
<asrwt>0</asrwt>
<pdfrwt beam="1">  1        2 0.25394235E+00 0.24251276E+04</pdfrwt>
<pdfrwt beam="2">  1       -2 0.13704000E+00 0.24251276E+04</pdfrwt>
<totfact> 0.35600007E+00</totfact>
</mgrwt>
</event>
<event>
 6    1  0.2236204E-005  0.2382546E+04  0.7818608E-02  0.8446067E-01
          2   -1    0    0  501    0  0.00000000000E+00  0.00000000000E+00  0.13374349732E+04  0.13374349732E+04  0.00000000000E+00 0. -1.
         -2   -1    0    0    0  501 -0.00000000000E+00 -0.00000000000E+00 -0.10610842295E+04  0.10610842295E+04  0.00000000000E+00 0.  1.
         23    2    1    2    0    0  0.68608832701E+03  0.97158634687E+03  0.15155125048E+03  0.12025793483E+04  0.92369289446E+02 0.  0.
         11    1    3    3    0    0  0.45889377437E+03  0.68618091389E+03  0.14235417144E+03  0.83767084995E+03  0.00000000000E+00 0. -1.
        -11    1    3    3    0    0  0.22719455264E+03  0.28540543298E+03  0.91970790382E+01  0.36490849838E+03  0.00000000000E+00 0.  1.
         22    1    1    2    0    0 -0.68608832701E+03 -0.97158634687E+03  0.12479949321E+03  0.11959398544E+04  0.00000000000E+00 0.  1.
<mgrwt>
<rscale>  0 0.23825458E+04</rscale>
<asrwt>0</asrwt>
<pdfrwt beam="1">  1        2 0.20575923E+00 0.23825458E+04</pdfrwt>
<pdfrwt beam="2">  1       -2 0.16324373E+00 0.23825458E+04</pdfrwt>
<totfact> 0.33763510E+00</totfact>
</mgrwt>
</event>
<event>
 6    1  0.2236204E-005  0.7657016E+03  0.7818608E-02  0.9611034E-01
          2   -1    0    0  501    0  0.00000000000E+00  0.00000000000E+00  0.12991174829E+04  0.12991174829E+04  0.00000000000E+00 0. -1.
         -2   -1    0    0    0  501 -0.00000000000E+00 -0.00000000000E+00 -0.11282638874E+03  0.11282638874E+03  0.00000000000E+00 0.  1.
         23    2    1    2    0    0 -0.28235034892E+03 -0.21248709040E+03  0.83961480782E+03  0.91691161952E+03  0.10440981456E+03 0.  0.
         13    1    3    3    0    0 -0.16150367386E+03 -0.98642565717E+02  0.32392633659E+03  0.37515605283E+03  0.00000000000E+00 0.  1.
        -13    1    3    3    0    0 -0.12084667506E+03 -0.11384452469E+03  0.51568847124E+03  0.54175556669E+03  0.00000000000E+00 0. -1.
         22    1    1    2    0    0  0.28235034892E+03  0.21248709040E+03  0.34667628629E+03  0.49503225208E+03  0.00000000000E+00 0. -1.
<mgrwt>
<rscale>  0 0.76570160E+03</rscale>
<asrwt>0</asrwt>
<pdfrwt beam="1">  1        2 0.19986422E+00 0.76570160E+03</pdfrwt>
<pdfrwt beam="2">  1       -2 0.17357907E-01 0.76570160E+03</pdfrwt>
<totfact> 0.45571694E+02</totfact>
</mgrwt>
</event>
<event>
 6    1  0.2236204E-005  0.2149243E+04  0.7818608E-02  0.8539856E-01
          2   -1    0    0  501    0  0.00000000000E+00  0.00000000000E+00  0.26147647059E+04  0.26147647059E+04  0.00000000000E+00 0. -1.
         -2   -1    0    0    0  501 -0.00000000000E+00 -0.00000000000E+00 -0.44165039481E+03  0.44165039481E+03  0.00000000000E+00 0.  1.
         23    2    1    2    0    0  0.95506661266E+03 -0.14420775579E+03  0.17517719150E+04  0.20026231259E+04  0.94055466520E+02 0.  0.
         13    1    3    3    0    0  0.92168134583E+02  0.91276215681E+01  0.13751933414E+03  0.16580062053E+03  0.00000000000E+00 0.  1.
        -13    1    3    3    0    0  0.86289847808E+03 -0.15333537736E+03  0.16142525809E+04  0.18368225054E+04  0.00000000000E+00 0. -1.
         22    1    1    2    0    0 -0.95506661266E+03  0.14420775579E+03  0.42134239611E+03  0.10537919748E+04  0.00000000000E+00 0.  1.
<mgrwt>
<rscale>  0 0.21492435E+04</rscale>
<asrwt>0</asrwt>
<pdfrwt beam="1">  1        2 0.40227148E+00 0.21492435E+04</pdfrwt>
<pdfrwt beam="2">  1       -2 0.67946216E-01 0.21492435E+04</pdfrwt>
<totfact> 0.54330869E+00</totfact>
</mgrwt>
</event>
<event>
 6    1  0.2236204E-005  0.1699353E+04  0.7818608E-02  0.8761733E-01
         -2   -1    0    0    0  501 -0.00000000000E+00  0.00000000000E+00  0.14544586803E+04  0.14544586803E+04  0.00000000000E+00 0.  1.
          2   -1    0    0  501    0  0.00000000000E+00 -0.00000000000E+00 -0.49637059442E+03  0.49637059442E+03  0.00000000000E+00 0. -1.
         23    2    1    2    0    0 -0.20548381117E+03  0.51043361089E+03  0.12200652498E+04  0.13414048724E+04  0.89675806044E+02 0.  0.
         13    1    3    3    0    0 -0.12432232205E+03  0.23252851138E+03  0.66513054583E+03  0.71548877794E+03  0.00000000000E+00 0.  1.
        -13    1    3    3    0    0 -0.81161489120E+02  0.27790509950E+03  0.55493470393E+03  0.62591609444E+03  0.00000000000E+00 0. -1.
         22    1    1    2    0    0  0.20548381117E+03 -0.51043361089E+03 -0.26197716388E+03  0.60942440234E+03  0.00000000000E+00 0. -1.
<mgrwt>
<rscale>  0 0.16993534E+04</rscale>
<asrwt>0</asrwt>
<pdfrwt beam="1">  1        2 0.76364708E-01 0.16993534E+04</pdfrwt>
<pdfrwt beam="2">  1       -2 0.22376287E+00 0.16993534E+04</pdfrwt>
<totfact> 0.55261897E+00</totfact>
</mgrwt>
</event>
<event>
 6    1  0.2236204E-005  0.2105224E+04  0.7818608E-02  0.8558945E-01
          2   -1    0    0  501    0  0.00000000000E+00  0.00000000000E+00  0.34310184454E+04  0.34310184454E+04  0.00000000000E+00 0. -1.
         -2   -1    0    0    0  501 -0.00000000000E+00 -0.00000000000E+00 -0.32293399882E+03  0.32293399882E+03  0.00000000000E+00 0.  1.
         23    2    1    2    0    0 -0.37788560095E+03  0.12921306086E+03  0.32898789978E+04  0.33151554508E+04  0.86361454405E+02 0.  0.
         13    1    3    3    0    0 -0.40789253199E+02 -0.12853290375E+02  0.35482366796E+03  0.35739166974E+03  0.00000000000E+00 0. -1.
        -13    1    3    3    0    0 -0.33709634775E+03  0.14206635123E+03  0.29350553298E+04  0.29577637811E+04  0.00000000000E+00 0.  1.
         22    1    1    2    0    0  0.37788560095E+03 -0.12921306086E+03 -0.18179455123E+03  0.43879699333E+03  0.00000000000E+00 0.  1.
<mgrwt>
<rscale>  0 0.21052245E+04</rscale>
<asrwt>0</asrwt>
<pdfrwt beam="1">  1        2 0.52784897E+00 0.21052245E+04</pdfrwt>
<pdfrwt beam="2">  1       -2 0.49682156E-01 0.21052245E+04</pdfrwt>
<totfact> 0.32189243E+00</totfact>
</mgrwt>
</event>
<event>
 6    1  0.2236204E-005  0.3547535E+04  0.7818608E-02  0.8102616E-01
          2   -1    0    0  501    0  0.00000000000E+00  0.00000000000E+00  0.36761511174E+04  0.36761511174E+04  0.00000000000E+00 0. -1.
         -2   -1    0    0    0  501 -0.00000000000E+00 -0.00000000000E+00 -0.85585455074E+03  0.85585455074E+03  0.00000000000E+00 0.  1.
         23    2    1    2    0    0 -0.15445185896E+04  0.32796637414E+03  0.24403703409E+04  0.29079848699E+04  0.88707308897E+02 0.  0.
         11    1    3    3    0    0 -0.76311117330E+03  0.13105769860E+03  0.12553870540E+04  0.14749615041E+04  0.00000000000E+00 0. -1.
        -11    1    3    3    0    0 -0.78140741627E+03  0.19690867554E+03  0.11849832869E+04  0.14330233658E+04  0.00000000000E+00 0.  1.
         22    1    1    2    0    0  0.15445185896E+04 -0.32796637414E+03  0.37992622572E+03  0.16240207982E+04  0.00000000000E+00 0.  1.
<mgrwt>
<rscale>  0 0.35475347E+04</rscale>
<asrwt>0</asrwt>
<pdfrwt beam="1">  1        2 0.56556170E+00 0.35475347E+04</pdfrwt>
<pdfrwt beam="2">  1       -2 0.13166993E+00 0.35475347E+04</pdfrwt>
<totfact> 0.20875536E-01</totfact>
</mgrwt>
</event>
<event>
 6    1  0.2236204E-005  0.8831057E+03  0.7818608E-02  0.9446950E-01
          2   -1    0    0  501    0  0.00000000000E+00  0.00000000000E+00  0.16564618777E+04  0.16564618777E+04  0.00000000000E+00 0. -1.
         -2   -1    0    0    0  501 -0.00000000000E+00 -0.00000000000E+00 -0.11770203246E+03  0.11770203246E+03  0.00000000000E+00 0.  1.
         23    2    1    2    0    0  0.27553806199E+03  0.25142267353E+03  0.31994145861E+03  0.49954520483E+03  0.89712264285E+02 0.  0.
         13    1    3    3    0    0  0.18086546295E+03  0.11323104881E+03  0.20858779686E+03  0.29839982423E+03  0.00000000000E+00 0. -1.
        -13    1    3    3    0    0  0.94672599045E+02  0.13819162472E+03  0.11135366175E+03  0.20114538060E+03  0.00000000000E+00 0.  1.
         22    1    1    2    0    0 -0.27553806199E+03 -0.25142267353E+03  0.12188183866E+04  0.12746187053E+04  0.00000000000E+00 0. -1.
<mgrwt>
<rscale>  0 0.88310572E+03</rscale>
<asrwt>0</asrwt>
<pdfrwt beam="1">  1        2 0.25484027E+00 0.88310572E+03</pdfrwt>
<pdfrwt beam="2">  1       -2 0.18108006E-01 0.88310572E+03</pdfrwt>
<totfact> 0.26506486E+02</totfact>
</mgrwt>
</event>
<event>
 6    1  0.2236204E-005  0.3435615E+04  0.7818608E-02  0.8129220E-01
         -2   -1    0    0    0  501 -0.00000000000E+00  0.00000000000E+00  0.57481230568E+04  0.57481230568E+04  0.00000000000E+00 0.  1.
          2   -1    0    0  501    0  0.00000000000E+00 -0.00000000000E+00 -0.51336105347E+03  0.51336105347E+03  0.00000000000E+00 0. -1.
         23    2    1    2    0    0 -0.16376197829E+04 -0.41727239342E+03  0.20691491180E+04  0.26730276534E+04  0.88226750538E+02 0.  0.
         13    1    3    3    0    0 -0.79391231190E+03 -0.15991297027E+03  0.10156944280E+04  0.12990396792E+04  0.00000000000E+00 0. -1.
        -13    1    3    3    0    0 -0.84370747096E+03 -0.25735942315E+03  0.10534546900E+04  0.13739879742E+04  0.00000000000E+00 0.  1.
         22    1    1    2    0    0  0.16376197829E+04  0.41727239342E+03  0.31656128853E+04  0.35884564569E+04  0.00000000000E+00 0.  1.
<mgrwt>
<rscale>  0 0.34356149E+04</rscale>
<asrwt>0</asrwt>
<pdfrwt beam="1">  1        2 0.78978628E-01 0.34356149E+04</pdfrwt>
<pdfrwt beam="2">  1       -2 0.88432658E+00 0.34356149E+04</pdfrwt>
<totfact> 0.70536287E-04</totfact>
</mgrwt>
</event>
<event>
 6    1  0.2236204E-005  0.5529165E+03  0.7818608E-02  0.1000821E+00
          2   -1    0    0  501    0  0.00000000000E+00  0.00000000000E+00  0.35191069147E+03  0.35191069147E+03  0.00000000000E+00 0.  1.
         -2   -1    0    0    0  501 -0.00000000000E+00 -0.00000000000E+00 -0.21718340788E+03  0.21718340788E+03  0.00000000000E+00 0. -1.
         23    2    1    2    0    0 -0.97771689984E+02 -0.14867717172E+03  0.27681146758E+03  0.34138349333E+03  0.90850955885E+02 0.  0.
         13    1    3    3    0    0 -0.11267836854E+03 -0.13286231972E+03  0.22043667783E+03  0.28096465911E+03  0.00000000000E+00 0.  1.
        -13    1    3    3    0    0  0.14906678557E+02 -0.15814852002E+02  0.56374789747E+02  0.60418834220E+02  0.00000000000E+00 0. -1.
         22    1    1    2    0    0  0.97771689984E+02  0.14867717172E+03 -0.14208418399E+03  0.22771060602E+03  0.00000000000E+00 0. -1.
<mgrwt>
<rscale>  0 0.55291650E+03</rscale>
<asrwt>0</asrwt>
<pdfrwt beam="1">  1        2 0.54140106E-01 0.55291650E+03</pdfrwt>
<pdfrwt beam="2">  1       -2 0.33412832E-01 0.55291650E+03</pdfrwt>
<totfact> 0.77237796E+02</totfact>
</mgrwt>
</event>
<event>
 6    1  0.2236204E-005  0.1380761E+04  0.7818608E-02  0.8967863E-01
          2   -1    0    0  501    0  0.00000000000E+00  0.00000000000E+00  0.36645898419E+03  0.36645898419E+03  0.00000000000E+00 0. -1.
         -2   -1    0    0    0  501 -0.00000000000E+00 -0.00000000000E+00 -0.13006241139E+04  0.13006241139E+04  0.00000000000E+00 0.  1.
         23    2    1    2    0    0  0.88308033865E+01  0.62301745583E+02 -0.12955730257E+04  0.13002382292E+04  0.90280104554E+02 0.  0.
         13    1    3    3    0    0 -0.29244951779E+02  0.12250228327E+02 -0.80858207388E+03  0.80920350067E+03  0.00000000000E+00 0. -1.
        -13    1    3    3    0    0  0.38075755166E+02  0.50051517256E+02 -0.48699095180E+03  0.49103472856E+03  0.00000000000E+00 0.  1.
         22    1    1    2    0    0 -0.88308033865E+01 -0.62301745583E+02  0.36140789593E+03  0.36684486889E+03  0.00000000000E+00 0. -1.
<mgrwt>
<rscale>  0 0.13807612E+04</rscale>
<asrwt>0</asrwt>
<pdfrwt beam="1">  1        2 0.56378305E-01 0.13807612E+04</pdfrwt>
<pdfrwt beam="2">  1       -2 0.20009602E+00 0.13807612E+04</pdfrwt>
<totfact> 0.11349399E+01</totfact>
</mgrwt>
</event>
<event>
 6    1  0.2236204E-005  0.9707051E+03  0.7818608E-02  0.9341272E-01
          2   -1    0    0  501    0  0.00000000000E+00  0.00000000000E+00  0.53174876878E+03  0.53174876878E+03  0.00000000000E+00 0. -1.
         -2   -1    0    0    0  501 -0.00000000000E+00 -0.00000000000E+00 -0.44300449562E+03  0.44300449562E+03  0.00000000000E+00 0.  1.
         23    2    1    2    0    0  0.20349982816E+01 -0.20035674926E+03 -0.39439657761E+03  0.45171210935E+03  0.91368490797E+02 0.  0.
         13    1    3    3    0    0 -0.44530813240E+02 -0.10663506404E+03 -0.20834647641E+03  0.23824836714E+03  0.00000000000E+00 0.  1.
        -13    1    3    3    0    0  0.46565811522E+02 -0.93721685218E+02 -0.18605010120E+03  0.21346374221E+03  0.00000000000E+00 0. -1.
         22    1    1    2    0    0 -0.20349982816E+01  0.20035674926E+03  0.48314085077E+03  0.52304115505E+03  0.00000000000E+00 0. -1.
<mgrwt>
<rscale>  0 0.97070509E+03</rscale>
<asrwt>0</asrwt>
<pdfrwt beam="1">  1        2 0.81807503E-01 0.97070509E+03</pdfrwt>
<pdfrwt beam="2">  1       -2 0.68154538E-01 0.97070509E+03</pdfrwt>
<totfact> 0.11296984E+02</totfact>
</mgrwt>
</event>
<event>
 6    1  0.2236204E-005  0.1480407E+04  0.7818608E-02  0.8897588E-01
         -1   -1    0    0    0  501 -0.00000000000E+00  0.00000000000E+00  0.60398057174E+03  0.60398057174E+03  0.00000000000E+00 0.  1.
          1   -1    0    0  501    0  0.00000000000E+00 -0.00000000000E+00 -0.90715015878E+03  0.90715015878E+03  0.00000000000E+00 0. -1.
         23    2    1    2    0    0 -0.28376758027E+03  0.11725824340E+03  0.53175247004E+03  0.62154184982E+03  0.96332997637E+02 0.  0.
         11    1    3    3    0    0 -0.78147846634E+02  0.38117521505E+02  0.24466282226E+03  0.25965347673E+03  0.00000000000E+00 0.  1.
        -11    1    3    3    0    0 -0.20561973364E+03  0.79140721891E+02  0.28708964777E+03  0.36188837310E+03  0.00000000000E+00 0. -1.
         22    1    1    2    0    0  0.28376758027E+03 -0.11725824340E+03 -0.83492205708E+03  0.88958888070E+03  0.00000000000E+00 0. -1.
<mgrwt>
<rscale>  0 0.14804068E+04</rscale>
<asrwt>0</asrwt>
<pdfrwt beam="1">  1        1 0.13956156E+00 0.14804068E+04</pdfrwt>
<pdfrwt beam="2">  1       -1 0.92920088E-01 0.14804068E+04</pdfrwt>
<totfact> 0.19578297E+01</totfact>
</mgrwt>
</event>
<event>
 6    1  0.2236204E-005  0.1168307E+04  0.7818608E-02  0.9141058E-01
         -2   -1    0    0    0  501 -0.00000000000E+00  0.00000000000E+00  0.26421423856E+03  0.26421423856E+03  0.00000000000E+00 0.  1.
          2   -1    0    0  501    0  0.00000000000E+00 -0.00000000000E+00 -0.12915109345E+04  0.12915109345E+04  0.00000000000E+00 0. -1.
         23    2    1    2    0    0 -0.23664229663E+03  0.19073118842E+03  0.14201773505E+03  0.34755539967E+03  0.90817156874E+02 0.  0.
         11    1    3    3    0    0 -0.59323563152E+02  0.60176720473E+02 -0.18577313825E+01  0.84522032617E+02  0.00000000000E+00 0. -1.
        -11    1    3    3    0    0 -0.17731873347E+03  0.13055446795E+03  0.14387546644E+03  0.26303336706E+03  0.00000000000E+00 0.  1.
         22    1    1    2    0    0  0.23664229663E+03 -0.19073118842E+03 -0.11693144310E+04  0.12081697734E+04  0.00000000000E+00 0. -1.
<mgrwt>
<rscale>  0 0.11683075E+04</rscale>
<asrwt>0</asrwt>
<pdfrwt beam="1">  1        2 0.19869399E+00 0.11683075E+04</pdfrwt>
<pdfrwt beam="2">  1       -2 0.40648345E-01 0.11683075E+04</pdfrwt>
<totfact> 0.94679676E+01</totfact>
</mgrwt>
</event>
<event>
 6    1  0.2236204E-005  0.3766997E+04  0.7818608E-02  0.8053274E-01
         -2   -1    0    0    0  501 -0.00000000000E+00  0.00000000000E+00  0.11680102071E+04  0.11680102071E+04  0.00000000000E+00 0.  1.
          2   -1    0    0  501    0  0.00000000000E+00 -0.00000000000E+00 -0.30372742885E+04  0.30372742885E+04  0.00000000000E+00 0. -1.
         23    2    1    2    0    0 -0.43445344894E+03 -0.17213448710E+04 -0.16350914649E+04  0.24145821813E+04  0.70036043154E+02 0.  0.
         11    1    3    3    0    0 -0.42850250831E+02 -0.27338509674E+03 -0.25317429898E+03  0.37506370230E+03  0.00000000000E+00 0.  1.
        -11    1    3    3    0    0 -0.39160319811E+03 -0.14479597743E+04 -0.13819171659E+04  0.20395184790E+04  0.00000000000E+00 0. -1.
         22    1    1    2    0    0  0.43445344894E+03  0.17213448710E+04 -0.23417261646E+03  0.17907023143E+04  0.00000000000E+00 0.  1.
<mgrwt>
<rscale>  0 0.37669974E+04</rscale>
<asrwt>0</asrwt>
<pdfrwt beam="1">  1        2 0.46727297E+00 0.37669974E+04</pdfrwt>
<pdfrwt beam="2">  1       -2 0.17969388E+00 0.37669974E+04</pdfrwt>
<totfact> 0.24148201E-01</totfact>
</mgrwt>
</event>
<event>
 6    1  0.2236204E-005  0.2329001E+04  0.7818608E-02  0.8466574E-01
          2   -1    0    0  501    0  0.00000000000E+00  0.00000000000E+00  0.15278632261E+04  0.15278632261E+04  0.00000000000E+00 0. -1.
         -2   -1    0    0    0  501 -0.00000000000E+00 -0.00000000000E+00 -0.88755401992E+03  0.88755401992E+03  0.00000000000E+00 0.  1.
         23    2    1    2    0    0  0.34904433092E+03 -0.70302904698E+03  0.12101902336E+04  0.14454449931E+04  0.93107683541E+02 0.  0.
         13    1    3    3    0    0  0.19181028734E+03 -0.31142719873E+03  0.62135288819E+03  0.72101144103E+03  0.00000000000E+00 0. -1.
        -13    1    3    3    0    0  0.15723404357E+03 -0.39160184825E+03  0.58883734546E+03  0.72443355211E+03  0.00000000000E+00 0.  1.
         22    1    1    2    0    0 -0.34904433092E+03  0.70302904698E+03 -0.56988102749E+03  0.96997225287E+03  0.00000000000E+00 0.  1.
<mgrwt>
<rscale>  0 0.23290008E+04</rscale>
<asrwt>0</asrwt>
<pdfrwt beam="1">  1        2 0.23505588E+00 0.23290008E+04</pdfrwt>
<pdfrwt beam="2">  1       -2 0.13654677E+00 0.23290008E+04</pdfrwt>
<totfact> 0.42435088E+00</totfact>
</mgrwt>
</event>
<event>
 6    1  0.2236204E-005  0.3548451E+03  0.7818608E-02  0.1060644E+00
         -2   -1    0    0    0  501 -0.00000000000E+00  0.00000000000E+00  0.23366140536E+02  0.23366140536E+02  0.00000000000E+00 0.  1.
          2   -1    0    0  501    0  0.00000000000E+00 -0.00000000000E+00 -0.13471958152E+04  0.13471958152E+04  0.00000000000E+00 0. -1.
         23    2    1    2    0    0 -0.91325826125E+02 -0.83843548417E+02 -0.11307448338E+04  0.11411019311E+04  0.90330453917E+02 0.  0.
         13    1    3    3    0    0 -0.17145274405E+01 -0.10168793191E+02 -0.47912478567E+03  0.47923575013E+03  0.00000000000E+00 0. -1.
        -13    1    3    3    0    0 -0.89611298684E+02 -0.73674755225E+02 -0.65162004815E+03  0.66186618101E+03  0.00000000000E+00 0.  1.
         22    1    1    2    0    0  0.91325826125E+02  0.83843548417E+02 -0.19308484089E+03  0.22946002464E+03  0.00000000000E+00 0. -1.
<mgrwt>
<rscale>  0 0.35484513E+03</rscale>
<asrwt>0</asrwt>
<pdfrwt beam="1">  1        2 0.20726097E+00 0.35484513E+03</pdfrwt>
<pdfrwt beam="2">  1       -2 0.35947896E-02 0.35484513E+03</pdfrwt>
<totfact> 0.53526190E+03</totfact>
</mgrwt>
</event>
<event>
 6    1  0.2236204E-005  0.3083421E+04  0.7818608E-02  0.8220303E-01
          2   -1    0    0  501    0  0.00000000000E+00  0.00000000000E+00  0.23143183607E+04  0.23143183607E+04  0.00000000000E+00 0. -1.
         -2   -1    0    0    0  501 -0.00000000000E+00 -0.00000000000E+00 -0.10270285148E+04  0.10270285148E+04  0.00000000000E+00 0.  1.
         23    2    1    2    0    0  0.54146404866E+03  0.30628518440E+03 -0.88252755705E+03  0.10841137258E+04  0.97230403535E+02 0.  0.
         13    1    3    3    0    0  0.32162376797E+03  0.12820187946E+03 -0.46437039664E+03  0.57923866869E+03  0.00000000000E+00 0. -1.
        -13    1    3    3    0    0  0.21984028069E+03  0.17808330494E+03 -0.41815716040E+03  0.50487505713E+03  0.00000000000E+00 0.  1.
         22    1    1    2    0    0 -0.54146404866E+03 -0.30628518440E+03  0.21698174029E+04  0.22572331497E+04  0.00000000000E+00 0. -1.
<mgrwt>
<rscale>  0 0.30834208E+04</rscale>
<asrwt>0</asrwt>
<pdfrwt beam="1">  1        2 0.35604898E+00 0.30834208E+04</pdfrwt>
<pdfrwt beam="2">  1       -2 0.15800439E+00 0.30834208E+04</pdfrwt>
<totfact> 0.98587672E-01</totfact>
</mgrwt>
</event>
<event>
 6    1  0.2236204E-005  0.1071141E+04  0.7818608E-02  0.9233786E-01
         -2   -1    0    0    0  501 -0.00000000000E+00  0.00000000000E+00  0.11013997718E+03  0.11013997718E+03  0.00000000000E+00 0.  1.
          2   -1    0    0  501    0  0.00000000000E+00 -0.00000000000E+00 -0.26042832258E+04  0.26042832258E+04  0.00000000000E+00 0. -1.
         23    2    1    2    0    0 -0.34205732110E+03  0.35345201370E+03 -0.74138749660E+03  0.89396055213E+03  0.87054648005E+02 0.  0.
         13    1    3    3    0    0 -0.18038254666E+03  0.16722462966E+03 -0.44437947949E+03  0.50791245476E+03  0.00000000000E+00 0. -1.
        -13    1    3    3    0    0 -0.16167477444E+03  0.18622738404E+03 -0.29700801711E+03  0.38604809737E+03  0.00000000000E+00 0.  1.
         22    1    1    2    0    0  0.34205732110E+03 -0.35345201370E+03 -0.17527557520E+04  0.18204626509E+04  0.00000000000E+00 0. -1.
<mgrwt>
<rscale>  0 0.10711409E+04</rscale>
<asrwt>0</asrwt>
<pdfrwt beam="1">  1        2 0.40065892E+00 0.10711409E+04</pdfrwt>
<pdfrwt beam="2">  1       -2 0.16944614E-01 0.10711409E+04</pdfrwt>
<totfact> 0.86814471E+01</totfact>
</mgrwt>
</event>
<event>
 6    1  0.2236204E-005  0.1938300E+04  0.7818608E-02  0.8636024E-01
         -2   -1    0    0    0  501 -0.00000000000E+00  0.00000000000E+00  0.64890028006E+03  0.64890028006E+03  0.00000000000E+00 0.  1.
          2   -1    0    0  501    0  0.00000000000E+00 -0.00000000000E+00 -0.14474510617E+04  0.14474510617E+04  0.00000000000E+00 0. -1.
         23    2    1    2    0    0  0.35543254479E+03 -0.50724668931E+03 -0.12033658835E+04  0.13564143415E+04  0.90215955821E+02 0.  0.
         13    1    3    3    0    0  0.26665886015E+03 -0.30963070691E+03 -0.81537388071E+03  0.91203765696E+03  0.00000000000E+00 0.  1.
        -13    1    3    3    0    0  0.88773684634E+02 -0.19761598240E+03 -0.38799200276E+03  0.44437668457E+03  0.00000000000E+00 0. -1.
         22    1    1    2    0    0 -0.35543254479E+03  0.50724668931E+03  0.40481510180E+03  0.73993700026E+03  0.00000000000E+00 0.  1.
<mgrwt>
<rscale>  0 0.19382997E+04</rscale>
<asrwt>0</asrwt>
<pdfrwt beam="1">  1        2 0.22268478E+00 0.19382997E+04</pdfrwt>
<pdfrwt beam="2">  1       -2 0.99830812E-01 0.19382997E+04</pdfrwt>
<totfact> 0.10528842E+01</totfact>
</mgrwt>
</event>
<event>
 6    1  0.2236204E-005  0.3902185E+04  0.7818608E-02  0.8024575E-01
         -2   -1    0    0    0  501 -0.00000000000E+00  0.00000000000E+00  0.15536163866E+04  0.15536163866E+04  0.00000000000E+00 0.  1.
          2   -1    0    0  501    0  0.00000000000E+00 -0.00000000000E+00 -0.24502582934E+04  0.24502582934E+04  0.00000000000E+00 0. -1.
         23    2    1    2    0    0 -0.21600057902E+03  0.19003135959E+04 -0.57160983274E+02  0.19151965732E+04  0.82840346219E+02 0.  0.
         13    1    3    3    0    0 -0.23799329593E+02  0.13956383089E+03  0.15984294380E+02  0.14247795846E+03  0.00000000000E+00 0.  1.
        -13    1    3    3    0    0 -0.19220124942E+03  0.17607497651E+04 -0.73145277653E+02  0.17727186147E+04  0.00000000000E+00 0. -1.
         22    1    1    2    0    0  0.21600057902E+03 -0.19003135959E+04 -0.83948092348E+03  0.20886781068E+04  0.00000000000E+00 0. -1.
<mgrwt>
<rscale>  0 0.39021847E+04</rscale>
<asrwt>0</asrwt>
<pdfrwt beam="1">  1        2 0.37696281E+00 0.39021847E+04</pdfrwt>
<pdfrwt beam="2">  1       -2 0.23901791E+00 0.39021847E+04</pdfrwt>
<totfact> 0.22217623E-01</totfact>
</mgrwt>
</event>
<event>
 6    1  0.2236204E-005  0.1866270E+04  0.7818608E-02  0.8671831E-01
         -2   -1    0    0    0  501 -0.00000000000E+00  0.00000000000E+00  0.15089140297E+04  0.15089140297E+04  0.00000000000E+00 0.  1.
          2   -1    0    0  501    0  0.00000000000E+00 -0.00000000000E+00 -0.57706453151E+03  0.57706453151E+03  0.00000000000E+00 0. -1.
         23    2    1    2    0    0 -0.48213727592E+03 -0.42290696629E+03  0.12213247777E+04  0.13823432918E+04  0.89062387903E+02 0.  0.
         13    1    3    3    0    0 -0.81685155505E+02 -0.46292568092E+02  0.23689463735E+03  0.25482255728E+03  0.00000000000E+00 0.  1.
        -13    1    3    3    0    0 -0.40045212042E+03 -0.37661439819E+03  0.98443014030E+03  0.11275207345E+04  0.00000000000E+00 0. -1.
         22    1    1    2    0    0  0.48213727592E+03  0.42290696629E+03 -0.28947527944E+03  0.70363526942E+03  0.00000000000E+00 0. -1.
<mgrwt>
<rscale>  0 0.18662698E+04</rscale>
<asrwt>0</asrwt>
<pdfrwt beam="1">  1        2 0.88779159E-01 0.18662698E+04</pdfrwt>
<pdfrwt beam="2">  1       -2 0.23214062E+00 0.18662698E+04</pdfrwt>
<totfact> 0.40451217E+00</totfact>
</mgrwt>
</event>
<event>
 6    1  0.2236204E-005  0.2735498E+04  0.7818608E-02  0.8323578E-01
          1   -1    0    0  501    0  0.00000000000E+00  0.00000000000E+00  0.17474146068E+04  0.17474146068E+04  0.00000000000E+00 0. -1.
         -1   -1    0    0    0  501 -0.00000000000E+00 -0.00000000000E+00 -0.10705745348E+04  0.10705745348E+04  0.00000000000E+00 0.  1.
         23    2    1    2    0    0 -0.13876832886E+03 -0.55339165449E+03 -0.94044348812E+03  0.11030241022E+04  0.82031964848E+02 0.  0.
         13    1    3    3    0    0 -0.12581001352E+03 -0.34371043274E+03 -0.58026958276E+03  0.68605962551E+03  0.00000000000E+00 0.  1.
        -13    1    3    3    0    0 -0.12958315333E+02 -0.20968122176E+03 -0.36017390536E+03  0.41696447666E+03  0.00000000000E+00 0. -1.
         22    1    1    2    0    0  0.13876832886E+03  0.55339165449E+03  0.16172835601E+04  0.17149650394E+04  0.00000000000E+00 0. -1.
<mgrwt>
<rscale>  0 0.27354982E+04</rscale>
<asrwt>0</asrwt>
<pdfrwt beam="1">  1        1 0.26883302E+00 0.27354982E+04</pdfrwt>
<pdfrwt beam="2">  1       -1 0.16470377E+00 0.27354982E+04</pdfrwt>
<totfact> 0.10373354E+00</totfact>
</mgrwt>
</event>
<event>
 6    1  0.2236204E-005  0.2652038E+04  0.7818608E-02  0.8350737E-01
          2   -1    0    0  501    0  0.00000000000E+00  0.00000000000E+00  0.75031315031E+03  0.75031315031E+03  0.00000000000E+00 0. -1.
         -2   -1    0    0    0  501 -0.00000000000E+00 -0.00000000000E+00 -0.23434569530E+04  0.23434569530E+04  0.00000000000E+00 0.  1.
         23    2    1    2    0    0  0.64688669662E+02  0.88523509327E+03 -0.19441727252E+04  0.21392822309E+04  0.94313751124E+02 0.  0.
         13    1    3    3    0    0  0.54382862444E+02  0.64670943264E+03 -0.15153546407E+04  0.16484812019E+04  0.00000000000E+00 0. -1.
        -13    1    3    3    0    0  0.10305807218E+02  0.23852566064E+03 -0.42881808445E+03  0.49080102893E+03  0.00000000000E+00 0.  1.
         22    1    1    2    0    0 -0.64688669662E+02 -0.88523509327E+03  0.35102892244E+03  0.95448787249E+03  0.00000000000E+00 0. -1.
<mgrwt>
<rscale>  0 0.26520381E+04</rscale>
<asrwt>0</asrwt>
<pdfrwt beam="1">  1        2 0.11543280E+00 0.26520381E+04</pdfrwt>
<pdfrwt beam="2">  1       -2 0.36053183E+00 0.26520381E+04</pdfrwt>
<totfact> 0.44053889E-01</totfact>
</mgrwt>
</event>
<event>
 6    1  0.2236204E-005  0.3222658E+04  0.7818608E-02  0.8182859E-01
         -2   -1    0    0    0  501 -0.00000000000E+00  0.00000000000E+00  0.91515637541E+03  0.91515637541E+03  0.00000000000E+00 0.  1.
          2   -1    0    0  501    0  0.00000000000E+00 -0.00000000000E+00 -0.28370909016E+04  0.28370909016E+04  0.00000000000E+00 0. -1.
         23    2    1    2    0    0  0.17827332200E+03 -0.15077225954E+04 -0.33779823336E+03  0.15580511608E+04  0.91689537412E+02 0.  0.
         11    1    3    3    0    0  0.11064925595E+03 -0.68506498303E+03 -0.11854584415E+03  0.70399602697E+03  0.00000000000E+00 0. -1.
        -11    1    3    3    0    0  0.67624066044E+02 -0.82265761236E+03 -0.21925238921E+03  0.85405513386E+03  0.00000000000E+00 0.  1.
         22    1    1    2    0    0 -0.17827332200E+03  0.15077225954E+04 -0.15841362928E+04  0.21941961162E+04  0.00000000000E+00 0. -1.
<mgrwt>
<rscale>  0 0.32226584E+04</rscale>
<asrwt>0</asrwt>
<pdfrwt beam="1">  1        2 0.43647551E+00 0.32226584E+04</pdfrwt>
<pdfrwt beam="2">  1       -2 0.14079329E+00 0.32226584E+04</pdfrwt>
<totfact> 0.65273776E-01</totfact>
</mgrwt>
</event>
<event>
 6    1  0.2236204E-005  0.1734361E+04  0.7818608E-02  0.8742006E-01
         -1   -1    0    0    0  501 -0.00000000000E+00  0.00000000000E+00  0.36909426192E+03  0.36909426192E+03  0.00000000000E+00 0.  1.
          1   -1    0    0  501    0  0.00000000000E+00 -0.00000000000E+00 -0.20374243638E+04  0.20374243638E+04  0.00000000000E+00 0. -1.
         23    2    1    2    0    0 -0.48092390832E+03 -0.16951255721E+03 -0.18055810786E+04  0.18784465253E+04  0.91738783172E+02 0.  0.
         11    1    3    3    0    0 -0.59019249557E+02 -0.43537051884E+02 -0.18205324604E+03  0.19627055586E+03  0.00000000000E+00 0.  1.
        -11    1    3    3    0    0 -0.42190465876E+03 -0.12597550532E+03 -0.16235278326E+04  0.16821759694E+04  0.00000000000E+00 0. -1.
         22    1    1    2    0    0  0.48092390832E+03  0.16951255721E+03  0.13725097672E+03  0.52807210043E+03  0.00000000000E+00 0.  1.
<mgrwt>
<rscale>  0 0.17343606E+04</rscale>
<asrwt>0</asrwt>
<pdfrwt beam="1">  1        1 0.31344990E+00 0.17343606E+04</pdfrwt>
<pdfrwt beam="2">  1       -1 0.56783733E-01 0.17343606E+04</pdfrwt>
<totfact> 0.83749463E+00</totfact>
</mgrwt>
</event>
<event>
 6    1  0.2236204E-005  0.2048870E+04  0.7818608E-02  0.8584107E-01
          2   -1    0    0  501    0  0.00000000000E+00  0.00000000000E+00  0.23283406486E+04  0.23283406486E+04  0.00000000000E+00 0. -1.
         -2   -1    0    0    0  501 -0.00000000000E+00 -0.00000000000E+00 -0.45073619103E+03  0.45073619103E+03  0.00000000000E+00 0.  1.
         23    2    1    2    0    0  0.34337337050E+03 -0.71769725132E+03  0.69422853644E+02  0.80359833332E+03  0.89197155712E+02 0.  0.
         13    1    3    3    0    0  0.11653788634E+03 -0.34406010903E+03  0.21918426253E+02  0.36392149564E+03  0.00000000000E+00 0. -1.
        -13    1    3    3    0    0  0.22683548416E+03 -0.37363714229E+03  0.47504427391E+02  0.43967683768E+03  0.00000000000E+00 0.  1.
         22    1    1    2    0    0 -0.34337337050E+03  0.71769725132E+03  0.18081816039E+04  0.19754785063E+04  0.00000000000E+00 0. -1.
<mgrwt>
<rscale>  0 0.20488703E+04</rscale>
<asrwt>0</asrwt>
<pdfrwt beam="1">  1        2 0.35820625E+00 0.20488703E+04</pdfrwt>
<pdfrwt beam="2">  1       -2 0.69344031E-01 0.20488703E+04</pdfrwt>
<totfact> 0.76718868E+00</totfact>
</mgrwt>
</event>
<event>
 6    1  0.2236204E-005  0.7195792E+03  0.7818608E-02  0.9684323E-01
         -1   -1    0    0    0  501 -0.00000000000E+00  0.00000000000E+00  0.10007944177E+03  0.10007944177E+03  0.00000000000E+00 0.  1.
          1   -1    0    0  501    0  0.00000000000E+00 -0.00000000000E+00 -0.12934579548E+04  0.12934579548E+04  0.00000000000E+00 0. -1.
         23    2    1    2    0    0 -0.28532111035E+03 -0.11695494853E+03 -0.94262909153E+03  0.99609322645E+03  0.92550070687E+02 0.  0.
         11    1    3    3    0    0 -0.20896154083E+03 -0.11934651515E+03 -0.78262832298E+03  0.81878911092E+03  0.00000000000E+00 0. -1.
        -11    1    3    3    0    0 -0.76359569520E+02  0.23915666296E+01 -0.16000076855E+03  0.17730411553E+03  0.00000000000E+00 0.  1.
         22    1    1    2    0    0  0.28532111035E+03  0.11695494853E+03 -0.25074942154E+03  0.39744417016E+03  0.00000000000E+00 0.  1.
<mgrwt>
<rscale>  0 0.71957918E+03</rscale>
<asrwt>0</asrwt>
<pdfrwt beam="1">  1        1 0.19899353E+00 0.71957918E+03</pdfrwt>
<pdfrwt beam="2">  1       -1 0.15396837E-01 0.71957918E+03</pdfrwt>
<totfact> 0.29291860E+02</totfact>
</mgrwt>
</event>
<event>
 6    1  0.2236204E-005  0.1913040E+04  0.7818608E-02  0.8648393E-01
         -2   -1    0    0    0  501 -0.00000000000E+00  0.00000000000E+00  0.93004530893E+03  0.93004530893E+03  0.00000000000E+00 0.  1.
          2   -1    0    0  501    0  0.00000000000E+00 -0.00000000000E+00 -0.98374847810E+03  0.98374847810E+03  0.00000000000E+00 0. -1.
         23    2    1    2    0    0 -0.71199175190E+02  0.84819088299E+03  0.40490385249E+03  0.94693418147E+03  0.90775094302E+02 0.  0.
         11    1    3    3    0    0 -0.41383226485E+02  0.57222960696E+03  0.22557695522E+03  0.61647729662E+03  0.00000000000E+00 0. -1.
        -11    1    3    3    0    0 -0.29815948705E+02  0.27596127603E+03  0.17932689727E+03  0.33045688485E+03  0.00000000000E+00 0.  1.
         22    1    1    2    0    0  0.71199175190E+02 -0.84819088299E+03 -0.45860702166E+03  0.96685960555E+03  0.00000000000E+00 0.  1.
<mgrwt>
<rscale>  0 0.19130402E+04</rscale>
<asrwt>0</asrwt>
<pdfrwt beam="1">  1        2 0.15134592E+00 0.19130402E+04</pdfrwt>
<pdfrwt beam="2">  1       -2 0.14308389E+00 0.19130402E+04</pdfrwt>
<totfact> 0.81911251E+00</totfact>
</mgrwt>
</event>
<event>
 6    1  0.2236204E-005  0.6972317E+03  0.7818608E-02  0.9721978E-01
         -2   -1    0    0    0  501 -0.00000000000E+00  0.00000000000E+00  0.73078818534E+02  0.73078818534E+02  0.00000000000E+00 0.  1.
          2   -1    0    0  501    0  0.00000000000E+00 -0.00000000000E+00 -0.16630400551E+04  0.16630400551E+04  0.00000000000E+00 0. -1.
         23    2    1    2    0    0  0.13999383772E+00 -0.15038994492E+03 -0.15752475815E+04  0.15850108104E+04  0.90758860670E+02 0.  0.
         11    1    3    3    0    0  0.41037520670E+02 -0.71263246784E+02 -0.58261510422E+03  0.58839008159E+03  0.00000000000E+00 0. -1.
        -11    1    3    3    0    0 -0.40897526833E+02 -0.79126698135E+02 -0.99263247730E+03  0.99662072879E+03  0.00000000000E+00 0.  1.
         22    1    1    2    0    0 -0.13999383772E+00  0.15038994492E+03 -0.14713655024E+02  0.15110806324E+03  0.00000000000E+00 0.  1.
<mgrwt>
<rscale>  0 0.69723168E+03</rscale>
<asrwt>0</asrwt>
<pdfrwt beam="1">  1        2 0.25585233E+00 0.69723168E+03</pdfrwt>
<pdfrwt beam="2">  1       -2 0.11242895E-01 0.69723168E+03</pdfrwt>
<totfact> 0.59361973E+02</totfact>
</mgrwt>
</event>
<event>
 6    1  0.2236204E-005  0.4650359E+04  0.7818608E-02  0.7884829E-01
          2   -1    0    0  501    0  0.00000000000E+00  0.00000000000E+00  0.30022032511E+04  0.30022032511E+04  0.00000000000E+00 0. -1.
         -2   -1    0    0    0  501 -0.00000000000E+00 -0.00000000000E+00 -0.18008306630E+04  0.18008306630E+04  0.00000000000E+00 0.  1.
         23    2    1    2    0    0 -0.28312438077E+03  0.23049465583E+04  0.70211934090E+03  0.24277040725E+04  0.88529335111E+02 0.  0.
         11    1    3    3    0    0 -0.31335210194E+02  0.38351431189E+03  0.14684032580E+03  0.41185823301E+03  0.00000000000E+00 0. -1.
        -11    1    3    3    0    0 -0.25178917058E+03  0.19214322464E+04  0.55527901510E+03  0.20158458395E+04  0.00000000000E+00 0.  1.
         22    1    1    2    0    0  0.28312438077E+03 -0.23049465583E+04  0.49925324719E+03  0.23753298416E+04  0.00000000000E+00 0.  1.
<mgrwt>
<rscale>  0 0.46503590E+04</rscale>
<asrwt>0</asrwt>
<pdfrwt beam="1">  1        2 0.46187742E+00 0.46503590E+04</pdfrwt>
<pdfrwt beam="2">  1       -2 0.27705087E+00 0.46503590E+04</pdfrwt>
<totfact> 0.56998048E-02</totfact>
</mgrwt>
</event>
<event>
 6    1  0.2236204E-005  0.2365263E+04  0.7818608E-02  0.8452624E-01
         -2   -1    0    0    0  501 -0.00000000000E+00  0.00000000000E+00  0.18205809386E+04  0.18205809386E+04  0.00000000000E+00 0.  1.
          2   -1    0    0  501    0  0.00000000000E+00 -0.00000000000E+00 -0.76822549844E+03  0.76822549844E+03  0.00000000000E+00 0. -1.
         23    2    1    2    0    0 -0.36075700666E+03 -0.91177871114E+03 -0.19400815881E+03  0.10029602097E+04  0.82486245112E+02 0.  0.
         13    1    3    3    0    0 -0.12350055638E+03 -0.29593137889E+03 -0.24682965515E+02  0.32161625771E+03  0.00000000000E+00 0.  1.
        -13    1    3    3    0    0 -0.23725645027E+03 -0.61584733225E+03 -0.16932519330E+03  0.68134395200E+03  0.00000000000E+00 0. -1.
         22    1    1    2    0    0  0.36075700666E+03  0.91177871114E+03  0.12463635990E+04  0.15858462274E+04  0.00000000000E+00 0.  1.
<mgrwt>
<rscale>  0 0.23652625E+04</rscale>
<asrwt>0</asrwt>
<pdfrwt beam="1">  1        2 0.11818854E+00 0.23652625E+04</pdfrwt>
<pdfrwt beam="2">  1       -2 0.28008937E+00 0.23652625E+04</pdfrwt>
<totfact> 0.13785663E+00</totfact>
</mgrwt>
</event>
<event>
 6    1  0.2236204E-005  0.2916838E+04  0.7818608E-02  0.8267885E-01
          2   -1    0    0  501    0  0.00000000000E+00  0.00000000000E+00  0.21172464148E+04  0.21172464148E+04  0.00000000000E+00 0. -1.
         -2   -1    0    0    0  501 -0.00000000000E+00 -0.00000000000E+00 -0.10046004489E+04  0.10046004489E+04  0.00000000000E+00 0.  1.
         23    2    1    2    0    0  0.13972115719E+03 -0.13652014579E+04  0.33809419759E+02  0.13762279718E+04  0.97792284918E+02 0.  0.
         13    1    3    3    0    0  0.10516452893E+03 -0.56219282571E+03  0.22880068577E+02  0.57240182474E+03  0.00000000000E+00 0. -1.
        -13    1    3    3    0    0  0.34556628252E+02 -0.80300863222E+03  0.10929351182E+02  0.80382614706E+03  0.00000000000E+00 0.  1.
         22    1    1    2    0    0 -0.13972115719E+03  0.13652014579E+04  0.10788365461E+04  0.17456188919E+04  0.00000000000E+00 0.  1.
<mgrwt>
<rscale>  0 0.29168385E+04</rscale>
<asrwt>0</asrwt>
<pdfrwt beam="1">  1        2 0.32573022E+00 0.29168385E+04</pdfrwt>
<pdfrwt beam="2">  1       -2 0.15455392E+00 0.29168385E+04</pdfrwt>
<totfact> 0.13702876E+00</totfact>
</mgrwt>
</event>
<event>
 6    1  0.2236204E-005  0.3283097E+04  0.7818608E-02  0.8167210E-01
         -2   -1    0    0    0  501 -0.00000000000E+00  0.00000000000E+00  0.12864193774E+04  0.12864193774E+04  0.00000000000E+00 0.  1.
          2   -1    0    0  501    0  0.00000000000E+00 -0.00000000000E+00 -0.20947151972E+04  0.20947151972E+04  0.00000000000E+00 0. -1.
         23    2    1    2    0    0  0.74553223655E+03 -0.14236191478E+04 -0.74299987885E+03  0.17727896633E+04  0.90689451474E+02 0.  0.
         13    1    3    3    0    0  0.71555241528E+03 -0.13181156901E+04 -0.68785853437E+03  0.16500283618E+04  0.00000000000E+00 0.  1.
        -13    1    3    3    0    0  0.29979821266E+02 -0.10550345767E+03 -0.55141344488E+02  0.12276130146E+03  0.00000000000E+00 0. -1.
         22    1    1    2    0    0 -0.74553223655E+03  0.14236191478E+04 -0.65295940918E+02  0.16083449113E+04  0.00000000000E+00 0. -1.
<mgrwt>
<rscale>  0 0.32830975E+04</rscale>
<asrwt>0</asrwt>
<pdfrwt beam="1">  1        2 0.32226387E+00 0.32830975E+04</pdfrwt>
<pdfrwt beam="2">  1       -2 0.19791068E+00 0.32830975E+04</pdfrwt>
<totfact> 0.67929282E-01</totfact>
</mgrwt>
</event>
<event>
 6    1  0.2236204E-005  0.5264553E+04  0.7818608E-02  0.7788945E-01
         -2   -1    0    0    0  501 -0.00000000000E+00  0.00000000000E+00  0.32281564546E+04  0.32281564546E+04  0.00000000000E+00 0.  1.
          2   -1    0    0  501    0  0.00000000000E+00 -0.00000000000E+00 -0.21463893516E+04  0.21463893516E+04  0.00000000000E+00 0. -1.
         23    2    1    2    0    0  0.14239848995E+04 -0.12859322617E+04  0.23796070540E+04  0.30581383908E+04  0.91246426836E+02 0.  0.
         11    1    3    3    0    0  0.11146090661E+04 -0.10006022940E+04  0.17964293461E+04  0.23389563306E+04  0.00000000000E+00 0. -1.
        -11    1    3    3    0    0  0.30937583337E+03 -0.28532996766E+03  0.58317770788E+03  0.71918206018E+03  0.00000000000E+00 0.  1.
         22    1    1    2    0    0 -0.14239848995E+04  0.12859322617E+04 -0.12978399510E+04  0.23164074154E+04  0.00000000000E+00 0. -1.
<mgrwt>
<rscale>  0 0.52645534E+04</rscale>
<asrwt>0</asrwt>
<pdfrwt beam="1">  1        2 0.33021375E+00 0.52645534E+04</pdfrwt>
<pdfrwt beam="2">  1       -2 0.49663945E+00 0.52645534E+04</pdfrwt>
<totfact> 0.68838156E-03</totfact>
</mgrwt>
</event>
<event>
 6    1  0.2236204E-005  0.1399227E+04  0.7818608E-02  0.8954378E-01
          2   -1    0    0  501    0  0.00000000000E+00  0.00000000000E+00  0.31330968459E+04  0.31330968459E+04  0.00000000000E+00 0. -1.
         -2   -1    0    0    0  501 -0.00000000000E+00 -0.00000000000E+00 -0.15622210139E+03  0.15622210139E+03  0.00000000000E+00 0.  1.
         23    2    1    2    0    0  0.49983507548E+03  0.20067143027E+03  0.45629221254E+03  0.71183171627E+03  0.91638875239E+02 0.  0.
         13    1    3    3    0    0  0.38198848968E+03  0.11076178398E+03  0.34440335228E+03  0.52611505215E+03  0.00000000000E+00 0. -1.
        -13    1    3    3    0    0  0.11784658580E+03  0.89909646291E+02  0.11188886027E+03  0.18571666412E+03  0.00000000000E+00 0.  1.
         22    1    1    2    0    0 -0.49983507548E+03 -0.20067143027E+03  0.25205825320E+04  0.25774872310E+04  0.00000000000E+00 0.  1.
<mgrwt>
<rscale>  0 0.13992269E+04</rscale>
<asrwt>0</asrwt>
<pdfrwt beam="1">  1        2 0.48201485E+00 0.13992269E+04</pdfrwt>
<pdfrwt beam="2">  1       -2 0.24034172E-01 0.13992269E+04</pdfrwt>
<totfact> 0.21729084E+01</totfact>
</mgrwt>
</event>
<event>
 6    1  0.2236204E-005  0.1165311E+04  0.7818608E-02  0.9143774E-01
          2   -1    0    0  501    0  0.00000000000E+00  0.00000000000E+00  0.80444108593E+03  0.80444108593E+03  0.00000000000E+00 0.  1.
         -2   -1    0    0    0  501 -0.00000000000E+00 -0.00000000000E+00 -0.42201643906E+03  0.42201643906E+03  0.00000000000E+00 0. -1.
         23    2    1    2    0    0  0.29102232541E+03 -0.39881532997E+03 -0.12615002344E+03  0.51765864196E+03  0.91153605923E+02 0.  0.
         11    1    3    3    0    0  0.12111818557E+03 -0.96793820931E+02 -0.28619610650E+02  0.15766337800E+03  0.00000000000E+00 0. -1.
        -11    1    3    3    0    0  0.16990413983E+03 -0.30202150904E+03 -0.97530412789E+02  0.35999526396E+03  0.00000000000E+00 0.  1.
         22    1    1    2    0    0 -0.29102232541E+03  0.39881532997E+03  0.50857467032E+03  0.70879888304E+03  0.00000000000E+00 0.  1.
<mgrwt>
<rscale>  0 0.11653109E+04</rscale>
<asrwt>0</asrwt>
<pdfrwt beam="1">  1        2 0.12376017E+00 0.11653109E+04</pdfrwt>
<pdfrwt beam="2">  1       -2 0.64925606E-01 0.11653109E+04</pdfrwt>
<totfact> 0.74032849E+01</totfact>
</mgrwt>
</event>
<event>
 6    1  0.2236204E-005  0.3666765E+04  0.7818608E-02  0.8075367E-01
          2   -1    0    0  501    0  0.00000000000E+00  0.00000000000E+00  0.21895045780E+04  0.21895045780E+04  0.00000000000E+00 0. -1.
         -2   -1    0    0    0  501 -0.00000000000E+00 -0.00000000000E+00 -0.15351832161E+04  0.15351832161E+04  0.00000000000E+00 0.  1.
         23    2    1    2    0    0  0.31679335473E+03 -0.13245130320E+04 -0.91766480241E+03  0.16448240239E+04  0.92976225261E+02 0.  0.
         13    1    3    3    0    0  0.10237297016E+03 -0.48915282203E+03 -0.38838743068E+03  0.63292614469E+03  0.00000000000E+00 0.  1.
        -13    1    3    3    0    0  0.21442038457E+03 -0.83536020997E+03 -0.52927737173E+03  0.10118978792E+04  0.00000000000E+00 0. -1.
         22    1    1    2    0    0 -0.31679335473E+03  0.13245130320E+04  0.15719861643E+04  0.20798637702E+04  0.00000000000E+00 0. -1.
<mgrwt>
<rscale>  0 0.36667646E+04</rscale>
<asrwt>0</asrwt>
<pdfrwt beam="1">  1        2 0.33684686E+00 0.36667646E+04</pdfrwt>
<pdfrwt beam="2">  1       -2 0.23618203E+00 0.36667646E+04</pdfrwt>
<totfact> 0.33195737E-01</totfact>
</mgrwt>
</event>
<event>
 6    1  0.2236204E-005  0.6937254E+03  0.7818608E-02  0.9728023E-01
         -2   -1    0    0    0  501 -0.00000000000E+00  0.00000000000E+00  0.11147462766E+03  0.11147462766E+03  0.00000000000E+00 0.  1.
          2   -1    0    0  501    0  0.00000000000E+00 -0.00000000000E+00 -0.10792924011E+04  0.10792924011E+04  0.00000000000E+00 0. -1.
         23    2    1    2    0    0 -0.36969689697E+02  0.31655003179E+03 -0.28674603707E+03  0.43881663768E+03  0.93627299134E+02 0.  0.
         11    1    3    3    0    0 -0.26619479521E+02  0.31834562400E+03 -0.28511527588E+03  0.42818600345E+03  0.00000000000E+00 0. -1.
        -11    1    3    3    0    0 -0.10350210177E+02 -0.17955922074E+01 -0.16307611941E+01  0.10630634231E+02  0.00000000000E+00 0.  1.
         22    1    1    2    0    0  0.36969689697E+02 -0.31655003179E+03 -0.68107173640E+03  0.75195039112E+03  0.00000000000E+00 0. -1.
<mgrwt>
<rscale>  0 0.69372536E+03</rscale>
<asrwt>0</asrwt>
<pdfrwt beam="1">  1        2 0.16604500E+00 0.69372536E+03</pdfrwt>
<pdfrwt beam="2">  1       -2 0.17149942E-01 0.69372536E+03</pdfrwt>
<totfact> 0.63051831E+02</totfact>
</mgrwt>
</event>
<event>
 6    1  0.2236204E-005  0.8676081E+03  0.7818608E-02  0.9467004E-01
          2   -1    0    0  501    0  0.00000000000E+00  0.00000000000E+00  0.15448477382E+04  0.15448477382E+04  0.00000000000E+00 0.  1.
         -2   -1    0    0    0  501 -0.00000000000E+00 -0.00000000000E+00 -0.12181521195E+03  0.12181521195E+03  0.00000000000E+00 0. -1.
         23    2    1    2    0    0 -0.21213844674E+03 -0.17321303832E+03  0.13537036369E+04  0.13841528227E+04  0.91433159810E+02 0.  0.
         13    1    3    3    0    0 -0.14617185535E+03 -0.16511164670E+03  0.97143936845E+03  0.99615386048E+03  0.00000000000E+00 0. -1.
        -13    1    3    3    0    0 -0.65966591394E+02 -0.81013916215E+01  0.38226426845E+03  0.38799896219E+03  0.00000000000E+00 0.  1.
         22    1    1    2    0    0  0.21213844674E+03  0.17321303832E+03  0.69328889360E+02  0.28251012749E+03  0.00000000000E+00 0. -1.
<mgrwt>
<rscale>  0 0.86760810E+03</rscale>
<asrwt>0</asrwt>
<pdfrwt beam="1">  1        2 0.23766887E+00 0.86760810E+03</pdfrwt>
<pdfrwt beam="2">  1       -2 0.18740803E-01 0.86760810E+03</pdfrwt>
<totfact> 0.28820729E+02</totfact>
</mgrwt>
</event>
<event>
 6    1  0.2236204E-005  0.2695563E+04  0.7818608E-02  0.8336446E-01
          2   -1    0    0  501    0  0.00000000000E+00  0.00000000000E+00  0.22377208579E+04  0.22377208579E+04  0.00000000000E+00 0. -1.
         -2   -1    0    0    0  501 -0.00000000000E+00 -0.00000000000E+00 -0.81176991297E+03  0.81176991297E+03  0.00000000000E+00 0.  1.
         23    2    1    2    0    0  0.35953683363E+03 -0.28462014022E+03  0.21457249701E+04  0.21960565283E+04  0.90847505831E+02 0.  0.
         11    1    3    3    0    0  0.23084517547E+03 -0.15423378363E+03  0.11058601102E+04  0.11401772399E+04  0.00000000000E+00 0.  1.
        -11    1    3    3    0    0  0.12869165816E+03 -0.13038635660E+03  0.10398648599E+04  0.10558792885E+04  0.00000000000E+00 0. -1.
         22    1    1    2    0    0 -0.35953683363E+03  0.28462014022E+03 -0.71977402520E+03  0.85343424252E+03  0.00000000000E+00 0.  1.
<mgrwt>
<rscale>  0 0.26955626E+04</rscale>
<asrwt>0</asrwt>
<pdfrwt beam="1">  1        2 0.34426475E+00 0.26955626E+04</pdfrwt>
<pdfrwt beam="2">  1       -2 0.12488768E+00 0.26955626E+04</pdfrwt>
<totfact> 0.20735622E+00</totfact>
</mgrwt>
</event>
<event>
 6    1  0.2236204E-005  0.4501226E+04  0.7818608E-02  0.7910422E-01
          2   -1    0    0  501    0  0.00000000000E+00  0.00000000000E+00  0.19426184543E+04  0.19426184543E+04  0.00000000000E+00 0. -1.
         -2   -1    0    0    0  501 -0.00000000000E+00 -0.00000000000E+00 -0.26074385554E+04  0.26074385554E+04  0.00000000000E+00 0.  1.
         23    2    1    2    0    0 -0.22482253053E+04  0.35662814564E+02 -0.25930113206E+03  0.22652737610E+04  0.91865529920E+02 0.  0.
         11    1    3    3    0    0 -0.12251518466E+04  0.25180147204E+02 -0.18697998988E+03  0.12395937253E+04  0.00000000000E+00 0. -1.
        -11    1    3    3    0    0 -0.10230734586E+04  0.10482667361E+02 -0.72321142186E+02  0.10256800357E+04  0.00000000000E+00 0.  1.
         22    1    1    2    0    0  0.22482253053E+04 -0.35662814564E+02 -0.40551896905E+03  0.22847832488E+04  0.00000000000E+00 0.  1.
<mgrwt>
<rscale>  0 0.45012257E+04</rscale>
<asrwt>0</asrwt>
<pdfrwt beam="1">  1        2 0.29886438E+00 0.45012257E+04</pdfrwt>
<pdfrwt beam="2">  1       -2 0.40114439E+00 0.45012257E+04</pdfrwt>
<totfact> 0.39750169E-02</totfact>
</mgrwt>
</event>
<event>
 6    1  0.2236204E-005  0.4014058E+04  0.7818608E-02  0.8001717E-01
         -2   -1    0    0    0  501 -0.00000000000E+00  0.00000000000E+00  0.15422170712E+04  0.15422170712E+04  0.00000000000E+00 0.  1.
          2   -1    0    0  501    0  0.00000000000E+00 -0.00000000000E+00 -0.26119312577E+04  0.26119312577E+04  0.00000000000E+00 0. -1.
         23    2    1    2    0    0 -0.13504033219E+04  0.12764017674E+04 -0.13172215861E+04  0.22795682382E+04  0.92563719412E+02 0.  0.
         11    1    3    3    0    0 -0.90158242652E+03  0.89026503956E+03 -0.85686542539E+03  0.15295885295E+04  0.00000000000E+00 0. -1.
        -11    1    3    3    0    0 -0.44882089541E+03  0.38613672785E+03 -0.46035616067E+03  0.74997970867E+03  0.00000000000E+00 0.  1.
         22    1    1    2    0    0  0.13504033219E+04 -0.12764017674E+04  0.24750739959E+03  0.18745800907E+04  0.00000000000E+00 0.  1.
<mgrwt>
<rscale>  0 0.40140578E+04</rscale>
<asrwt>0</asrwt>
<pdfrwt beam="1">  1        2 0.40183558E+00 0.40140578E+04</pdfrwt>
<pdfrwt beam="2">  1       -2 0.23726417E+00 0.40140578E+04</pdfrwt>
<totfact> 0.18174101E-01</totfact>
</mgrwt>
</event>
<event>
 6    1  0.2236204E-005  0.1037715E+04  0.7818608E-02  0.9268120E-01
          2   -1    0    0  501    0  0.00000000000E+00  0.00000000000E+00  0.11448132464E+04  0.11448132464E+04  0.00000000000E+00 0. -1.
         -2   -1    0    0    0  501 -0.00000000000E+00 -0.00000000000E+00 -0.23515895389E+03  0.23515895389E+03  0.00000000000E+00 0.  1.
         23    2    1    2    0    0  0.14186799051E+03 -0.17201313262E+03  0.10754016333E+04  0.11021463096E+04  0.92318852365E+02 0.  0.
         13    1    3    3    0    0  0.13502966728E+03 -0.15249608363E+03  0.78452139129E+03  0.81053185006E+03  0.00000000000E+00 0.  1.
        -13    1    3    3    0    0  0.68383232273E+01 -0.19517048990E+02  0.29088024197E+03  0.29161445958E+03  0.00000000000E+00 0. -1.
         22    1    1    2    0    0 -0.14186799051E+03  0.17201313262E+03 -0.16574734078E+03  0.27782589063E+03  0.00000000000E+00 0.  1.
<mgrwt>
<rscale>  0 0.10377150E+04</rscale>
<asrwt>0</asrwt>
<pdfrwt beam="1">  1        2 0.17612511E+00 0.10377150E+04</pdfrwt>
<pdfrwt beam="2">  1       -2 0.36178302E-01 0.10377150E+04</pdfrwt>
<totfact> 0.14631659E+02</totfact>
</mgrwt>
</event>
<event>
 6    1  0.2236204E-005  0.2204000E+04  0.7818608E-02  0.8516765E-01
          2   -1    0    0  501    0  0.00000000000E+00  0.00000000000E+00  0.24232589181E+04  0.24232589181E+04  0.00000000000E+00 0. -1.
         -2   -1    0    0    0  501 -0.00000000000E+00 -0.00000000000E+00 -0.50114501967E+03  0.50114501967E+03  0.00000000000E+00 0.  1.
         23    2    1    2    0    0  0.70762877402E+03 -0.15710586736E+03  0.20607485076E+04  0.21864064512E+04  0.90928668612E+02 0.  0.
         11    1    3    3    0    0  0.55783311821E+03 -0.88081992888E+02  0.15491730272E+04  0.16489006318E+04  0.00000000000E+00 0.  1.
        -11    1    3    3    0    0  0.14979565581E+03 -0.69023874476E+02  0.51157548041E+03  0.53750581941E+03  0.00000000000E+00 0. -1.
         22    1    1    2    0    0 -0.70762877402E+03  0.15710586736E+03 -0.13863460916E+03  0.73799748661E+03  0.00000000000E+00 0.  1.
<mgrwt>
<rscale>  0 0.22040001E+04</rscale>
<asrwt>0</asrwt>
<pdfrwt beam="1">  1        2 0.37280906E+00 0.22040001E+04</pdfrwt>
<pdfrwt beam="2">  1       -2 0.77099235E-01 0.22040001E+04</pdfrwt>
<totfact> 0.52896295E+00</totfact>
</mgrwt>
</event>
<event>
 6    1  0.2236204E-005  0.1704125E+04  0.7818608E-02  0.8759015E-01
         -4   -1    0    0    0  501 -0.00000000000E+00  0.00000000000E+00  0.84975882743E+03  0.84975882743E+03  0.00000000000E+00 0.  1.
          4   -1    0    0  501    0  0.00000000000E+00 -0.00000000000E+00 -0.85437246502E+03  0.85437246502E+03  0.00000000000E+00 0. -1.
         23    2    1    2    0    0 -0.81383044239E+03 -0.20949862328E+03 -0.12831690835E+03  0.85471257279E+03  0.88649258360E+02 0.  0.
         11    1    3    3    0    0 -0.25274019729E+03 -0.30404861067E+02 -0.62059137329E+02  0.26201793723E+03  0.00000000000E+00 0.  1.
        -11    1    3    3    0    0 -0.56109024509E+03 -0.17909376221E+03 -0.66257771017E+02  0.59269463556E+03  0.00000000000E+00 0. -1.
         22    1    1    2    0    0  0.81383044239E+03  0.20949862328E+03  0.12370327075E+03  0.84941871966E+03  0.00000000000E+00 0.  1.
<mgrwt>
<rscale>  0 0.17041250E+04</rscale>
<asrwt>0</asrwt>
<pdfrwt beam="1">  1        4 0.13144192E+00 0.17041250E+04</pdfrwt>
<pdfrwt beam="2">  1       -4 0.13073213E+00 0.17041250E+04</pdfrwt>
<totfact> 0.34131777E-01</totfact>
</mgrwt>
</event>
<event>
 6    1  0.2236204E-005  0.1693608E+04  0.7818608E-02  0.8765018E-01
         -2   -1    0    0    0  501 -0.00000000000E+00  0.00000000000E+00  0.48931921154E+03  0.48931921154E+03  0.00000000000E+00 0.  1.
          2   -1    0    0  501    0  0.00000000000E+00 -0.00000000000E+00 -0.14654591568E+04  0.14654591568E+04  0.00000000000E+00 0. -1.
         23    2    1    2    0    0 -0.24945704931E+03 -0.28033911357E+03  0.38372703851E+03  0.54408454912E+03  0.89234065621E+02 0.  0.
         11    1    3    3    0    0 -0.14637883493E+03 -0.22436993445E+03  0.25351865833E+03  0.36883646908E+03  0.00000000000E+00 0.  1.
        -11    1    3    3    0    0 -0.10307821438E+03 -0.55969179115E+02  0.13020838018E+03  0.17524808004E+03  0.00000000000E+00 0. -1.
         22    1    1    2    0    0  0.24945704931E+03  0.28033911357E+03 -0.13598669837E+04  0.14106938192E+04  0.00000000000E+00 0. -1.
<mgrwt>
<rscale>  0 0.16936084E+04</rscale>
<asrwt>0</asrwt>
<pdfrwt beam="1">  1        2 0.22545525E+00 0.16936084E+04</pdfrwt>
<pdfrwt beam="2">  1       -2 0.75279880E-01 0.16936084E+04</pdfrwt>
<totfact> 0.20019668E+01</totfact>
</mgrwt>
</event>
<event>
 6    1  0.2236204E-005  0.8718514E+03  0.7818608E-02  0.9461469E-01
          2   -1    0    0  501    0  0.00000000000E+00  0.00000000000E+00  0.59987787746E+03  0.59987787746E+03  0.00000000000E+00 0. -1.
         -2   -1    0    0    0  501 -0.00000000000E+00 -0.00000000000E+00 -0.31678316590E+03  0.31678316590E+03  0.00000000000E+00 0.  1.
         23    2    1    2    0    0 -0.10224780394E+03 -0.16138885691E+02  0.58320305126E+03  0.59920223880E+03  0.90567361345E+02 0.  0.
         11    1    3    3    0    0 -0.74262697194E+02 -0.26926909671E+02  0.20315232367E+03  0.21796989074E+03  0.00000000000E+00 0.  1.
        -11    1    3    3    0    0 -0.27985106746E+02  0.10788023980E+02  0.38005072759E+03  0.38123234805E+03  0.00000000000E+00 0. -1.
         22    1    1    2    0    0  0.10224780394E+03  0.16138885691E+02 -0.30010833970E+03  0.31745880457E+03  0.00000000000E+00 0.  1.
<mgrwt>
<rscale>  0 0.87185139E+03</rscale>
<asrwt>0</asrwt>
<pdfrwt beam="1">  1        2 0.92288904E-01 0.87185139E+03</pdfrwt>
<pdfrwt beam="2">  1       -2 0.48735872E-01 0.87185139E+03</pdfrwt>
<totfact> 0.19866233E+02</totfact>
</mgrwt>
</event>
<event>
 6    1  0.2236204E-005  0.1010067E+04  0.7818608E-02  0.9297572E-01
         -2   -1    0    0    0  501 -0.00000000000E+00  0.00000000000E+00  0.22295453901E+04  0.22295453901E+04  0.00000000000E+00 0.  1.
          2   -1    0    0  501    0  0.00000000000E+00 -0.00000000000E+00 -0.11439951147E+03  0.11439951147E+03  0.00000000000E+00 0. -1.
         23    2    1    2    0    0 -0.45301505357E+03 -0.20081905840E+02  0.57222162149E+03  0.73576543865E+03  0.91034470962E+02 0.  0.
         13    1    3    3    0    0 -0.55517672849E+02  0.27592430458E+02  0.83578568750E+02  0.10406215148E+03  0.00000000000E+00 0.  1.
        -13    1    3    3    0    0 -0.39749738073E+03 -0.47674336297E+02  0.48864305274E+03  0.63170328717E+03  0.00000000000E+00 0. -1.
         22    1    1    2    0    0  0.45301505357E+03  0.20081905840E+02  0.15429242571E+04  0.16081794629E+04  0.00000000000E+00 0.  1.
<mgrwt>
<rscale>  0 0.10100671E+04</rscale>
<asrwt>0</asrwt>
<pdfrwt beam="1">  1        2 0.17599926E-01 0.10100671E+04</pdfrwt>
<pdfrwt beam="2">  1       -2 0.34300695E+00 0.10100671E+04</pdfrwt>
<totfact> 0.58171479E+00</totfact>
</mgrwt>
</event>
<event>
 6    1  0.2236204E-005  0.4248648E+04  0.7818608E-02  0.7956182E-01
          2   -1    0    0  501    0  0.00000000000E+00  0.00000000000E+00  0.37307227480E+04  0.37307227480E+04  0.00000000000E+00 0. -1.
         -2   -1    0    0    0  501 -0.00000000000E+00 -0.00000000000E+00 -0.12096189003E+04  0.12096189003E+04  0.00000000000E+00 0.  1.
         23    2    1    2    0    0 -0.11121507923E+04  0.76960889667E+02 -0.84034754275E+03  0.13988507456E+04  0.88300920673E+02 0.  0.
         11    1    3    3    0    0 -0.71010010341E+03  0.24409851463E+02 -0.57779775988E+03  0.91579924057E+03  0.00000000000E+00 0. -1.
        -11    1    3    3    0    0 -0.40205068888E+03  0.52551038204E+02 -0.26254978287E+03  0.48305150505E+03  0.00000000000E+00 0.  1.
         22    1    1    2    0    0  0.11121507923E+04 -0.76960889667E+02  0.33614513905E+04  0.35414909027E+04  0.00000000000E+00 0. -1.
<mgrwt>
<rscale>  0 0.42486481E+04</rscale>
<asrwt>0</asrwt>
<pdfrwt beam="1">  1        2 0.57395734E+00 0.42486481E+04</pdfrwt>
<pdfrwt beam="2">  1       -2 0.18609522E+00 0.42486481E+04</pdfrwt>
<totfact> 0.70340911E-02</totfact>
</mgrwt>
</event>
<event>
 6    1  0.2236204E-005  0.1539531E+04  0.7818608E-02  0.8858582E-01
          2   -1    0    0  501    0  0.00000000000E+00  0.00000000000E+00  0.99390384972E+03  0.99390384972E+03  0.00000000000E+00 0. -1.
         -2   -1    0    0    0  501 -0.00000000000E+00 -0.00000000000E+00 -0.59617351119E+03  0.59617351119E+03  0.00000000000E+00 0.  1.
         23    2    1    2    0    0 -0.25583765713E+03 -0.31174950978E+02 -0.54700172528E+03  0.61082077720E+03  0.86408043760E+02 0.  0.
         13    1    3    3    0    0 -0.18412288564E+03  0.15794381595E+02 -0.34488976998E+03  0.39127950745E+03  0.00000000000E+00 0. -1.
        -13    1    3    3    0    0 -0.71714771482E+02 -0.46969332573E+02 -0.20211195529E+03  0.21954126975E+03  0.00000000000E+00 0.  1.
         22    1    1    2    0    0  0.25583765713E+03  0.31174950978E+02  0.94473206381E+03  0.97925658372E+03  0.00000000000E+00 0. -1.
<mgrwt>
<rscale>  0 0.15395313E+04</rscale>
<asrwt>0</asrwt>
<pdfrwt beam="1">  1        2 0.15290828E+00 0.15395313E+04</pdfrwt>
<pdfrwt beam="2">  1       -2 0.91719002E-01 0.15395313E+04</pdfrwt>
<totfact> 0.24773378E+01</totfact>
</mgrwt>
</event>
<event>
 6    1  0.2236204E-005  0.2215042E+04  0.7818608E-02  0.8512193E-01
         -2   -1    0    0    0  501 -0.00000000000E+00  0.00000000000E+00  0.79010187448E+03  0.79010187448E+03  0.00000000000E+00 0.  1.
          2   -1    0    0  501    0  0.00000000000E+00 -0.00000000000E+00 -0.15524619305E+04  0.15524619305E+04  0.00000000000E+00 0. -1.
         23    2    1    2    0    0 -0.70073311194E+03  0.30158392506E+03 -0.12281668187E+04  0.14487205870E+04  0.91748824080E+02 0.  0.
         13    1    3    3    0    0 -0.41734146796E+03  0.22726786327E+03 -0.77531463570E+03  0.90936096622E+03  0.00000000000E+00 0. -1.
        -13    1    3    3    0    0 -0.28339164398E+03  0.74316061787E+02 -0.45285218301E+03  0.53935962083E+03  0.00000000000E+00 0.  1.
         22    1    1    2    0    0  0.70073311194E+03 -0.30158392506E+03  0.46580676271E+03  0.89384321791E+03  0.00000000000E+00 0.  1.
<mgrwt>
<rscale>  0 0.22150423E+04</rscale>
<asrwt>0</asrwt>
<pdfrwt beam="1">  1        2 0.23884030E+00 0.22150423E+04</pdfrwt>
<pdfrwt beam="2">  1       -2 0.12155413E+00 0.22150423E+04</pdfrwt>
<totfact> 0.55678704E+00</totfact>
</mgrwt>
</event>
<event>
 6    1  0.2236204E-005  0.1808721E+04  0.7818608E-02  0.8701676E-01
          2   -1    0    0  501    0  0.00000000000E+00  0.00000000000E+00  0.10338107298E+04  0.10338107298E+04  0.00000000000E+00 0. -1.
         -2   -1    0    0    0  501 -0.00000000000E+00 -0.00000000000E+00 -0.79111932902E+03  0.79111932902E+03  0.00000000000E+00 0.  1.
         23    2    1    2    0    0 -0.36535819487E+03 -0.44283841763E+03 -0.58034775035E+03  0.82144317849E+03  0.91503603554E+02 0.  0.
         11    1    3    3    0    0 -0.30104295084E+03 -0.36393735946E+03 -0.42300084080E+03  0.63404019681E+03  0.00000000000E+00 0.  1.
        -11    1    3    3    0    0 -0.64315244029E+02 -0.78901058174E+02 -0.15734690956E+03  0.18740298168E+03  0.00000000000E+00 0. -1.
         22    1    1    2    0    0  0.36535819487E+03  0.44283841763E+03  0.82303915112E+03  0.10034868803E+04  0.00000000000E+00 0. -1.
<mgrwt>
<rscale>  0 0.18087207E+04</rscale>
<asrwt>0</asrwt>
<pdfrwt beam="1">  1        2 0.15904781E+00 0.18087207E+04</pdfrwt>
<pdfrwt beam="2">  1       -2 0.12171067E+00 0.18087207E+04</pdfrwt>
<totfact> 0.11590806E+01</totfact>
</mgrwt>
</event>
<event>
 6    1  0.2236204E-005  0.2626073E+04  0.7818608E-02  0.8359398E-01
         -2   -1    0    0    0  501 -0.00000000000E+00  0.00000000000E+00  0.21199632496E+04  0.21199632496E+04  0.00000000000E+00 0.  1.
          2   -1    0    0  501    0  0.00000000000E+00 -0.00000000000E+00 -0.81325241661E+03  0.81325241661E+03  0.00000000000E+00 0. -1.
         23    2    1    2    0    0 -0.76085417330E+03  0.11955070707E+03 -0.53160065102E+03  0.94008231473E+03  0.89241591903E+02 0.  0.
         13    1    3    3    0    0 -0.63793171861E+03  0.82009057951E+02 -0.47539994232E+03  0.79980464387E+03  0.00000000000E+00 0. -1.
        -13    1    3    3    0    0 -0.12292245469E+03  0.37541649118E+02 -0.56200708694E+02  0.14027767086E+03  0.00000000000E+00 0.  1.
         22    1    1    2    0    0  0.76085417330E+03 -0.11955070707E+03  0.18383114840E+04  0.19931333515E+04  0.00000000000E+00 0.  1.
<mgrwt>
<rscale>  0 0.26260733E+04</rscale>
<asrwt>0</asrwt>
<pdfrwt beam="1">  1        2 0.12511576E+00 0.26260733E+04</pdfrwt>
<pdfrwt beam="2">  1       -2 0.32614819E+00 0.26260733E+04</pdfrwt>
<totfact> 0.65251457E-01</totfact>
</mgrwt>
</event>
<event>
 6    1  0.2236204E-005  0.1773189E+04  0.7818608E-02  0.8720689E-01
          2   -1    0    0  501    0  0.00000000000E+00  0.00000000000E+00  0.11972097258E+04  0.11972097258E+04  0.00000000000E+00 0. -1.
         -2   -1    0    0    0  501 -0.00000000000E+00 -0.00000000000E+00 -0.65656790646E+03  0.65656790646E+03  0.00000000000E+00 0.  1.
         23    2    1    2    0    0  0.17183215064E+03  0.24369451007E+03 -0.59995475400E+03  0.67484852270E+03  0.81003206819E+02 0.  0.
         11    1    3    3    0    0  0.14551456836E+03  0.18511242318E+03 -0.52963353953E+03  0.57961434163E+03  0.00000000000E+00 0. -1.
        -11    1    3    3    0    0  0.26317582279E+02  0.58582086885E+02 -0.70321214466E+02  0.95234181074E+02  0.00000000000E+00 0.  1.
         22    1    1    2    0    0 -0.17183215064E+03 -0.24369451007E+03  0.11405965733E+04  0.11789291095E+04  0.00000000000E+00 0. -1.
<mgrwt>
<rscale>  0 0.17731886E+04</rscale>
<asrwt>0</asrwt>
<pdfrwt beam="1">  1        2 0.18418611E+00 0.17731886E+04</pdfrwt>
<pdfrwt beam="2">  1       -2 0.10101045E+00 0.17731886E+04</pdfrwt>
<totfact> 0.14510118E+01</totfact>
</mgrwt>
</event>
<event>
 6    1  0.2236204E-005  0.1566737E+04  0.7818608E-02  0.8841247E-01
          2   -1    0    0  501    0  0.00000000000E+00  0.00000000000E+00  0.20234135732E+04  0.20234135732E+04  0.00000000000E+00 0. -1.
         -2   -1    0    0    0  501 -0.00000000000E+00 -0.00000000000E+00 -0.30328266929E+03  0.30328266929E+03  0.00000000000E+00 0.  1.
         23    2    1    2    0    0  0.18104653708E+03  0.21790874256E+03  0.19434364632E+04  0.19659644287E+04  0.88367300931E+02 0.  0.
         11    1    3    3    0    0  0.81596687521E+02  0.76150450472E+02  0.10489219862E+04  0.10548432318E+04  0.00000000000E+00 0. -1.
        -11    1    3    3    0    0  0.99449849562E+02  0.14175829209E+03  0.89451447697E+03  0.91112119692E+03  0.00000000000E+00 0.  1.
         22    1    1    2    0    0 -0.18104653708E+03 -0.21790874256E+03 -0.22330555927E+03  0.36073181378E+03  0.00000000000E+00 0.  1.
<mgrwt>
<rscale>  0 0.15667371E+04</rscale>
<asrwt>0</asrwt>
<pdfrwt beam="1">  1        2 0.31129439E+00 0.15667371E+04</pdfrwt>
<pdfrwt beam="2">  1       -2 0.46658874E-01 0.15667371E+04</pdfrwt>
<totfact> 0.27151192E+01</totfact>
</mgrwt>
</event>
<event>
 6    1  0.2236204E-005  0.1050930E+04  0.7818608E-02  0.9254385E-01
         -1   -1    0    0    0  501 -0.00000000000E+00  0.00000000000E+00  0.37583530967E+03  0.37583530967E+03  0.00000000000E+00 0.  1.
          1   -1    0    0  501    0  0.00000000000E+00 -0.00000000000E+00 -0.73466557615E+03  0.73466557615E+03  0.00000000000E+00 0. -1.
         23    2    1    2    0    0  0.47650106561E+03 -0.20035238287E+03 -0.25563459800E+03  0.58339208411E+03  0.88334213418E+02 0.  0.
         13    1    3    3    0    0  0.31703663836E+03 -0.15183844488E+03 -0.13048640018E+03  0.37495845642E+03  0.00000000000E+00 0.  1.
        -13    1    3    3    0    0  0.15946442726E+03 -0.48513937990E+02 -0.12514819781E+03  0.20843362770E+03  0.00000000000E+00 0. -1.
         22    1    1    2    0    0 -0.47650106561E+03  0.20035238287E+03 -0.10319566849E+03  0.52710880172E+03  0.00000000000E+00 0. -1.
<mgrwt>
<rscale>  0 0.10509296E+04</rscale>
<asrwt>0</asrwt>
<pdfrwt beam="1">  1        1 0.11302547E+00 0.10509296E+04</pdfrwt>
<pdfrwt beam="2">  1       -1 0.57820818E-01 0.10509296E+04</pdfrwt>
<totfact> 0.76607839E+01</totfact>
</mgrwt>
</event>
<event>
 6    1  0.2236204E-005  0.6621525E+04  0.7818608E-02  0.7617779E-01
         -2   -1    0    0    0  501 -0.00000000000E+00  0.00000000000E+00  0.19960233577E+04  0.19960233577E+04  0.00000000000E+00 0.  1.
          2   -1    0    0  501    0  0.00000000000E+00 -0.00000000000E+00 -0.54914928042E+04  0.54914928042E+04  0.00000000000E+00 0. -1.
         23    2    1    2    0    0  0.74611196669E+03 -0.25490288586E+04  0.48626541780E+03  0.27012395592E+04  0.77523611425E+02 0.  0.
         11    1    3    3    0    0  0.25894643673E+03 -0.76056323503E+03  0.15437825805E+03  0.81813344763E+03  0.00000000000E+00 0.  1.
        -11    1    3    3    0    0  0.48716552996E+03 -0.17884656236E+04  0.33188715975E+03  0.18831061115E+04  0.00000000000E+00 0. -1.
         22    1    1    2    0    0 -0.74611196669E+03  0.25490288586E+04 -0.39817348642E+04  0.47862766028E+04  0.00000000000E+00 0. -1.
<mgrwt>
<rscale>  0 0.66215249E+04</rscale>
<asrwt>0</asrwt>
<pdfrwt beam="1">  1        2 0.84484503E+00 0.66215249E+04</pdfrwt>
<pdfrwt beam="2">  1       -2 0.30708052E+00 0.66215249E+04</pdfrwt>
<totfact> 0.10996952E-04</totfact>
</mgrwt>
</event>
<event>
 6    1  0.2236204E-005  0.4406356E+04  0.7818608E-02  0.7927239E-01
          2   -1    0    0  501    0  0.00000000000E+00  0.00000000000E+00  0.31244911341E+04  0.31244911341E+04  0.00000000000E+00 0. -1.
         -2   -1    0    0    0  501 -0.00000000000E+00 -0.00000000000E+00 -0.15535306426E+04  0.15535306426E+04  0.00000000000E+00 0.  1.
         23    2    1    2    0    0  0.15633410804E+04 -0.52989286702E+03  0.23332900398E+04  0.28597896341E+04  0.96605162297E+02 0.  0.
         13    1    3    3    0    0  0.12264107762E+04 -0.44923724651E+03  0.18032795883E+04  0.22265926366E+04  0.00000000000E+00 0. -1.
        -13    1    3    3    0    0  0.33693030420E+03 -0.80655620508E+02  0.53001045145E+03  0.63319699750E+03  0.00000000000E+00 0.  1.
         22    1    1    2    0    0 -0.15633410804E+04  0.52989286702E+03 -0.76232954832E+03  0.18182321426E+04  0.00000000000E+00 0.  1.
<mgrwt>
<rscale>  0 0.44063557E+04</rscale>
<asrwt>0</asrwt>
<pdfrwt beam="1">  1        2 0.48069094E+00 0.44063557E+04</pdfrwt>
<pdfrwt beam="2">  1       -2 0.23900472E+00 0.44063557E+04</pdfrwt>
<totfact> 0.83189007E-02</totfact>
</mgrwt>
</event>
<event>
 6    1  0.2236204E-005  0.3833317E+04  0.7818608E-02  0.8039043E-01
          2   -1    0    0  501    0  0.00000000000E+00  0.00000000000E+00  0.20674985064E+04  0.20674985064E+04  0.00000000000E+00 0.  1.
         -2   -1    0    0    0  501 -0.00000000000E+00 -0.00000000000E+00 -0.17768231050E+04  0.17768231050E+04  0.00000000000E+00 0. -1.
         23    2    1    2    0    0 -0.78093455452E+03 -0.77003273287E+03 -0.14295776543E+04  0.18042040256E+04  0.93009183182E+02 0.  0.
         13    1    3    3    0    0 -0.44460848720E+03 -0.37825409511E+03 -0.78787016052E+03  0.98055711573E+03  0.00000000000E+00 0.  1.
        -13    1    3    3    0    0 -0.33632606731E+03 -0.39177863776E+03 -0.64170749382E+03  0.82364690990E+03  0.00000000000E+00 0. -1.
         22    1    1    2    0    0  0.78093455452E+03  0.77003273287E+03  0.17202530557E+04  0.20401175858E+04  0.00000000000E+00 0.  1.
<mgrwt>
<rscale>  0 0.38333166E+04</rscale>
<asrwt>0</asrwt>
<pdfrwt beam="1">  1        2 0.31807669E+00 0.38333166E+04</pdfrwt>
<pdfrwt beam="2">  1       -2 0.27335740E+00 0.38333166E+04</pdfrwt>
<totfact> 0.22651286E-01</totfact>
</mgrwt>
</event>
<event>
 6    1  0.2236204E-005  0.3192180E+04  0.7818608E-02  0.8190885E-01
          2   -1    0    0  501    0  0.00000000000E+00  0.00000000000E+00  0.11235595832E+04  0.11235595832E+04  0.00000000000E+00 0. -1.
         -2   -1    0    0    0  501 -0.00000000000E+00 -0.00000000000E+00 -0.22673506332E+04  0.22673506332E+04  0.00000000000E+00 0.  1.
         23    2    1    2    0    0  0.14547570068E+04 -0.64666791425E+03 -0.47332301399E+03  0.16634772286E+04  0.92868048588E+02 0.  0.
         11    1    3    3    0    0  0.74403281296E+03 -0.31601649187E+03 -0.28664333358E+03  0.85768038952E+03  0.00000000000E+00 0. -1.
        -11    1    3    3    0    0  0.71072419381E+03 -0.33065142238E+03 -0.18667968041E+03  0.80579683908E+03  0.00000000000E+00 0.  1.
         22    1    1    2    0    0 -0.14547570068E+04  0.64666791425E+03 -0.67046803594E+03  0.17274329878E+04  0.00000000000E+00 0.  1.
<mgrwt>
<rscale>  0 0.31921802E+04</rscale>
<asrwt>0</asrwt>
<pdfrwt beam="1">  1        2 0.17285532E+00 0.31921802E+04</pdfrwt>
<pdfrwt beam="2">  1       -2 0.34882318E+00 0.31921802E+04</pdfrwt>
<totfact> 0.28087683E-01</totfact>
</mgrwt>
</event>
<event>
 6    1  0.2236204E-005  0.2981714E+04  0.7818608E-02  0.8248972E-01
          2   -1    0    0  501    0  0.00000000000E+00  0.00000000000E+00  0.26658915094E+04  0.26658915094E+04  0.00000000000E+00 0. -1.
         -2   -1    0    0    0  501 -0.00000000000E+00 -0.00000000000E+00 -0.83373799963E+03  0.83373799963E+03  0.00000000000E+00 0.  1.
         23    2    1    2    0    0  0.85327152752E+03 -0.10508923000E+03  0.23440680927E+04  0.24990433877E+04  0.10698871135E+03 0.  0.
         13    1    3    3    0    0  0.39739296273E+03 -0.89323827561E+02  0.10043469605E+04  0.10837955204E+04  0.00000000000E+00 0.  1.
        -13    1    3    3    0    0  0.45587856479E+03 -0.15765402442E+02  0.13397211322E+04  0.14152478673E+04  0.00000000000E+00 0. -1.
         22    1    1    2    0    0 -0.85327152752E+03  0.10508923000E+03 -0.51191458296E+03  0.10005861213E+04  0.00000000000E+00 0.  1.
<mgrwt>
<rscale>  0 0.29817143E+04</rscale>
<asrwt>0</asrwt>
<pdfrwt beam="1">  1        2 0.41013715E+00 0.29817143E+04</pdfrwt>
<pdfrwt beam="2">  1       -2 0.12826739E+00 0.29817143E+04</pdfrwt>
<totfact> 0.10714073E+00</totfact>
</mgrwt>
</event>
<event>
 6    1  0.2236204E-005  0.1681945E+04  0.7818608E-02  0.8771729E-01
         -2   -1    0    0    0  501 -0.00000000000E+00  0.00000000000E+00  0.52573034309E+03  0.52573034309E+03  0.00000000000E+00 0.  1.
          2   -1    0    0  501    0  0.00000000000E+00 -0.00000000000E+00 -0.13452423586E+04  0.13452423586E+04  0.00000000000E+00 0. -1.
         23    2    1    2    0    0  0.36156118367E+03  0.63944339396E+03 -0.86063901294E+03  0.11352378490E+04  0.91929971115E+02 0.  0.
         13    1    3    3    0    0  0.30965696158E+03  0.48420808133E+03 -0.70223669440E+03  0.90745869043E+03  0.00000000000E+00 0.  1.
        -13    1    3    3    0    0  0.51904222090E+02  0.15523531263E+03 -0.15840231854E+03  0.22777915856E+03  0.00000000000E+00 0. -1.
         22    1    1    2    0    0 -0.36156118367E+03 -0.63944339396E+03  0.41126997383E+02  0.73573485273E+03  0.00000000000E+00 0.  1.
<mgrwt>
<rscale>  0 0.16819450E+04</rscale>
<asrwt>0</asrwt>
<pdfrwt beam="1">  1        2 0.20696036E+00 0.16819450E+04</pdfrwt>
<pdfrwt beam="2">  1       -2 0.80881593E-01 0.16819450E+04</pdfrwt>
<totfact> 0.19996695E+01</totfact>
</mgrwt>
</event>
<event>
 6    1  0.2236204E-005  0.1780987E+04  0.7818608E-02  0.8716476E-01
         -2   -1    0    0    0  501 -0.00000000000E+00  0.00000000000E+00  0.40773136070E+03  0.40773136070E+03  0.00000000000E+00 0.  1.
          2   -1    0    0  501    0  0.00000000000E+00 -0.00000000000E+00 -0.19448561776E+04  0.19448561776E+04  0.00000000000E+00 0. -1.
         23    2    1    2    0    0  0.70446850645E+03 -0.17296067960E+03 -0.94999759953E+02  0.73830257179E+03  0.99370316740E+02 0.  0.
         11    1    3    3    0    0  0.26336545912E+03 -0.46877134483E+02 -0.80303829163E+02  0.27929829174E+03  0.00000000000E+00 0.  1.
        -11    1    3    3    0    0  0.44110304733E+03 -0.12608354511E+03 -0.14695930790E+02  0.45900428004E+03  0.00000000000E+00 0. -1.
         22    1    1    2    0    0 -0.70446850645E+03  0.17296067960E+03 -0.14421250569E+04  0.16142849665E+04  0.00000000000E+00 0. -1.
<mgrwt>
<rscale>  0 0.17809872E+04</rscale>
<asrwt>0</asrwt>
<pdfrwt beam="1">  1        2 0.29920864E+00 0.17809872E+04</pdfrwt>
<pdfrwt beam="2">  1       -2 0.62727902E-01 0.17809872E+04</pdfrwt>
<totfact> 0.15973123E+01</totfact>
</mgrwt>
</event>
<event>
 6    1  0.2236204E-005  0.1689557E+04  0.7818608E-02  0.8767343E-01
          2   -1    0    0  501    0  0.00000000000E+00  0.00000000000E+00  0.15694222392E+04  0.15694222392E+04  0.00000000000E+00 0. -1.
         -2   -1    0    0    0  501 -0.00000000000E+00 -0.00000000000E+00 -0.45472200027E+03  0.45472200027E+03  0.00000000000E+00 0.  1.
         23    2    1    2    0    0  0.72574719022E+03 -0.19941834946E+03  0.10568696311E+03  0.76534145389E+03  0.90006359015E+02 0.  0.
         11    1    3    3    0    0  0.24121111696E+03 -0.54941288259E+02  0.76227359564E+02  0.25886668083E+03  0.00000000000E+00 0.  1.
        -11    1    3    3    0    0  0.48453607326E+03 -0.14447706120E+03  0.29459603548E+02  0.50647477306E+03  0.00000000000E+00 0. -1.
         22    1    1    2    0    0 -0.72574719022E+03  0.19941834946E+03  0.10090132758E+04  0.12588027856E+04  0.00000000000E+00 0. -1.
<mgrwt>
<rscale>  0 0.16895571E+04</rscale>
<asrwt>0</asrwt>
<pdfrwt beam="1">  1        2 0.24144957E+00 0.16895571E+04</pdfrwt>
<pdfrwt beam="2">  1       -2 0.69957232E-01 0.16895571E+04</pdfrwt>
<totfact> 0.20562816E+01</totfact>
</mgrwt>
</event>
<event>
 6    1  0.2236204E-005  0.2283133E+04  0.7818608E-02  0.8484601E-01
         -2   -1    0    0    0  501 -0.00000000000E+00  0.00000000000E+00  0.50561703507E+03  0.50561703507E+03  0.00000000000E+00 0.  1.
          2   -1    0    0  501    0  0.00000000000E+00 -0.00000000000E+00 -0.25773934539E+04  0.25773934539E+04  0.00000000000E+00 0. -1.
         23    2    1    2    0    0  0.10095716024E+04  0.52828746975E+03 -0.10025300706E+04  0.15204452185E+04  0.91458455495E+02 0.  0.
         13    1    3    3    0    0  0.55459144309E+03  0.33935814974E+03 -0.55379051945E+03  0.85406063132E+03  0.00000000000E+00 0. -1.
        -13    1    3    3    0    0  0.45498015931E+03  0.18892932001E+03 -0.44873955112E+03  0.66638458720E+03  0.00000000000E+00 0.  1.
         22    1    1    2    0    0 -0.10095716024E+04 -0.52828746975E+03 -0.10692463482E+04  0.15625652704E+04  0.00000000000E+00 0. -1.
<mgrwt>
<rscale>  0 0.22831330E+04</rscale>
<asrwt>0</asrwt>
<pdfrwt beam="1">  1        2 0.39652208E+00 0.22831330E+04</pdfrwt>
<pdfrwt beam="2">  1       -2 0.77787234E-01 0.22831330E+04</pdfrwt>
<totfact> 0.41936225E+00</totfact>
</mgrwt>
</event>
<event>
 6    1  0.2236204E-005  0.3984410E+04  0.7818608E-02  0.8007699E-01
         -2   -1    0    0    0  501 -0.00000000000E+00  0.00000000000E+00  0.17517998733E+04  0.17517998733E+04  0.00000000000E+00 0. -1.
          2   -1    0    0  501    0  0.00000000000E+00 -0.00000000000E+00 -0.22656014955E+04  0.22656014955E+04  0.00000000000E+00 0.  1.
         23    2    1    2    0    0 -0.15440057764E+04  0.14023179233E+03 -0.15169311023E+04  0.21708132862E+04  0.87929296525E+02 0.  0.
         11    1    3    3    0    0 -0.13298439684E+04  0.11401076940E+03 -0.13457257155E+04  0.18953788901E+04  0.00000000000E+00 0.  1.
        -11    1    3    3    0    0 -0.21416180804E+03  0.26221022924E+02 -0.17120538677E+03  0.27543439604E+03  0.00000000000E+00 0. -1.
         22    1    1    2    0    0  0.15440057764E+04 -0.14023179233E+03  0.10031294800E+04  0.18465880826E+04  0.00000000000E+00 0. -1.
<mgrwt>
<rscale>  0 0.39844098E+04</rscale>
<asrwt>0</asrwt>
<pdfrwt beam="1">  1        2 0.34855408E+00 0.39844098E+04</pdfrwt>
<pdfrwt beam="2">  1       -2 0.26950767E+00 0.39844098E+04</pdfrwt>
<totfact> 0.18280322E-01</totfact>
</mgrwt>
</event>
<event>
 6    1  0.2236204E-005  0.1740766E+04  0.7818608E-02  0.8738450E-01
          2   -1    0    0  501    0  0.00000000000E+00  0.00000000000E+00  0.18443525050E+04  0.18443525050E+04  0.00000000000E+00 0. -1.
         -2   -1    0    0    0  501 -0.00000000000E+00 -0.00000000000E+00 -0.41074921908E+03  0.41074921908E+03  0.00000000000E+00 0.  1.
         23    2    1    2    0    0  0.18218465842E+03 -0.32436422745E+03 -0.29684504257E+03  0.48511448700E+03  0.93891876026E+02 0.  0.
         11    1    3    3    0    0  0.11560192077E+03 -0.23707154226E+03 -0.15564487211E+03  0.30625487172E+03  0.00000000000E+00 0.  1.
        -11    1    3    3    0    0  0.66582737651E+02 -0.87292685189E+02 -0.14120017046E+03  0.17885961528E+03  0.00000000000E+00 0. -1.
         22    1    1    2    0    0 -0.18218465842E+03  0.32436422745E+03  0.17304483285E+04  0.17699872370E+04  0.00000000000E+00 0. -1.
<mgrwt>
<rscale>  0 0.17407658E+04</rscale>
<asrwt>0</asrwt>
<pdfrwt beam="1">  1        2 0.28374653E+00 0.17407658E+04</pdfrwt>
<pdfrwt beam="2">  1       -2 0.63192189E-01 0.17407658E+04</pdfrwt>
<totfact> 0.17935395E+01</totfact>
</mgrwt>
</event>
<event>
 6    1  0.2236204E-005  0.3376841E+04  0.7818608E-02  0.8143614E-01
         -2   -1    0    0    0  501 -0.00000000000E+00  0.00000000000E+00  0.87739992744E+03  0.87739992744E+03  0.00000000000E+00 0.  1.
          2   -1    0    0  501    0  0.00000000000E+00 -0.00000000000E+00 -0.32491033044E+04  0.32491033044E+04  0.00000000000E+00 0. -1.
         23    2    1    2    0    0  0.10438186002E+03 -0.10887443019E+03 -0.32402040629E+04  0.32450030017E+04  0.91503535382E+02 0.  0.
         13    1    3    3    0    0  0.39666865672E+02 -0.28906489909E+01 -0.14257008569E+04  0.14262554993E+04  0.00000000000E+00 0.  1.
        -13    1    3    3    0    0  0.64714994349E+02 -0.10598378120E+03 -0.18145032061E+04  0.18187475023E+04  0.00000000000E+00 0. -1.
         22    1    1    2    0    0 -0.10438186002E+03  0.10887443019E+03  0.86850068599E+03  0.88150023018E+03  0.00000000000E+00 0.  1.
<mgrwt>
<rscale>  0 0.33768405E+04</rscale>
<asrwt>0</asrwt>
<pdfrwt beam="1">  1        2 0.49986205E+00 0.33768405E+04</pdfrwt>
<pdfrwt beam="2">  1       -2 0.13498460E+00 0.33768405E+04</pdfrwt>
<totfact> 0.39392253E-01</totfact>
</mgrwt>
</event>
<event>
 6    1  0.2236204E-005  0.5009257E+03  0.7818608E-02  0.1013538E+00
         -2   -1    0    0    0  501 -0.00000000000E+00  0.00000000000E+00  0.28936012439E+03  0.28936012439E+03  0.00000000000E+00 0. -1.
          2   -1    0    0  501    0  0.00000000000E+00 -0.00000000000E+00 -0.21679433865E+03  0.21679433865E+03  0.00000000000E+00 0.  1.
         23    2    1    2    0    0  0.67738057435E+02  0.22759228183E+02  0.27163056858E+03  0.29465218252E+03  0.89052321610E+02 0.  0.
         11    1    3    3    0    0  0.17546183710E+02  0.41138577355E+02  0.51890256576E+02  0.68504378234E+02  0.00000000000E+00 0.  1.
        -11    1    3    3    0    0  0.50191873725E+02 -0.18379349173E+02  0.21974031201E+03  0.22614780429E+03  0.00000000000E+00 0. -1.
         22    1    1    2    0    0 -0.67738057435E+02 -0.22759228183E+02 -0.19906478284E+03  0.21150228051E+03  0.00000000000E+00 0.  1.
<mgrwt>
<rscale>  0 0.50092569E+03</rscale>
<asrwt>0</asrwt>
<pdfrwt beam="1">  1        2 0.33352975E-01 0.50092569E+03</pdfrwt>
<pdfrwt beam="2">  1       -2 0.44516942E-01 0.50092569E+03</pdfrwt>
<totfact> 0.75912168E+02</totfact>
</mgrwt>
</event>
<event>
 6    1  0.2635655E-005  0.1920820E+04  0.7818608E-02  0.8644562E-01
          1   -1    0    0  501    0  0.00000000000E+00  0.00000000000E+00  0.15755893119E+04  0.15755893119E+04  0.00000000000E+00 0. -1.
         -1   -1    0    0    0  501 -0.00000000000E+00 -0.00000000000E+00 -0.58542361681E+03  0.58542361681E+03  0.00000000000E+00 0.  1.
         23    2    1    2    0    0 -0.92733333295E+03 -0.24048355407E+03  0.51955510001E+03  0.10936546091E+04  0.91451910559E+02 0.  0.
         11    1    3    3    0    0 -0.64108267446E+03 -0.19976455004E+03  0.33259301784E+03  0.74934036756E+03  0.00000000000E+00 0.  1.
        -11    1    3    3    0    0 -0.28625065849E+03 -0.40719004034E+02  0.18696208218E+03  0.34431424157E+03  0.00000000000E+00 0. -1.
         22    1    1    2    0    0  0.92733333295E+03  0.24048355407E+03  0.47061059509E+03  0.10673583196E+04  0.00000000000E+00 0.  1.
<mgrwt>
<rscale>  0 0.19208198E+04</rscale>
<asrwt>0</asrwt>
<pdfrwt beam="1">  1        1 0.24239835E+00 0.19208198E+04</pdfrwt>
<pdfrwt beam="2">  1       -1 0.90065172E-01 0.19208198E+04</pdfrwt>
<totfact> 0.65326300E+00</totfact>
</mgrwt>
</event>
<event>
 6    1  0.2236204E-005  0.4266677E+04  0.7818608E-02  0.7952809E-01
         -2   -1    0    0    0  501 -0.00000000000E+00  0.00000000000E+00  0.22040968581E+04  0.22040968581E+04  0.00000000000E+00 0.  1.
          2   -1    0    0  501    0  0.00000000000E+00 -0.00000000000E+00 -0.20648521693E+04  0.20648521693E+04  0.00000000000E+00 0. -1.
         23    2    1    2    0    0 -0.16148576939E+04  0.91528886432E+03 -0.98033271636E+03  0.21012376436E+04  0.92888769400E+02 0.  0.
         11    1    3    3    0    0 -0.10768681547E+04  0.62476572601E+03 -0.70435506304E+03  0.14304171733E+04  0.00000000000E+00 0.  1.
        -11    1    3    3    0    0 -0.53798953926E+03  0.29052313831E+03 -0.27597765333E+03  0.67082047031E+03  0.00000000000E+00 0. -1.
         22    1    1    2    0    0  0.16148576939E+04 -0.91528886432E+03  0.11195774051E+04  0.21677113837E+04  0.00000000000E+00 0.  1.
<mgrwt>
<rscale>  0 0.42666775E+04</rscale>
<asrwt>0</asrwt>
<pdfrwt beam="1">  1        2 0.31766956E+00 0.42666775E+04</pdfrwt>
<pdfrwt beam="2">  1       -2 0.33909182E+00 0.42666775E+04</pdfrwt>
<totfact> 0.86466666E-02</totfact>
</mgrwt>
</event>
<event>
 6    1  0.2236204E-005  0.3180470E+04  0.7818608E-02  0.8193994E-01
          2   -1    0    0  501    0  0.00000000000E+00  0.00000000000E+00  0.29550415352E+04  0.29550415352E+04  0.00000000000E+00 0.  1.
         -2   -1    0    0    0  501 -0.00000000000E+00 -0.00000000000E+00 -0.85577368632E+03  0.85577368632E+03  0.00000000000E+00 0. -1.
         23    2    1    2    0    0  0.10490257046E+04 -0.36730552151E+03 -0.31009402523E+03  0.11574413475E+04  0.90243521392E+02 0.  0.
         11    1    3    3    0    0  0.43462244372E+03 -0.18285889855E+03 -0.96260169430E+02  0.48124844476E+03  0.00000000000E+00 0. -1.
        -11    1    3    3    0    0  0.61440326093E+03 -0.18444662297E+03 -0.21383385581E+03  0.67619290269E+03  0.00000000000E+00 0.  1.
         22    1    1    2    0    0 -0.10490257046E+04  0.36730552151E+03  0.24093618741E+04  0.26533738740E+04  0.00000000000E+00 0.  1.
<mgrwt>
<rscale>  0 0.31804696E+04</rscale>
<asrwt>0</asrwt>
<pdfrwt beam="1">  1        2 0.45462177E+00 0.31804696E+04</pdfrwt>
<pdfrwt beam="2">  1       -2 0.13165749E+00 0.31804696E+04</pdfrwt>
<totfact> 0.65842255E-01</totfact>
</mgrwt>
</event>
<event>
 6    1  0.2236204E-005  0.1556591E+04  0.7818608E-02  0.8847668E-01
          2   -1    0    0  501    0  0.00000000000E+00  0.00000000000E+00  0.39427882486E+04  0.39427882486E+04  0.00000000000E+00 0. -1.
         -2   -1    0    0    0  501 -0.00000000000E+00 -0.00000000000E+00 -0.15363346590E+03  0.15363346590E+03  0.00000000000E+00 0.  1.
         23    2    1    2    0    0 -0.67058207964E+03 -0.26672693724E+03  0.11527585653E+04  0.13630339631E+04  0.90474803233E+02 0.  0.
         11    1    3    3    0    0 -0.65251738955E+03 -0.24310009994E+03  0.11197384001E+04  0.13185942086E+04  0.00000000000E+00 0. -1.
        -11    1    3    3    0    0 -0.18064690093E+02 -0.23626837300E+02  0.33020165219E+02  0.44439754500E+02  0.00000000000E+00 0.  1.
         22    1    1    2    0    0  0.67058207964E+03  0.26672693724E+03  0.26363962174E+04  0.27333877515E+04  0.00000000000E+00 0. -1.
<mgrwt>
<rscale>  0 0.15565914E+04</rscale>
<asrwt>0</asrwt>
<pdfrwt beam="1">  1        2 0.60658273E+00 0.15565914E+04</pdfrwt>
<pdfrwt beam="2">  1       -2 0.23635921E-01 0.15565914E+04</pdfrwt>
<totfact> 0.59297616E+00</totfact>
</mgrwt>
</event>
<event>
 6    1  0.2236204E-005  0.2723220E+04  0.7818608E-02  0.8327510E-01
         -2   -1    0    0    0  501 -0.00000000000E+00  0.00000000000E+00  0.16635512272E+04  0.16635512272E+04  0.00000000000E+00 0.  1.
          2   -1    0    0  501    0  0.00000000000E+00 -0.00000000000E+00 -0.11144721242E+04  0.11144721242E+04  0.00000000000E+00 0. -1.
         23    2    1    2    0    0  0.14470604414E+02 -0.11204973451E+04  0.10609740326E+04  0.15460492779E+04  0.94227240751E+02 0.  0.
         13    1    3    3    0    0  0.33677497971E+02 -0.10695099062E+04  0.10115488962E+04  0.14724865985E+04  0.00000000000E+00 0.  1.
        -13    1    3    3    0    0 -0.19206893557E+02 -0.50987438947E+02  0.49425136419E+02  0.73562679400E+02  0.00000000000E+00 0. -1.
         22    1    1    2    0    0 -0.14470604414E+02  0.11204973451E+04 -0.51189492958E+03  0.12319740735E+04  0.00000000000E+00 0. -1.
<mgrwt>
<rscale>  0 0.27232198E+04</rscale>
<asrwt>0</asrwt>
<pdfrwt beam="1">  1        2 0.17145725E+00 0.27232198E+04</pdfrwt>
<pdfrwt beam="2">  1       -2 0.25593096E+00 0.27232198E+04</pdfrwt>
<totfact> 0.11042682E+00</totfact>
</mgrwt>
</event>
<event>
 6    1  0.2236204E-005  0.2659006E+04  0.7818608E-02  0.8348430E-01
          2   -1    0    0  501    0  0.00000000000E+00  0.00000000000E+00  0.24409693916E+04  0.24409693916E+04  0.00000000000E+00 0.  1.
         -2   -1    0    0    0  501 -0.00000000000E+00 -0.00000000000E+00 -0.72412973510E+03  0.72412973510E+03  0.00000000000E+00 0. -1.
         23    2    1    2    0    0 -0.44774912073E+03 -0.12502263510E+04  0.85741873366E+03  0.15832807027E+04  0.89809213733E+02 0.  0.
         11    1    3    3    0    0 -0.34037749591E+03 -0.10265287479E+04  0.66855722499E+03  0.12714506963E+04  0.00000000000E+00 0. -1.
        -11    1    3    3    0    0 -0.10737162481E+03 -0.22369760312E+03  0.18886150867E+03  0.31183000643E+03  0.00000000000E+00 0.  1.
         22    1    1    2    0    0  0.44774912073E+03  0.12502263510E+04  0.85942092284E+03  0.15818184240E+04  0.00000000000E+00 0.  1.
<mgrwt>
<rscale>  0 0.26590062E+04</rscale>
<asrwt>0</asrwt>
<pdfrwt beam="1">  1        2 0.37553375E+00 0.26590062E+04</pdfrwt>
<pdfrwt beam="2">  1       -2 0.11140458E+00 0.26590062E+04</pdfrwt>
<totfact> 0.21113797E+00</totfact>
</mgrwt>
</event>
<event>
 6    1  0.2236204E-005  0.5290301E+04  0.7818608E-02  0.7785222E-01
         -1   -1    0    0    0  501 -0.00000000000E+00  0.00000000000E+00  0.25183591143E+04  0.25183591143E+04  0.00000000000E+00 0.  1.
          1   -1    0    0  501    0  0.00000000000E+00 -0.00000000000E+00 -0.27783251563E+04  0.27783251563E+04  0.00000000000E+00 0. -1.
         23    2    1    2    0    0  0.20117153685E+04 -0.16384828381E+04  0.38127121680E+03  0.26240806792E+04  0.93845275013E+02 0.  0.
         13    1    3    3    0    0  0.13436072166E+04 -0.11287008881E+04  0.29302685441E+03  0.17790758232E+04  0.00000000000E+00 0.  1.
        -13    1    3    3    0    0  0.66810815194E+03 -0.50978194998E+03  0.88244362389E+02  0.84500485603E+03  0.00000000000E+00 0. -1.
         22    1    1    2    0    0 -0.20117153685E+04  0.16384828381E+04 -0.64123725877E+03  0.26726035914E+04  0.00000000000E+00 0. -1.
<mgrwt>
<rscale>  0 0.52903007E+04</rscale>
<asrwt>0</asrwt>
<pdfrwt beam="1">  1        1 0.42743464E+00 0.52903007E+04</pdfrwt>
<pdfrwt beam="2">  1       -1 0.38743986E+00 0.52903007E+04</pdfrwt>
<totfact> 0.53111833E-03</totfact>
</mgrwt>
</event>
<event>
 6    1  0.2236204E-005  0.2541763E+04  0.7818608E-02  0.8388256E-01
          2   -1    0    0  501    0  0.00000000000E+00  0.00000000000E+00  0.14866080400E+04  0.14866080400E+04  0.00000000000E+00 0. -1.
         -2   -1    0    0    0  501 -0.00000000000E+00 -0.00000000000E+00 -0.10864597742E+04  0.10864597742E+04  0.00000000000E+00 0.  1.
         23    2    1    2    0    0 -0.26388999247E+03 -0.92819797639E+03 -0.63431488833E+03  0.11583934952E+04  0.91272672533E+02 0.  0.
         13    1    3    3    0    0 -0.21602932472E+03 -0.69457724849E+03 -0.51853928357E+03  0.89330241903E+03  0.00000000000E+00 0. -1.
        -13    1    3    3    0    0 -0.47860667748E+02 -0.23362072790E+03 -0.11577560477E+03  0.26509107620E+03  0.00000000000E+00 0.  1.
         22    1    1    2    0    0  0.26388999247E+03  0.92819797639E+03  0.10344631541E+04  0.14146743189E+04  0.00000000000E+00 0.  1.
<mgrwt>
<rscale>  0 0.25417630E+04</rscale>
<asrwt>0</asrwt>
<pdfrwt beam="1">  1        2 0.22870893E+00 0.25417630E+04</pdfrwt>
<pdfrwt beam="2">  1       -2 0.16714766E+00 0.25417630E+04</pdfrwt>
<totfact> 0.25651634E+00</totfact>
</mgrwt>
</event>
<event>
 6    1  0.2236204E-005  0.2793999E+04  0.7818608E-02  0.8305134E-01
         -2   -1    0    0    0  501 -0.00000000000E+00  0.00000000000E+00  0.84023604305E+03  0.84023604305E+03  0.00000000000E+00 0.  1.
          2   -1    0    0  501    0  0.00000000000E+00 -0.00000000000E+00 -0.23226904632E+04  0.23226904632E+04  0.00000000000E+00 0. -1.
         23    2    1    2    0    0  0.69405338391E+03  0.10952247136E+04 -0.15785444906E+03  0.13093374589E+04  0.90660251569E+02 0.  0.
         13    1    3    3    0    0  0.62604374080E+03  0.96098978667E+03 -0.16477113378E+03  0.11586982618E+04  0.00000000000E+00 0. -1.
        -13    1    3    3    0    0  0.68009643109E+02  0.13423492693E+03  0.69166847192E+01  0.15063919706E+03  0.00000000000E+00 0.  1.
         22    1    1    2    0    0 -0.69405338391E+03 -0.10952247136E+04 -0.13245999711E+04  0.18535890473E+04  0.00000000000E+00 0. -1.
<mgrwt>
<rscale>  0 0.27939995E+04</rscale>
<asrwt>0</asrwt>
<pdfrwt beam="1">  1        2 0.35733699E+00 0.27939995E+04</pdfrwt>
<pdfrwt beam="2">  1       -2 0.12926708E+00 0.27939995E+04</pdfrwt>
<totfact> 0.16877673E+00</totfact>
</mgrwt>
</event>
<event>
 6    1  0.2236204E-005  0.9585785E+03  0.7818608E-02  0.9355179E-01
         -2   -1    0    0    0  501 -0.00000000000E+00  0.00000000000E+00  0.30851266350E+03  0.30851266350E+03  0.00000000000E+00 0.  1.
          2   -1    0    0  501    0  0.00000000000E+00 -0.00000000000E+00 -0.74459888999E+03  0.74459888999E+03  0.00000000000E+00 0. -1.
         23    2    1    2    0    0  0.36204407078E+03 -0.25087061081E+03 -0.24513099900E+02  0.45028121990E+03  0.90223679677E+02 0.  0.
         13    1    3    3    0    0  0.66824923034E+02 -0.27722793778E+02  0.25800316475E+02  0.76810025150E+02  0.00000000000E+00 0. -1.
        -13    1    3    3    0    0  0.29521914774E+03 -0.22314781704E+03 -0.50313416374E+02  0.37347119475E+03  0.00000000000E+00 0.  1.
         22    1    1    2    0    0 -0.36204407078E+03  0.25087061081E+03 -0.41157312660E+03  0.60283033359E+03  0.00000000000E+00 0. -1.
<mgrwt>
<rscale>  0 0.95857850E+03</rscale>
<asrwt>0</asrwt>
<pdfrwt beam="1">  1        2 0.11455367E+00 0.95857850E+03</pdfrwt>
<pdfrwt beam="2">  1       -2 0.47463487E-01 0.95857850E+03</pdfrwt>
<totfact> 0.15929531E+02</totfact>
</mgrwt>
</event>
<event>
 6    1  0.2236204E-005  0.2700264E+04  0.7818608E-02  0.8334919E-01
         -2   -1    0    0    0  501 -0.00000000000E+00  0.00000000000E+00  0.56598255319E+03  0.56598255319E+03  0.00000000000E+00 0.  1.
          2   -1    0    0  501    0  0.00000000000E+00 -0.00000000000E+00 -0.32206944024E+04  0.32206944024E+04  0.00000000000E+00 0. -1.
         23    2    1    2    0    0 -0.30959286392E+03 -0.45484158820E+03  0.39827210223E+03  0.68451003237E+03  0.84880535184E+02 0.  0.
         13    1    3    3    0    0 -0.13339661720E+03 -0.18862807868E+03  0.21922005359E+03  0.31848491556E+03  0.00000000000E+00 0. -1.
        -13    1    3    3    0    0 -0.17619624672E+03 -0.26621350952E+03  0.17905204864E+03  0.36602511681E+03  0.00000000000E+00 0.  1.
         22    1    1    2    0    0  0.30959286392E+03  0.45484158820E+03 -0.30529839515E+04  0.31021669232E+04  0.00000000000E+00 0. -1.
<mgrwt>
<rscale>  0 0.27002643E+04</rscale>
<asrwt>0</asrwt>
<pdfrwt beam="1">  1        2 0.49549145E+00 0.27002643E+04</pdfrwt>
<pdfrwt beam="2">  1       -2 0.87074239E-01 0.27002643E+04</pdfrwt>
<totfact> 0.12572102E+00</totfact>
</mgrwt>
</event>
<event>
 6    1  0.2236204E-005  0.1340957E+04  0.7818608E-02  0.8997702E-01
          2   -1    0    0  501    0  0.00000000000E+00  0.00000000000E+00  0.75340835783E+03  0.75340835783E+03  0.00000000000E+00 0. -1.
         -2   -1    0    0    0  501 -0.00000000000E+00 -0.00000000000E+00 -0.59667654898E+03  0.59667654898E+03  0.00000000000E+00 0.  1.
         23    2    1    2    0    0 -0.15630571746E+02  0.35451579800E+03 -0.49022845380E+03  0.61219375816E+03  0.92366091246E+02 0.  0.
         13    1    3    3    0    0  0.26477108689E+02  0.72430359987E+02 -0.14639328017E+03  0.16546355130E+03  0.00000000000E+00 0. -1.
        -13    1    3    3    0    0 -0.42107680435E+02  0.28208543802E+03 -0.34383517363E+03  0.44673020686E+03  0.00000000000E+00 0.  1.
         22    1    1    2    0    0  0.15630571746E+02 -0.35451579800E+03  0.64696026264E+03  0.73789114864E+03  0.00000000000E+00 0. -1.
<mgrwt>
<rscale>  0 0.13409565E+04</rscale>
<asrwt>0</asrwt>
<pdfrwt beam="1">  1        2 0.11590898E+00 0.13409565E+04</pdfrwt>
<pdfrwt beam="2">  1       -2 0.91796391E-01 0.13409565E+04</pdfrwt>
<totfact> 0.36797314E+01</totfact>
</mgrwt>
</event>
<event>
 6    1  0.2236204E-005  0.4329036E+04  0.7818608E-02  0.7941271E-01
         -2   -1    0    0    0  501 -0.00000000000E+00  0.00000000000E+00  0.31007674250E+04  0.31007674250E+04  0.00000000000E+00 0. -1.
          2   -1    0    0  501    0  0.00000000000E+00 -0.00000000000E+00 -0.15109609415E+04  0.15109609415E+04  0.00000000000E+00 0.  1.
         23    2    1    2    0    0  0.38896794338E+03 -0.96089358687E+03 -0.12277679981E+04  0.16095061054E+04  0.92103746063E+02 0.  0.
         11    1    3    3    0    0  0.12087077398E+03 -0.41916339615E+03 -0.50805651275E+03  0.66964850244E+03  0.00000000000E+00 0. -1.
        -11    1    3    3    0    0  0.26809716940E+03 -0.54173019072E+03 -0.71971148531E+03  0.93985760297E+03  0.00000000000E+00 0.  1.
         22    1    1    2    0    0 -0.38896794338E+03  0.96089358687E+03  0.28175744815E+04  0.30022222611E+04  0.00000000000E+00 0. -1.
<mgrwt>
<rscale>  0 0.43290361E+04</rscale>
<asrwt>0</asrwt>
<pdfrwt beam="1">  1        2 0.23245553E+00 0.43290361E+04</pdfrwt>
<pdfrwt beam="2">  1       -2 0.47704114E+00 0.43290361E+04</pdfrwt>
<totfact> 0.22226936E-02</totfact>
</mgrwt>
</event>
<event>
 6    1  0.2236204E-005  0.2119690E+04  0.7818608E-02  0.8552619E-01
         -2   -1    0    0    0  501 -0.00000000000E+00  0.00000000000E+00  0.14998658855E+04  0.14998658855E+04  0.00000000000E+00 0.  1.
          2   -1    0    0  501    0  0.00000000000E+00 -0.00000000000E+00 -0.74891463252E+03  0.74891463252E+03  0.00000000000E+00 0. -1.
         23    2    1    2    0    0 -0.48907520991E+03  0.27738390215E+03  0.13268191214E+04  0.14439450120E+04  0.91606913460E+02 0.  0.
         11    1    3    3    0    0 -0.13338851345E+03  0.34636563051E+02  0.36391067989E+03  0.38913130169E+03  0.00000000000E+00 0. -1.
        -11    1    3    3    0    0 -0.35568669647E+03  0.24274733910E+03  0.96290844148E+03  0.10548137103E+04  0.00000000000E+00 0.  1.
         22    1    1    2    0    0  0.48907520991E+03 -0.27738390215E+03 -0.57586786834E+03  0.80483550612E+03  0.00000000000E+00 0. -1.
<mgrwt>
<rscale>  0 0.21196901E+04</rscale>
<asrwt>0</asrwt>
<pdfrwt beam="1">  1        2 0.11521764E+00 0.21196901E+04</pdfrwt>
<pdfrwt beam="2">  1       -2 0.23074860E+00 0.21196901E+04</pdfrwt>
<totfact> 0.29226377E+00</totfact>
</mgrwt>
</event>
<event>
 6    1  0.2236204E-005  0.3271643E+04  0.7818608E-02  0.8170149E-01
         -2   -1    0    0    0  501 -0.00000000000E+00  0.00000000000E+00  0.17454428744E+04  0.17454428744E+04  0.00000000000E+00 0. -1.
          2   -1    0    0  501    0  0.00000000000E+00 -0.00000000000E+00 -0.15330844318E+04  0.15330844318E+04  0.00000000000E+00 0.  1.
         23    2    1    2    0    0  0.23788169297E+03 -0.12512974094E+04 -0.91976206965E+03  0.15744059018E+04  0.10226813957E+03 0.  0.
         11    1    3    3    0    0  0.92884239901E+02 -0.54115369282E+03 -0.45805265433E+03  0.71504338009E+03  0.00000000000E+00 0.  1.
        -11    1    3    3    0    0  0.14499745307E+03 -0.71014371659E+03 -0.46170941531E+03  0.85936252175E+03  0.00000000000E+00 0. -1.
         22    1    1    2    0    0 -0.23788169297E+03  0.12512974094E+04  0.11321205122E+04  0.17041214043E+04  0.00000000000E+00 0.  1.
<mgrwt>
<rscale>  0 0.32716426E+04</rscale>
<asrwt>0</asrwt>
<pdfrwt beam="1">  1        2 0.23585914E+00 0.32716426E+04</pdfrwt>
<pdfrwt beam="2">  1       -2 0.26852967E+00 0.32716426E+04</pdfrwt>
<totfact> 0.50367031E-01</totfact>
</mgrwt>
</event>
<event>
 6    1  0.2236204E-005  0.1355992E+04  0.7818608E-02  0.8986305E-01
          2   -1    0    0  501    0  0.00000000000E+00  0.00000000000E+00  0.13941765676E+04  0.13941765676E+04  0.00000000000E+00 0. -1.
         -2   -1    0    0    0  501 -0.00000000000E+00 -0.00000000000E+00 -0.32971329536E+03  0.32971329536E+03  0.00000000000E+00 0.  1.
         23    2    1    2    0    0  0.42434911790E+03  0.12033129928E+03 -0.11456766254E+03  0.46505479012E+03  0.92727628400E+02 0.  0.
         11    1    3    3    0    0  0.25597091667E+03  0.11384951651E+03 -0.92979780631E+02  0.29517463000E+03  0.00000000000E+00 0. -1.
        -11    1    3    3    0    0  0.16837820123E+03  0.64817827636E+01 -0.21587881907E+02  0.16988016012E+03  0.00000000000E+00 0.  1.
         22    1    1    2    0    0 -0.42434911790E+03 -0.12033129928E+03  0.11790309347E+04  0.12588350728E+04  0.00000000000E+00 0. -1.
<mgrwt>
<rscale>  0 0.13559920E+04</rscale>
<asrwt>0</asrwt>
<pdfrwt beam="1">  1        2 0.21448870E+00 0.13559920E+04</pdfrwt>
<pdfrwt beam="2">  1       -2 0.50725123E-01 0.13559920E+04</pdfrwt>
<totfact> 0.52302030E+01</totfact>
</mgrwt>
</event>
<event>
 6    1  0.2236204E-005  0.2480230E+04  0.7818608E-02  0.8410063E-01
          2   -1    0    0  501    0  0.00000000000E+00  0.00000000000E+00  0.12882246412E+04  0.12882246412E+04  0.00000000000E+00 0. -1.
         -2   -1    0    0    0  501 -0.00000000000E+00 -0.00000000000E+00 -0.11938017018E+04  0.11938017018E+04  0.00000000000E+00 0.  1.
         23    2    1    2    0    0  0.12383321569E+04  0.39868268502E+01  0.38456485725E+02  0.12424237173E+04  0.93034222687E+02 0.  0.
         11    1    3    3    0    0  0.25184143779E+03  0.35952175573E+02  0.21013711253E+02  0.25526113057E+03  0.00000000000E+00 0.  1.
        -11    1    3    3    0    0  0.98649071907E+03 -0.31965348723E+02  0.17442774472E+02  0.98716258677E+03  0.00000000000E+00 0. -1.
         22    1    1    2    0    0 -0.12383321569E+04 -0.39868268502E+01  0.55966453639E+02  0.12396026256E+04  0.00000000000E+00 0. -1.
<mgrwt>
<rscale>  0 0.24802296E+04</rscale>
<asrwt>0</asrwt>
<pdfrwt beam="1">  1        2 0.19818841E+00 0.24802296E+04</pdfrwt>
<pdfrwt beam="2">  1       -2 0.18366180E+00 0.24802296E+04</pdfrwt>
<totfact> 0.25675136E+00</totfact>
</mgrwt>
</event>
<event>
 6    1  0.2236204E-005  0.3211311E+04  0.7818608E-02  0.8185836E-01
         -2   -1    0    0    0  501 -0.00000000000E+00  0.00000000000E+00  0.10677751933E+04  0.10677751933E+04  0.00000000000E+00 0.  1.
          2   -1    0    0  501    0  0.00000000000E+00 -0.00000000000E+00 -0.24144877054E+04  0.24144877054E+04  0.00000000000E+00 0. -1.
         23    2    1    2    0    0  0.99653270815E+03 -0.10135435304E+04  0.13311352065E+03  0.14303776647E+04  0.88955763185E+02 0.  0.
         13    1    3    3    0    0  0.58982084938E+03 -0.55230120719E+03  0.10448565596E+03  0.81476530985E+03  0.00000000000E+00 0. -1.
        -13    1    3    3    0    0  0.40671185877E+03 -0.46124232325E+03  0.28627864687E+02  0.61561235486E+03  0.00000000000E+00 0.  1.
         22    1    1    2    0    0 -0.99653270815E+03  0.10135435304E+04 -0.14798260327E+04  0.20518852340E+04  0.00000000000E+00 0. -1.
<mgrwt>
<rscale>  0 0.32113113E+04</rscale>
<asrwt>0</asrwt>
<pdfrwt beam="1">  1        2 0.37145964E+00 0.32113113E+04</pdfrwt>
<pdfrwt beam="2">  1       -2 0.16427311E+00 0.32113113E+04</pdfrwt>
<totfact> 0.76882295E-01</totfact>
</mgrwt>
</event>
<event>
 6    1  0.2236204E-005  0.4564242E+04  0.7818608E-02  0.7899485E-01
          1   -1    0    0  501    0  0.00000000000E+00  0.00000000000E+00  0.21719150253E+04  0.21719150253E+04  0.00000000000E+00 0. -1.
         -1   -1    0    0    0  501 -0.00000000000E+00 -0.00000000000E+00 -0.23979194744E+04  0.23979194744E+04  0.00000000000E+00 0.  1.
         23    2    1    2    0    0 -0.56683963893E+03 -0.22038932147E+04  0.47136775366E+02  0.22778793068E+04  0.89776292136E+02 0.  0.
         13    1    3    3    0    0 -0.27261862873E+03 -0.88529878838E+03  0.11952349046E+02  0.92640041024E+03  0.00000000000E+00 0.  1.
        -13    1    3    3    0    0 -0.29422101020E+03 -0.13185944263E+04  0.35184426319E+02  0.13514788965E+04  0.00000000000E+00 0. -1.
         22    1    1    2    0    0  0.56683963893E+03  0.22038932147E+04 -0.27314122442E+03  0.22919551929E+04  0.00000000000E+00 0. -1.
<mgrwt>
<rscale>  0 0.45642425E+04</rscale>
<asrwt>0</asrwt>
<pdfrwt beam="1">  1        1 0.33414078E+00 0.45642425E+04</pdfrwt>
<pdfrwt beam="2">  1       -1 0.36891069E+00 0.45642425E+04</pdfrwt>
<totfact> 0.19774799E-02</totfact>
</mgrwt>
</event>
<event>
 6    1  0.2236204E-005  0.3517473E+04  0.7818608E-02  0.8109661E-01
         -2   -1    0    0    0  501 -0.00000000000E+00  0.00000000000E+00  0.12220924060E+04  0.12220924060E+04  0.00000000000E+00 0.  1.
          2   -1    0    0  501    0  0.00000000000E+00 -0.00000000000E+00 -0.25310318581E+04  0.25310318581E+04  0.00000000000E+00 0. -1.
         23    2    1    2    0    0  0.14529328907E+04 -0.57375257217E+03 -0.15142879960E+04  0.21775691164E+04  0.92374904926E+02 0.  0.
         11    1    3    3    0    0  0.10365510112E+04 -0.39378300158E+03 -0.11284695195E+04  0.15820703232E+04  0.00000000000E+00 0.  1.
        -11    1    3    3    0    0  0.41638187948E+03 -0.17996957059E+03 -0.38581847648E+03  0.59549879319E+03  0.00000000000E+00 0. -1.
         22    1    1    2    0    0 -0.14529328907E+04  0.57375257217E+03  0.20534854401E+03  0.15755551477E+04  0.00000000000E+00 0.  1.
<mgrwt>
<rscale>  0 0.35174734E+04</rscale>
<asrwt>0</asrwt>
<pdfrwt beam="1">  1        2 0.38938951E+00 0.35174734E+04</pdfrwt>
<pdfrwt beam="2">  1       -2 0.18801422E+00 0.35174734E+04</pdfrwt>
<totfact> 0.43795601E-01</totfact>
</mgrwt>
</event>
<event>
 6    1  0.2236204E-005  0.2881920E+04  0.7818608E-02  0.8278277E-01
         -2   -1    0    0    0  501 -0.00000000000E+00  0.00000000000E+00  0.10717059048E+04  0.10717059048E+04  0.00000000000E+00 0.  1.
          2   -1    0    0  501    0  0.00000000000E+00 -0.00000000000E+00 -0.19374399029E+04  0.19374399029E+04  0.00000000000E+00 0. -1.
         23    2    1    2    0    0  0.37184364830E+03  0.12177327660E+04 -0.11339452684E+04  0.17079624718E+04  0.10081242582E+03 0.  0.
         11    1    3    3    0    0  0.34919634573E+02  0.18722945559E+03 -0.20982269573E+03  0.28337221734E+03  0.00000000000E+00 0. -1.
        -11    1    3    3    0    0  0.33692401373E+03  0.10305033104E+04 -0.92412257272E+03  0.14245902545E+04  0.00000000000E+00 0.  1.
         22    1    1    2    0    0 -0.37184364830E+03 -0.12177327660E+04  0.26821127031E+03  0.13011833359E+04  0.00000000000E+00 0.  1.
<mgrwt>
<rscale>  0 0.28819200E+04</rscale>
<asrwt>0</asrwt>
<pdfrwt beam="1">  1        2 0.29806768E+00 0.28819200E+04</pdfrwt>
<pdfrwt beam="2">  1       -2 0.16487783E+00 0.28819200E+04</pdfrwt>
<totfact> 0.14515975E+00</totfact>
</mgrwt>
</event>
<event>
 6    1  0.2236204E-005  0.1913464E+04  0.7818608E-02  0.8648183E-01
          2   -1    0    0  501    0  0.00000000000E+00  0.00000000000E+00  0.83404195613E+03  0.83404195613E+03  0.00000000000E+00 0. -1.
         -2   -1    0    0    0  501 -0.00000000000E+00 -0.00000000000E+00 -0.10974704584E+04  0.10974704584E+04  0.00000000000E+00 0.  1.
         23    2    1    2    0    0  0.69307801317E+03 -0.68739723951E+02 -0.79080642147E+03  0.10578936467E+04  0.93176657061E+02 0.  0.
         13    1    3    3    0    0  0.47391904533E+03 -0.87673720731E+02 -0.56530224047E+03  0.74286779841E+03  0.00000000000E+00 0.  1.
        -13    1    3    3    0    0  0.21915896784E+03  0.18933996780E+02 -0.22550418100E+03  0.31502584825E+03  0.00000000000E+00 0. -1.
         22    1    1    2    0    0 -0.69307801317E+03  0.68739723951E+02  0.52737791917E+03  0.87361876789E+03  0.00000000000E+00 0. -1.
<mgrwt>
<rscale>  0 0.19134643E+04</rscale>
<asrwt>0</asrwt>
<pdfrwt beam="1">  1        2 0.12831415E+00 0.19134643E+04</pdfrwt>
<pdfrwt beam="2">  1       -2 0.16884161E+00 0.19134643E+04</pdfrwt>
<totfact> 0.66160777E+00</totfact>
</mgrwt>
</event>
<event>
 6    1  0.2236204E-005  0.7522576E+03  0.7818608E-02  0.9631815E-01
          2   -1    0    0  501    0  0.00000000000E+00  0.00000000000E+00  0.16547479648E+03  0.16547479648E+03  0.00000000000E+00 0. -1.
         -2   -1    0    0    0  501 -0.00000000000E+00 -0.00000000000E+00 -0.85495117436E+03  0.85495117436E+03  0.00000000000E+00 0.  1.
         23    2    1    2    0    0 -0.70777822182E+02 -0.28504484339E+03 -0.65646605521E+03  0.72487606937E+03  0.90761067883E+02 0.  0.
         11    1    3    3    0    0 -0.38221138248E+02 -0.22099421815E+03 -0.40053545809E+03  0.45905114426E+03  0.00000000000E+00 0.  1.
        -11    1    3    3    0    0 -0.32556683934E+02 -0.64050625236E+02 -0.25593059713E+03  0.26582492511E+03  0.00000000000E+00 0. -1.
         22    1    1    2    0    0  0.70777822182E+02  0.28504484339E+03 -0.33010322666E+02  0.29554990147E+03  0.00000000000E+00 0. -1.
<mgrwt>
<rscale>  0 0.75225759E+03</rscale>
<asrwt>0</asrwt>
<pdfrwt beam="1">  1        2 0.25457661E-01 0.75225759E+03</pdfrwt>
<pdfrwt beam="2">  1       -2 0.13153095E+00 0.75225759E+03</pdfrwt>
<totfact> 0.91352337E+01</totfact>
</mgrwt>
</event>
<event>
 6    1  0.2236204E-005  0.4212276E+04  0.7818608E-02  0.7963041E-01
         -2   -1    0    0    0  501 -0.00000000000E+00  0.00000000000E+00  0.13206044013E+04  0.13206044013E+04  0.00000000000E+00 0.  1.
          2   -1    0    0  501    0  0.00000000000E+00 -0.00000000000E+00 -0.33589291816E+04  0.33589291816E+04  0.00000000000E+00 0. -1.
         23    2    1    2    0    0 -0.11231530848E+04  0.17234094246E+04 -0.52279683511E+03  0.21244527918E+04  0.91488998998E+02 0.  0.
         11    1    3    3    0    0 -0.64963291085E+03  0.10240859980E+04 -0.35192055890E+03  0.12627838809E+04  0.00000000000E+00 0.  1.
        -11    1    3    3    0    0 -0.47352017391E+03  0.69932342663E+03 -0.17087627621E+03  0.86166891084E+03  0.00000000000E+00 0. -1.
         22    1    1    2    0    0  0.11231530848E+04 -0.17234094246E+04 -0.15155279451E+04  0.25550807911E+04  0.00000000000E+00 0. -1.
<mgrwt>
<rscale>  0 0.42122757E+04</rscale>
<asrwt>0</asrwt>
<pdfrwt beam="1">  1        2 0.51675834E+00 0.42122757E+04</pdfrwt>
<pdfrwt beam="2">  1       -2 0.20316991E+00 0.42122757E+04</pdfrwt>
<totfact> 0.99831978E-02</totfact>
</mgrwt>
</event>
<event>
 6    1  0.2236204E-005  0.2883904E+04  0.7818608E-02  0.8277683E-01
         -1   -1    0    0    0  501 -0.00000000000E+00  0.00000000000E+00  0.11097118154E+04  0.11097118154E+04  0.00000000000E+00 0.  1.
          1   -1    0    0  501    0  0.00000000000E+00 -0.00000000000E+00 -0.18736629240E+04  0.18736629240E+04  0.00000000000E+00 0. -1.
         23    2    1    2    0    0 -0.11079951772E+04 -0.82330278614E+03 -0.80844009621E+03  0.16022664668E+04  0.90562967133E+02 0.  0.
         13    1    3    3    0    0 -0.23293157729E+03 -0.18457326017E+03 -0.13315007326E+03  0.32565833335E+03  0.00000000000E+00 0. -1.
        -13    1    3    3    0    0 -0.87506359995E+03 -0.63872952597E+03 -0.67529002295E+03  0.12766081335E+04  0.00000000000E+00 0.  1.
         22    1    1    2    0    0  0.11079951772E+04  0.82330278614E+03  0.44488987580E+02  0.13811082725E+04  0.00000000000E+00 0. -1.
<mgrwt>
<rscale>  0 0.28839042E+04</rscale>
<asrwt>0</asrwt>
<pdfrwt beam="1">  1        1 0.28825583E+00 0.28839042E+04</pdfrwt>
<pdfrwt beam="2">  1       -1 0.17072490E+00 0.28839042E+04</pdfrwt>
<totfact> 0.75850011E-01</totfact>
</mgrwt>
</event>
<event>
 6    1  0.2236204E-005  0.2525358E+04  0.7818608E-02  0.8394007E-01
          2   -1    0    0  501    0  0.00000000000E+00  0.00000000000E+00  0.82831876145E+03  0.82831876145E+03  0.00000000000E+00 0. -1.
         -2   -1    0    0    0  501 -0.00000000000E+00 -0.00000000000E+00 -0.19248130752E+04  0.19248130752E+04  0.00000000000E+00 0.  1.
         23    2    1    2    0    0  0.18186346653E+03 -0.86663081608E+03 -0.15279032454E+04  0.17681257666E+04  0.87504898750E+02 0.  0.
         11    1    3    3    0    0  0.96904675404E+02 -0.28855067184E+03 -0.48143700795E+03  0.56959072935E+03  0.00000000000E+00 0. -1.
        -11    1    3    3    0    0  0.84958791127E+02 -0.57808014424E+03 -0.10464662374E+04  0.11985350372E+04  0.00000000000E+00 0.  1.
         22    1    1    2    0    0 -0.18186346653E+03  0.86663081608E+03  0.43140893162E+03  0.98500607009E+03  0.00000000000E+00 0. -1.
<mgrwt>
<rscale>  0 0.25253584E+04</rscale>
<asrwt>0</asrwt>
<pdfrwt beam="1">  1        2 0.12743366E+00 0.25253584E+04</pdfrwt>
<pdfrwt beam="2">  1       -2 0.29612509E+00 0.25253584E+04</pdfrwt>
<totfact> 0.98225654E-01</totfact>
</mgrwt>
</event>
<event>
 6    1  0.2236204E-005  0.6030895E+04  0.7818608E-02  0.7686583E-01
         -2   -1    0    0    0  501 -0.00000000000E+00  0.00000000000E+00  0.31534250404E+04  0.31534250404E+04  0.00000000000E+00 0.  1.
          2   -1    0    0  501    0  0.00000000000E+00 -0.00000000000E+00 -0.28835071550E+04  0.28835071550E+04  0.00000000000E+00 0. -1.
         23    2    1    2    0    0  0.19459633529E+04  0.10360014073E+03 -0.21676127269E+04  0.29161851941E+04  0.89915474053E+02 0.  0.
         13    1    3    3    0    0  0.16663076055E+04  0.68358635933E+02 -0.18170380720E+04  0.24663497916E+04  0.00000000000E+00 0. -1.
        -13    1    3    3    0    0  0.27965574736E+03  0.35241504798E+02 -0.35057465488E+03  0.44983540250E+03  0.00000000000E+00 0.  1.
         22    1    1    2    0    0 -0.19459633529E+04 -0.10360014073E+03  0.24375306124E+04  0.31207470013E+04  0.00000000000E+00 0.  1.
<mgrwt>
<rscale>  0 0.60308950E+04</rscale>
<asrwt>0</asrwt>
<pdfrwt beam="1">  1        2 0.44361648E+00 0.60308950E+04</pdfrwt>
<pdfrwt beam="2">  1       -2 0.48514232E+00 0.60308950E+04</pdfrwt>
<totfact> 0.28521612E-03</totfact>
</mgrwt>
</event>
<event>
 6    1  0.2236204E-005  0.3337880E+04  0.7818608E-02  0.8153323E-01
          2   -1    0    0  501    0  0.00000000000E+00  0.00000000000E+00  0.18359011021E+04  0.18359011021E+04  0.00000000000E+00 0. -1.
         -2   -1    0    0    0  501 -0.00000000000E+00 -0.00000000000E+00 -0.15171631225E+04  0.15171631225E+04  0.00000000000E+00 0.  1.
         23    2    1    2    0    0 -0.23851897671E+03  0.35487550201E+03  0.17788318118E+04  0.18316497765E+04  0.88715078335E+02 0.  0.
         11    1    3    3    0    0 -0.41342130045E+02  0.92579506305E+02  0.29404111204E+03  0.31103104712E+03  0.00000000000E+00 0. -1.
        -11    1    3    3    0    0 -0.19717684667E+03  0.26229599570E+03  0.14847906997E+04  0.15206187294E+04  0.00000000000E+00 0.  1.
         22    1    1    2    0    0  0.23851897671E+03 -0.35487550201E+03 -0.14600938321E+04  0.15214144481E+04  0.00000000000E+00 0.  1.
<mgrwt>
<rscale>  0 0.33378804E+04</rscale>
<asrwt>0</asrwt>
<pdfrwt beam="1">  1        2 0.28244632E+00 0.33378804E+04</pdfrwt>
<pdfrwt beam="2">  1       -2 0.23340971E+00 0.33378804E+04</pdfrwt>
<totfact> 0.55866553E-01</totfact>
</mgrwt>
</event>
<event>
 6    1  0.2236204E-005  0.6497263E+03  0.7818608E-02  0.9807293E-01
          2   -1    0    0  501    0  0.00000000000E+00  0.00000000000E+00  0.51580370249E+03  0.51580370249E+03  0.00000000000E+00 0. -1.
         -2   -1    0    0    0  501 -0.00000000000E+00 -0.00000000000E+00 -0.20460511630E+03  0.20460511630E+03  0.00000000000E+00 0.  1.
         23    2    1    2    0    0 -0.17437249789E+03 -0.22733281252E+03  0.31206190754E+03  0.43390101610E+03  0.93816213791E+02 0.  0.
         13    1    3    3    0    0 -0.11608559263E+03 -0.89476379149E+02  0.19470903888E+03  0.24370781084E+03  0.00000000000E+00 0. -1.
        -13    1    3    3    0    0 -0.58286905266E+02 -0.13785643337E+03  0.11735286866E+03  0.19019320527E+03  0.00000000000E+00 0.  1.
         22    1    1    2    0    0  0.17437249789E+03  0.22733281252E+03 -0.86332134571E+00  0.28650780268E+03  0.00000000000E+00 0.  1.
<mgrwt>
<rscale>  0 0.64972633E+03</rscale>
<asrwt>0</asrwt>
<pdfrwt beam="1">  1        2 0.79354415E-01 0.64972633E+03</pdfrwt>
<pdfrwt beam="2">  1       -2 0.31477710E-01 0.64972633E+03</pdfrwt>
<totfact> 0.55994891E+02</totfact>
</mgrwt>
</event>
<event>
 6    1  0.2702979E-005  0.4245630E+04  0.7818608E-02  0.7956749E-01
          2   -1    0    0  501    0  0.00000000000E+00  0.00000000000E+00  0.20509336230E+04  0.20509336230E+04  0.00000000000E+00 0. -1.
         -2   -1    0    0    0  501 -0.00000000000E+00 -0.00000000000E+00 -0.21972152520E+04  0.21972152520E+04  0.00000000000E+00 0.  1.
         23    2    1    2    0    0 -0.31835307209E+03  0.65908268758E+03  0.19195220588E+04  0.20565094102E+04  0.94484668898E+02 0.  0.
         11    1    3    3    0    0 -0.11205749117E+03  0.23162717532E+03  0.80527075820E+03  0.84538099321E+03  0.00000000000E+00 0. -1.
        -11    1    3    3    0    0 -0.20629558092E+03  0.42745551226E+03  0.11142513006E+04  0.12111284170E+04  0.00000000000E+00 0.  1.
         22    1    1    2    0    0  0.31835307209E+03 -0.65908268758E+03 -0.20658036878E+04  0.21916394649E+04  0.00000000000E+00 0.  1.
<mgrwt>
<rscale>  0 0.42456296E+04</rscale>
<asrwt>0</asrwt>
<pdfrwt beam="1">  1        2 0.31552825E+00 0.42456296E+04</pdfrwt>
<pdfrwt beam="2">  1       -2 0.33803311E+00 0.42456296E+04</pdfrwt>
<totfact> 0.89530774E-02</totfact>
</mgrwt>
</event>
<event>
 6    1  0.2236204E-005  0.4694073E+04  0.7818608E-02  0.7877514E-01
         -2   -1    0    0    0  501 -0.00000000000E+00  0.00000000000E+00  0.13577566027E+04  0.13577566027E+04  0.00000000000E+00 0.  1.
          2   -1    0    0  501    0  0.00000000000E+00 -0.00000000000E+00 -0.40571187746E+04  0.40571187746E+04  0.00000000000E+00 0. -1.
         23    2    1    2    0    0  0.10506793681E+04  0.14770616326E+04  0.36777815469E+03  0.18521533865E+04  0.97842705169E+02 0.  0.
         11    1    3    3    0    0  0.54206614789E+03  0.69994165769E+03  0.14570916123E+03  0.89720967033E+03  0.00000000000E+00 0. -1.
        -11    1    3    3    0    0  0.50861322018E+03  0.77711997494E+03  0.22206899346E+03  0.95494371617E+03  0.00000000000E+00 0.  1.
         22    1    1    2    0    0 -0.10506793681E+04 -0.14770616326E+04 -0.30671403266E+04  0.35627219909E+04  0.00000000000E+00 0. -1.
<mgrwt>
<rscale>  0 0.46940728E+04</rscale>
<asrwt>0</asrwt>
<pdfrwt beam="1">  1        2 0.62417211E+00 0.46940728E+04</pdfrwt>
<pdfrwt beam="2">  1       -2 0.20888563E+00 0.46940728E+04</pdfrwt>
<totfact> 0.26551187E-02</totfact>
</mgrwt>
</event>
<event>
 6    1  0.2236204E-005  0.2470043E+04  0.7818608E-02  0.8413736E-01
         -2   -1    0    0    0  501 -0.00000000000E+00  0.00000000000E+00  0.68017139650E+03  0.68017139650E+03  0.00000000000E+00 0.  1.
          2   -1    0    0  501    0  0.00000000000E+00 -0.00000000000E+00 -0.22424916202E+04  0.22424916202E+04  0.00000000000E+00 0. -1.
         23    2    1    2    0    0 -0.99368658372E+03  0.33822351163E+03 -0.15482546190E+04  0.18728982756E+04  0.94060697865E+02 0.  0.
         11    1    3    3    0    0 -0.79727319528E+03  0.24602070261E+03 -0.12790969941E+04  0.15271738128E+04  0.00000000000E+00 0. -1.
        -11    1    3    3    0    0 -0.19641338844E+03  0.92202809023E+02 -0.26915762489E+03  0.34572446281E+03  0.00000000000E+00 0.  1.
         22    1    1    2    0    0  0.99368658372E+03 -0.33822351163E+03 -0.14065604697E+02  0.10497647411E+04  0.00000000000E+00 0.  1.
<mgrwt>
<rscale>  0 0.24700434E+04</rscale>
<asrwt>0</asrwt>
<pdfrwt beam="1">  1        2 0.34499871E+00 0.24700434E+04</pdfrwt>
<pdfrwt beam="2">  1       -2 0.10464175E+00 0.24700434E+04</pdfrwt>
<totfact> 0.32376261E+00</totfact>
</mgrwt>
</event>
<event>
 6    1  0.2236204E-005  0.3908729E+03  0.7818608E-02  0.1046987E+00
          2   -1    0    0  501    0  0.00000000000E+00  0.00000000000E+00  0.75327563680E+03  0.75327563680E+03  0.00000000000E+00 0. -1.
         -2   -1    0    0    0  501 -0.00000000000E+00 -0.00000000000E+00 -0.50705749476E+02  0.50705749476E+02  0.00000000000E+00 0.  1.
         23    2    1    2    0    0 -0.10723994571E+03 -0.89239262217E+02  0.11894970661E+03  0.20391758366E+03  0.89270915451E+02 0.  0.
         11    1    3    3    0    0 -0.61951900454E+01 -0.42411549873E+01 -0.14410213835E+02  0.16248754970E+02  0.00000000000E+00 0.  1.
        -11    1    3    3    0    0 -0.10104475567E+03 -0.84998107230E+02  0.13335992045E+03  0.18766882869E+03  0.00000000000E+00 0. -1.
         22    1    1    2    0    0  0.10723994571E+03  0.89239262217E+02  0.58362018071E+03  0.60006380261E+03  0.00000000000E+00 0. -1.
<mgrwt>
<rscale>  0 0.39087290E+03</rscale>
<asrwt>0</asrwt>
<pdfrwt beam="1">  1        2 0.11588855E+00 0.39087290E+03</pdfrwt>
<pdfrwt beam="2">  1       -2 0.78008851E-02 0.39087290E+03</pdfrwt>
<totfact> 0.37867380E+03</totfact>
</mgrwt>
</event>
<event>
 6    1  0.2236204E-005  0.2147066E+04  0.7818608E-02  0.8540789E-01
          2   -1    0    0  501    0  0.00000000000E+00  0.00000000000E+00  0.14069281896E+04  0.14069281896E+04  0.00000000000E+00 0. -1.
         -2   -1    0    0    0  501 -0.00000000000E+00 -0.00000000000E+00 -0.81914123394E+03  0.81914123394E+03  0.00000000000E+00 0.  1.
         23    2    1    2    0    0 -0.70237787139E+03 -0.58853626639E+03  0.87037588558E+03  0.12671293241E+04  0.91394369194E+02 0.  0.
         13    1    3    3    0    0 -0.13308086329E+03 -0.15678113745E+03  0.21629367575E+03  0.29845233356E+03  0.00000000000E+00 0. -1.
        -13    1    3    3    0    0 -0.56929700810E+03 -0.43175512894E+03  0.65408220983E+03  0.96867699055E+03  0.00000000000E+00 0.  1.
         22    1    1    2    0    0  0.70237787139E+03  0.58853626639E+03 -0.28258892989E+03  0.95894009947E+03  0.00000000000E+00 0.  1.
<mgrwt>
<rscale>  0 0.21470658E+04</rscale>
<asrwt>0</asrwt>
<pdfrwt beam="1">  1        2 0.21645049E+00 0.21470658E+04</pdfrwt>
<pdfrwt beam="2">  1       -2 0.12602173E+00 0.21470658E+04</pdfrwt>
<totfact> 0.61848602E+00</totfact>
</mgrwt>
</event>
<event>
 6    1  0.2236204E-005  0.4786784E+03  0.7818608E-02  0.1019499E+00
         -2   -1    0    0    0  501 -0.00000000000E+00  0.00000000000E+00  0.15351947893E+03  0.15351947893E+03  0.00000000000E+00 0.  1.
          2   -1    0    0  501    0  0.00000000000E+00 -0.00000000000E+00 -0.37313346958E+03  0.37313346958E+03  0.00000000000E+00 0. -1.
         23    2    1    2    0    0 -0.17035223463E+03  0.10951160657E+03  0.81246908104E+01  0.22189471178E+03  0.90324839872E+02 0.  0.
         11    1    3    3    0    0 -0.15345627625E+02  0.19229455856E+00  0.27229934155E+02  0.31256912492E+02  0.00000000000E+00 0.  1.
        -11    1    3    3    0    0 -0.15500660701E+03  0.10931931201E+03 -0.19105243345E+02  0.19063779929E+03  0.00000000000E+00 0. -1.
         22    1    1    2    0    0  0.17035223463E+03 -0.10951160657E+03 -0.22773868146E+03  0.30475823673E+03  0.00000000000E+00 0. -1.
<mgrwt>
<rscale>  0 0.47867841E+03</rscale>
<asrwt>0</asrwt>
<pdfrwt beam="1">  1        2 0.57405149E-01 0.47867841E+03</pdfrwt>
<pdfrwt beam="2">  1       -2 0.23618382E-01 0.47867841E+03</pdfrwt>
<totfact> 0.13632646E+03</totfact>
</mgrwt>
</event>
<event>
 6    1  0.2236204E-005  0.2044776E+04  0.7818608E-02  0.8585968E-01
          2   -1    0    0  501    0  0.00000000000E+00  0.00000000000E+00  0.10522481360E+04  0.10522481360E+04  0.00000000000E+00 0. -1.
         -2   -1    0    0    0  501 -0.00000000000E+00 -0.00000000000E+00 -0.99337541335E+03  0.99337541335E+03  0.00000000000E+00 0.  1.
         23    2    1    2    0    0 -0.72604506441E+02 -0.35582290164E+03 -0.92441831535E+03  0.99741430636E+03  0.91677287750E+02 0.  0.
         13    1    3    3    0    0 -0.86198294146E+01 -0.19518068589E+03 -0.58009613988E+03  0.61211218997E+03  0.00000000000E+00 0.  1.
        -13    1    3    3    0    0 -0.63984677026E+02 -0.16064221575E+03 -0.34432217547E+03  0.38530211639E+03  0.00000000000E+00 0. -1.
         22    1    1    2    0    0  0.72604506441E+02  0.35582290164E+03  0.98329103801E+03  0.10482092430E+04  0.00000000000E+00 0. -1.
<mgrwt>
<rscale>  0 0.20447762E+04</rscale>
<asrwt>0</asrwt>
<pdfrwt beam="1">  1        2 0.16188433E+00 0.20447762E+04</pdfrwt>
<pdfrwt beam="2">  1       -2 0.15282699E+00 0.20447762E+04</pdfrwt>
<totfact> 0.61572229E+00</totfact>
</mgrwt>
</event>
<event>
 6    1  0.2236204E-005  0.2057141E+04  0.7818608E-02  0.8580362E-01
         -2   -1    0    0    0  501 -0.00000000000E+00  0.00000000000E+00  0.16828066211E+04  0.16828066211E+04  0.00000000000E+00 0.  1.
          2   -1    0    0  501    0  0.00000000000E+00 -0.00000000000E+00 -0.62868635366E+03  0.62868635366E+03  0.00000000000E+00 0. -1.
         23    2    1    2    0    0  0.35102149430E+03  0.82302366419E+03  0.10936788615E+04  0.14158653046E+04  0.89202394724E+02 0.  0.
         11    1    3    3    0    0  0.40976377712E+02  0.18927389233E+03  0.23741833115E+03  0.30638396468E+03  0.00000000000E+00 0.  1.
        -11    1    3    3    0    0  0.31004511659E+03  0.63374977186E+03  0.85626053037E+03  0.11094813399E+04  0.00000000000E+00 0. -1.
         22    1    1    2    0    0 -0.35102149430E+03 -0.82302366419E+03 -0.39558594076E+02  0.89562767021E+03  0.00000000000E+00 0.  1.
<mgrwt>
<rscale>  0 0.20571413E+04</rscale>
<asrwt>0</asrwt>
<pdfrwt beam="1">  1        2 0.96720978E-01 0.20571413E+04</pdfrwt>
<pdfrwt beam="2">  1       -2 0.25889332E+00 0.20571413E+04</pdfrwt>
<totfact> 0.24551334E+00</totfact>
</mgrwt>
</event>
<event>
 6    1  0.2236204E-005  0.1566965E+04  0.7818608E-02  0.8841104E-01
         -2   -1    0    0    0  501 -0.00000000000E+00  0.00000000000E+00  0.12644296186E+04  0.12644296186E+04  0.00000000000E+00 0.  1.
          2   -1    0    0  501    0  0.00000000000E+00 -0.00000000000E+00 -0.48547188982E+03  0.48547188982E+03  0.00000000000E+00 0. -1.
         23    2    1    2    0    0  0.76545851861E+03  0.15323873995E+03  0.41294480602E+03  0.88770993182E+03  0.89981415324E+02 0.  0.
         11    1    3    3    0    0  0.33360918374E+03  0.11239247083E+03  0.18665396750E+03  0.39845559170E+03  0.00000000000E+00 0. -1.
        -11    1    3    3    0    0  0.43184933487E+03  0.40846269116E+02  0.22629083852E+03  0.48925434012E+03  0.00000000000E+00 0.  1.
         22    1    1    2    0    0 -0.76545851861E+03 -0.15323873995E+03  0.36601292274E+03  0.86219157659E+03  0.00000000000E+00 0. -1.
<mgrwt>
<rscale>  0 0.15669653E+04</rscale>
<asrwt>0</asrwt>
<pdfrwt beam="1">  1        2 0.74687984E-01 0.15669653E+04</pdfrwt>
<pdfrwt beam="2">  1       -2 0.19452763E+00 0.15669653E+04</pdfrwt>
<totfact> 0.88469675E+00</totfact>
</mgrwt>
</event>
<event>
 6    1  0.2236204E-005  0.3928051E+04  0.7818608E-02  0.8019220E-01
          2   -1    0    0  501    0  0.00000000000E+00  0.00000000000E+00  0.21265419637E+04  0.21265419637E+04  0.00000000000E+00 0.  1.
         -2   -1    0    0    0  501 -0.00000000000E+00 -0.00000000000E+00 -0.18139289115E+04  0.18139289115E+04  0.00000000000E+00 0. -1.
         23    2    1    2    0    0  0.17554695733E+04  0.21116241044E+03 -0.69891155071E+03  0.19034522183E+04  0.91596972070E+02 0.  0.
         13    1    3    3    0    0  0.98172182217E+03  0.12634066976E+03 -0.34304869313E+03  0.10475791649E+04  0.00000000000E+00 0. -1.
        -13    1    3    3    0    0  0.77374775110E+03  0.84821740677E+02 -0.35586285758E+03  0.85587305334E+03  0.00000000000E+00 0.  1.
         22    1    1    2    0    0 -0.17554695733E+04 -0.21116241044E+03  0.10115246029E+04  0.20370186569E+04  0.00000000000E+00 0.  1.
<mgrwt>
<rscale>  0 0.39280509E+04</rscale>
<asrwt>0</asrwt>
<pdfrwt beam="1">  1        2 0.32716030E+00 0.39280509E+04</pdfrwt>
<pdfrwt beam="2">  1       -2 0.27906599E+00 0.39280509E+04</pdfrwt>
<totfact> 0.19225891E-01</totfact>
</mgrwt>
</event>
<event>
 6    1  0.2236204E-005  0.1361535E+04  0.7818608E-02  0.8982142E-01
          2   -1    0    0  501    0  0.00000000000E+00  0.00000000000E+00  0.16542787456E+04  0.16542787456E+04  0.00000000000E+00 0. -1.
         -2   -1    0    0    0  501 -0.00000000000E+00 -0.00000000000E+00 -0.28014878857E+03  0.28014878857E+03  0.00000000000E+00 0.  1.
         23    2    1    2    0    0  0.38073017646E+03 -0.51919677309E+03  0.39014700738E+03  0.75852651723E+03  0.92881825622E+02 0.  0.
         11    1    3    3    0    0  0.22464107337E+03 -0.37850058751E+03  0.25493325316E+03  0.50864257604E+03  0.00000000000E+00 0.  1.
        -11    1    3    3    0    0  0.15608910308E+03 -0.14069618557E+03  0.13521375422E+03  0.24988394119E+03  0.00000000000E+00 0. -1.
         22    1    1    2    0    0 -0.38073017646E+03  0.51919677309E+03  0.98398294967E+03  0.11759010170E+04  0.00000000000E+00 0.  1.
<mgrwt>
<rscale>  0 0.13615347E+04</rscale>
<asrwt>0</asrwt>
<pdfrwt beam="1">  1        2 0.25450442E+00 0.13615347E+04</pdfrwt>
<pdfrwt beam="2">  1       -2 0.43099815E-01 0.13615347E+04</pdfrwt>
<totfact> 0.51795369E+01</totfact>
</mgrwt>
</event>
<event>
 6    1  0.2236204E-005  0.2685843E+04  0.7818608E-02  0.8339613E-01
         -2   -1    0    0    0  501 -0.00000000000E+00  0.00000000000E+00  0.19465952897E+04  0.19465952897E+04  0.00000000000E+00 0.  1.
          2   -1    0    0  501    0  0.00000000000E+00 -0.00000000000E+00 -0.92645783064E+03  0.92645783064E+03  0.00000000000E+00 0. -1.
         23    2    1    2    0    0  0.25319608843E+01  0.37993505566E+03 -0.86542313551E+03  0.94959378541E+03  0.91728384192E+02 0.  0.
         13    1    3    3    0    0  0.38605129014E+02  0.21062770096E+03 -0.54178771576E+03  0.58257043638E+03  0.00000000000E+00 0.  1.
        -13    1    3    3    0    0 -0.36073168130E+02  0.16930735470E+03 -0.32363541975E+03  0.36702334903E+03  0.00000000000E+00 0. -1.
         22    1    1    2    0    0 -0.25319608843E+01 -0.37993505566E+03  0.18855605946E+04  0.19234593350E+04  0.00000000000E+00 0.  1.
<mgrwt>
<rscale>  0 0.26858432E+04</rscale>
<asrwt>0</asrwt>
<pdfrwt beam="1">  1        2 0.14253197E+00 0.26858432E+04</pdfrwt>
<pdfrwt beam="2">  1       -2 0.29947620E+00 0.26858432E+04</pdfrwt>
<totfact> 0.79152279E-01</totfact>
</mgrwt>
</event>
<event>
 6    1  0.2236204E-005  0.2837487E+04  0.7818608E-02  0.8291724E-01
         -2   -1    0    0    0  501 -0.00000000000E+00  0.00000000000E+00  0.84533590055E+03  0.84533590055E+03  0.00000000000E+00 0.  1.
          2   -1    0    0  501    0  0.00000000000E+00 -0.00000000000E+00 -0.23811040927E+04  0.23811040927E+04  0.00000000000E+00 0. -1.
         23    2    1    2    0    0 -0.20020621305E+01  0.77493403989E+03 -0.21180054470E+04  0.22571479860E+04  0.90791976787E+02 0.  0.
         13    1    3    3    0    0  0.23778413905E+00  0.11464396073E+03 -0.41728922372E+03  0.43275118776E+03  0.00000000000E+00 0.  1.
        -13    1    3    3    0    0 -0.22398462695E+01  0.66029007916E+03 -0.17007162232E+04  0.18243967983E+04  0.00000000000E+00 0. -1.
         22    1    1    2    0    0  0.20020621305E+01 -0.77493403989E+03  0.58223725480E+03  0.96929200724E+03  0.00000000000E+00 0.  1.
<mgrwt>
<rscale>  0 0.28374868E+04</rscale>
<asrwt>0</asrwt>
<pdfrwt beam="1">  1        2 0.36632370E+00 0.28374868E+04</pdfrwt>
<pdfrwt beam="2">  1       -2 0.13005168E+00 0.28374868E+04</pdfrwt>
<totfact> 0.15337977E+00</totfact>
</mgrwt>
</event>
<event>
 6    1  0.2236204E-005  0.5819199E+04  0.7818608E-02  0.7713232E-01
         -2   -1    0    0    0  501 -0.00000000000E+00  0.00000000000E+00  0.25131385831E+04  0.25131385831E+04  0.00000000000E+00 0.  1.
          2   -1    0    0  501    0  0.00000000000E+00 -0.00000000000E+00 -0.33686046827E+04  0.33686046827E+04  0.00000000000E+00 0. -1.
         23    2    1    2    0    0 -0.18395881906E+04 -0.21150195445E+04 -0.12134761329E+04  0.30558693181E+04  0.91763715102E+02 0.  0.
         11    1    3    3    0    0 -0.52547051780E+03 -0.59359553058E+03 -0.29906154211E+03  0.84729730613E+03  0.00000000000E+00 0. -1.
        -11    1    3    3    0    0 -0.13141176728E+04 -0.15214240139E+04 -0.91441459079E+03  0.22085720119E+04  0.00000000000E+00 0.  1.
         22    1    1    2    0    0  0.18395881906E+04  0.21150195445E+04  0.35801003336E+03  0.28258739478E+04  0.00000000000E+00 0.  1.
<mgrwt>
<rscale>  0 0.58191994E+04</rscale>
<asrwt>0</asrwt>
<pdfrwt beam="1">  1        2 0.51824687E+00 0.58191994E+04</pdfrwt>
<pdfrwt beam="2">  1       -2 0.38663671E+00 0.58191994E+04</pdfrwt>
<totfact> 0.61951328E-03</totfact>
</mgrwt>
</event>
<event>
 6    1  0.2236204E-005  0.2869588E+04  0.7818608E-02  0.8281984E-01
         -2   -1    0    0    0  501 -0.00000000000E+00  0.00000000000E+00  0.85170128674E+03  0.85170128674E+03  0.00000000000E+00 0.  1.
          2   -1    0    0  501    0  0.00000000000E+00 -0.00000000000E+00 -0.24170842797E+04  0.24170842797E+04  0.00000000000E+00 0. -1.
         23    2    1    2    0    0 -0.84367574076E+03 -0.14611610374E+03 -0.20929484860E+04  0.22630698905E+04  0.88956693520E+02 0.  0.
         11    1    3    3    0    0 -0.55306268552E+03 -0.53053398402E+02 -0.13350618950E+04  0.14460578345E+04  0.00000000000E+00 0. -1.
        -11    1    3    3    0    0 -0.29061305524E+03 -0.93062705337E+02 -0.75788659096E+03  0.81701205606E+03  0.00000000000E+00 0.  1.
         22    1    1    2    0    0  0.84367574076E+03  0.14611610374E+03  0.52756549300E+03  0.10057156759E+04  0.00000000000E+00 0.  1.
<mgrwt>
<rscale>  0 0.28695880E+04</rscale>
<asrwt>0</asrwt>
<pdfrwt beam="1">  1        2 0.37185911E+00 0.28695880E+04</pdfrwt>
<pdfrwt beam="2">  1       -2 0.13103097E+00 0.28695880E+04</pdfrwt>
<totfact> 0.14312709E+00</totfact>
</mgrwt>
</event>
<event>
 6    1  0.2236204E-005  0.2369622E+04  0.7818608E-02  0.8450965E-01
         -2   -1    0    0    0  501 -0.00000000000E+00  0.00000000000E+00  0.10516211716E+04  0.10516211716E+04  0.00000000000E+00 0.  1.
          2   -1    0    0  501    0  0.00000000000E+00 -0.00000000000E+00 -0.13348696404E+04  0.13348696404E+04  0.00000000000E+00 0. -1.
         23    2    1    2    0    0  0.64522258150E+03  0.15076191885E+03 -0.11288011715E+04  0.13122465618E+04  0.93582146637E+02 0.  0.
         13    1    3    3    0    0  0.38591836592E+03  0.13401711475E+03 -0.72106722536E+03  0.82875298834E+03  0.00000000000E+00 0. -1.
        -13    1    3    3    0    0  0.25930421559E+03  0.16744804096E+02 -0.40773394618E+03  0.48349357343E+03  0.00000000000E+00 0.  1.
         22    1    1    2    0    0 -0.64522258150E+03 -0.15076191885E+03  0.84555270282E+03  0.10742442502E+04  0.00000000000E+00 0.  1.
<mgrwt>
<rscale>  0 0.23696221E+04</rscale>
<asrwt>0</asrwt>
<pdfrwt beam="1">  1        2 0.20536456E+00 0.23696221E+04</pdfrwt>
<pdfrwt beam="2">  1       -2 0.16178787E+00 0.23696221E+04</pdfrwt>
<totfact> 0.34758347E+00</totfact>
</mgrwt>
</event>
<event>
 6    1  0.2236204E-005  0.1469429E+04  0.7818608E-02  0.8905041E-01
         -2   -1    0    0    0  501 -0.00000000000E+00  0.00000000000E+00  0.21722245350E+03  0.21722245350E+03  0.00000000000E+00 0.  1.
          2   -1    0    0  501    0  0.00000000000E+00 -0.00000000000E+00 -0.24850337933E+04  0.24850337933E+04  0.00000000000E+00 0. -1.
         23    2    1    2    0    0  0.18393922925E+03  0.51281629322E+03 -0.20370431127E+04  0.21105906611E+04  0.90741969069E+02 0.  0.
         11    1    3    3    0    0  0.10130960008E+03  0.29134855955E+03 -0.13211588579E+04  0.13566902174E+04  0.00000000000E+00 0. -1.
        -11    1    3    3    0    0  0.82629629172E+02  0.22146773368E+03 -0.71588425481E+03  0.75390044367E+03  0.00000000000E+00 0.  1.
         22    1    1    2    0    0 -0.18393922925E+03 -0.51281629322E+03 -0.23076822705E+03  0.59166558567E+03  0.00000000000E+00 0.  1.
<mgrwt>
<rscale>  0 0.14694286E+04</rscale>
<asrwt>0</asrwt>
<pdfrwt beam="1">  1        2 0.38231291E+00 0.14694286E+04</pdfrwt>
<pdfrwt beam="2">  1       -2 0.33418837E-01 0.14694286E+04</pdfrwt>
<totfact> 0.28860714E+01</totfact>
</mgrwt>
</event>
<event>
 6    1  0.2236204E-005  0.2019799E+04  0.7818608E-02  0.8597419E-01
         -2   -1    0    0    0  501 -0.00000000000E+00  0.00000000000E+00  0.63223019623E+03  0.63223019623E+03  0.00000000000E+00 0.  1.
          2   -1    0    0  501    0  0.00000000000E+00 -0.00000000000E+00 -0.16131740292E+04  0.16131740292E+04  0.00000000000E+00 0. -1.
         23    2    1    2    0    0 -0.62779159967E+03 -0.38383396834E+03 -0.12567984299E+04  0.14595629141E+04  0.96596061444E+02 0.  0.
         13    1    3    3    0    0 -0.34502093171E+03 -0.26470758365E+03 -0.76149141291E+03  0.87691431742E+03  0.00000000000E+00 0. -1.
        -13    1    3    3    0    0 -0.28277066796E+03 -0.11912638469E+03 -0.49530701695E+03  0.58264859669E+03  0.00000000000E+00 0.  1.
         22    1    1    2    0    0  0.62779159967E+03  0.38383396834E+03  0.27585459692E+03  0.78584131128E+03  0.00000000000E+00 0.  1.
<mgrwt>
<rscale>  0 0.20197993E+04</rscale>
<asrwt>0</asrwt>
<pdfrwt beam="1">  1        2 0.24818062E+00 0.20197993E+04</pdfrwt>
<pdfrwt beam="2">  1       -2 0.97266185E-01 0.20197993E+04</pdfrwt>
<totfact> 0.89691864E+00</totfact>
</mgrwt>
</event>
<event>
 6    1  0.2236204E-005  0.8858355E+04  0.7818608E-02  0.7411244E-01
          2   -1    0    0  501    0  0.00000000000E+00  0.00000000000E+00  0.46500298900E+04  0.46500298900E+04  0.00000000000E+00 0. -1.
         -2   -1    0    0    0  501 -0.00000000000E+00 -0.00000000000E+00 -0.42188146488E+04  0.42188146488E+04  0.00000000000E+00 0.  1.
         23    2    1    2    0    0  0.31675444416E+04 -0.30950391340E+04  0.18461211501E+03  0.44333718320E+04  0.89995207304E+02 0.  0.
         11    1    3    3    0    0  0.20700463202E+04 -0.20327384040E+04  0.16313287492E+03  0.29058096155E+04  0.00000000000E+00 0.  1.
        -11    1    3    3    0    0  0.10974981215E+04 -0.10623007300E+04  0.21479240091E+02  0.15275622165E+04  0.00000000000E+00 0. -1.
         22    1    1    2    0    0 -0.31675444416E+04  0.30950391340E+04  0.24660312627E+03  0.44354727068E+04  0.00000000000E+00 0.  1.
<mgrwt>
<rscale>  0 0.88583552E+04</rscale>
<asrwt>0</asrwt>
<pdfrwt beam="1">  1        2 0.71538921E+00 0.88583552E+04</pdfrwt>
<pdfrwt beam="2">  1       -2 0.64904841E+00 0.88583552E+04</pdfrwt>
<totfact> 0.16348518E-05</totfact>
</mgrwt>
</event>
<event>
 6    1  0.2236204E-005  0.5094059E+04  0.7818608E-02  0.7814159E-01
          2   -1    0    0  501    0  0.00000000000E+00  0.00000000000E+00  0.23956948436E+04  0.23956948436E+04  0.00000000000E+00 0. -1.
         -2   -1    0    0    0  501 -0.00000000000E+00 -0.00000000000E+00 -0.27079241553E+04  0.27079241553E+04  0.00000000000E+00 0.  1.
         23    2    1    2    0    0 -0.23744663782E+04  0.76697793175E+03  0.35142287324E+03  0.25216081640E+04  0.93080439766E+02 0.  0.
         13    1    3    3    0    0 -0.86288045440E+03  0.30131460481E+03  0.16849259159E+03  0.92937770744E+03  0.00000000000E+00 0.  1.
        -13    1    3    3    0    0 -0.15115859238E+04  0.46566332693E+03  0.18293028166E+03  0.15922304566E+04  0.00000000000E+00 0. -1.
         22    1    1    2    0    0  0.23744663782E+04 -0.76697793175E+03 -0.66365218496E+03  0.25820108349E+04  0.00000000000E+00 0.  1.
<mgrwt>
<rscale>  0 0.50940593E+04</rscale>
<asrwt>0</asrwt>
<pdfrwt beam="1">  1        2 0.36856844E+00 0.50940593E+04</pdfrwt>
<pdfrwt beam="2">  1       -2 0.41660372E+00 0.50940593E+04</pdfrwt>
<totfact> 0.16702308E-02</totfact>
</mgrwt>
</event>
<event>
 6    1  0.2236204E-005  0.2643806E+04  0.7818608E-02  0.8353472E-01
          2   -1    0    0  501    0  0.00000000000E+00  0.00000000000E+00  0.13857917217E+04  0.13857917217E+04  0.00000000000E+00 0.  1.
         -2   -1    0    0    0  501 -0.00000000000E+00 -0.00000000000E+00 -0.12609595631E+04  0.12609595631E+04  0.00000000000E+00 0. -1.
         23    2    1    2    0    0  0.25451763661E+03  0.12326162533E+04  0.46200777571E+03  0.13437511113E+04  0.89965599532E+02 0.  0.
         11    1    3    3    0    0  0.11122166537E+03  0.40387275841E+03  0.18840881860E+03  0.45932705860E+03  0.00000000000E+00 0.  1.
        -11    1    3    3    0    0  0.14329597124E+03  0.82874349487E+03  0.27359895711E+03  0.88442405270E+03  0.00000000000E+00 0. -1.
         22    1    1    2    0    0 -0.25451763661E+03 -0.12326162533E+04 -0.33717561710E+03  0.13030001734E+04  0.00000000000E+00 0. -1.
<mgrwt>
<rscale>  0 0.26438058E+04</rscale>
<asrwt>0</asrwt>
<pdfrwt beam="1">  1        2 0.21319873E+00 0.26438058E+04</pdfrwt>
<pdfrwt beam="2">  1       -2 0.19399378E+00 0.26438058E+04</pdfrwt>
<totfact> 0.18942689E+00</totfact>
</mgrwt>
</event>
<event>
 6    1  0.2236204E-005  0.7646382E+03  0.7818608E-02  0.9612661E-01
          2   -1    0    0  501    0  0.00000000000E+00  0.00000000000E+00  0.77114298874E+03  0.77114298874E+03  0.00000000000E+00 0. -1.
         -2   -1    0    0    0  501 -0.00000000000E+00 -0.00000000000E+00 -0.18954707110E+03  0.18954707110E+03  0.00000000000E+00 0.  1.
         23    2    1    2    0    0  0.23725347441E+03  0.10001901388E+03 -0.50498826915E+02  0.27816769366E+03  0.92380301025E+02 0.  0.
         13    1    3    3    0    0  0.25055797863E+02  0.48794448235E+02 -0.16221884725E+02  0.57200006374E+02  0.00000000000E+00 0. -1.
        -13    1    3    3    0    0  0.21219767655E+03  0.51224565646E+02 -0.34276942190E+02  0.22096768728E+03  0.00000000000E+00 0.  1.
         22    1    1    2    0    0 -0.23725347441E+03 -0.10001901388E+03  0.63209474455E+03  0.68252236619E+03  0.00000000000E+00 0. -1.
<mgrwt>
<rscale>  0 0.76463820E+03</rscale>
<asrwt>0</asrwt>
<pdfrwt beam="1">  1        2 0.11863738E+00 0.76463820E+03</pdfrwt>
<pdfrwt beam="2">  1       -2 0.29161088E-01 0.76463820E+03</pdfrwt>
<totfact> 0.39289294E+02</totfact>
</mgrwt>
</event>
<event>
 6    1  0.2236204E-005  0.3892275E+04  0.7818608E-02  0.8026638E-01
          2   -1    0    0  501    0  0.00000000000E+00  0.00000000000E+00  0.18766410178E+04  0.18766410178E+04  0.00000000000E+00 0. -1.
         -2   -1    0    0    0  501 -0.00000000000E+00 -0.00000000000E+00 -0.20182080375E+04  0.20182080375E+04  0.00000000000E+00 0.  1.
         23    2    1    2    0    0 -0.13564123188E+04 -0.10531997922E+04 -0.98477523673E+03  0.19817143820E+04  0.91243871737E+02 0.  0.
         13    1    3    3    0    0 -0.63888844378E+03 -0.46751509027E+03 -0.40839564878E+03  0.89080626916E+03  0.00000000000E+00 0. -1.
        -13    1    3    3    0    0 -0.71752387504E+03 -0.58568470191E+03 -0.57637958796E+03  0.10909081129E+04  0.00000000000E+00 0.  1.
         22    1    1    2    0    0  0.13564123188E+04  0.10531997922E+04  0.84320821702E+03  0.19131346733E+04  0.00000000000E+00 0. -1.
<mgrwt>
<rscale>  0 0.38922754E+04</rscale>
<asrwt>0</asrwt>
<pdfrwt beam="1">  1        2 0.28871400E+00 0.38922754E+04</pdfrwt>
<pdfrwt beam="2">  1       -2 0.31049354E+00 0.38922754E+04</pdfrwt>
<totfact> 0.17059977E-01</totfact>
</mgrwt>
</event>
<event>
 6    1  0.2236204E-005  0.2385369E+04  0.7818608E-02  0.8445001E-01
         -2   -1    0    0    0  501 -0.00000000000E+00  0.00000000000E+00  0.97990966688E+03  0.97990966688E+03  0.00000000000E+00 0.  1.
          2   -1    0    0  501    0  0.00000000000E+00 -0.00000000000E+00 -0.14516610621E+04  0.14516610621E+04  0.00000000000E+00 0. -1.
         23    2    1    2    0    0  0.11418083907E+04  0.29399455533E+02  0.10737930596E+03  0.11509524806E+04  0.92577362969E+02 0.  0.
         13    1    3    3    0    0  0.60328865699E+03  0.15419431429E+01  0.12439782834E+02  0.60341886732E+03  0.00000000000E+00 0. -1.
        -13    1    3    3    0    0  0.53851973372E+03  0.27857512390E+02  0.94939523129E+02  0.54753361327E+03  0.00000000000E+00 0.  1.
         22    1    1    2    0    0 -0.11418083907E+04 -0.29399455533E+02 -0.57913070120E+03  0.12806182484E+04  0.00000000000E+00 0. -1.
<mgrwt>
<rscale>  0 0.23853693E+04</rscale>
<asrwt>0</asrwt>
<pdfrwt beam="1">  1        2 0.22333247E+00 0.23853693E+04</pdfrwt>
<pdfrwt beam="2">  1       -2 0.15075533E+00 0.23853693E+04</pdfrwt>
<totfact> 0.35994453E+00</totfact>
</mgrwt>
</event>
<event>
 6    1  0.2236204E-005  0.5089714E+04  0.7818608E-02  0.7814815E-01
         -2   -1    0    0    0  501 -0.00000000000E+00  0.00000000000E+00  0.26618731774E+04  0.26618731774E+04  0.00000000000E+00 0.  1.
          2   -1    0    0  501    0  0.00000000000E+00 -0.00000000000E+00 -0.24329852769E+04  0.24329852769E+04  0.00000000000E+00 0. -1.
         23    2    1    2    0    0  0.63225103301E+03  0.19924898476E+04  0.15661071397E+04  0.26133443086E+04  0.84378558923E+02 0.  0.
         13    1    3    3    0    0  0.38519213807E+03  0.12581187537E+04  0.93728951713E+03  0.16154712689E+04  0.00000000000E+00 0. -1.
        -13    1    3    3    0    0  0.24705889493E+03  0.73437109381E+03  0.62881762256E+03  0.99787303974E+03  0.00000000000E+00 0.  1.
         22    1    1    2    0    0 -0.63225103301E+03 -0.19924898476E+04 -0.13372192392E+04  0.24815141457E+04  0.00000000000E+00 0. -1.
<mgrwt>
<rscale>  0 0.50897144E+04</rscale>
<asrwt>0</asrwt>
<pdfrwt beam="1">  1        2 0.37430543E+00 0.50897144E+04</pdfrwt>
<pdfrwt beam="2">  1       -2 0.40951895E+00 0.50897144E+04</pdfrwt>
<totfact> 0.17703837E-02</totfact>
</mgrwt>
</event>
<event>
 6    1  0.2236204E-005  0.1605196E+04  0.7818608E-02  0.8817363E-01
         -2   -1    0    0    0  501 -0.00000000000E+00  0.00000000000E+00  0.68406675308E+03  0.68406675308E+03  0.00000000000E+00 0.  1.
          2   -1    0    0  501    0  0.00000000000E+00 -0.00000000000E+00 -0.94166713829E+03  0.94166713829E+03  0.00000000000E+00 0. -1.
         23    2    1    2    0    0 -0.50995885248E+03  0.34242554614E+03 -0.64851084541E+03  0.89763755587E+03  0.88733191200E+02 0.  0.
         13    1    3    3    0    0 -0.71304318679E+02  0.21677099495E+02 -0.10771866346E+03  0.13098669002E+03  0.00000000000E+00 0.  1.
        -13    1    3    3    0    0 -0.43865453380E+03  0.32074844665E+03 -0.54079218195E+03  0.76665086585E+03  0.00000000000E+00 0. -1.
         22    1    1    2    0    0  0.50995885248E+03 -0.34242554614E+03  0.39091046020E+03  0.72809633550E+03  0.00000000000E+00 0.  1.
<mgrwt>
<rscale>  0 0.16051955E+04</rscale>
<asrwt>0</asrwt>
<pdfrwt beam="1">  1        2 0.14487187E+00 0.16051955E+04</pdfrwt>
<pdfrwt beam="2">  1       -2 0.10524104E+00 0.16051955E+04</pdfrwt>
<totfact> 0.19270998E+01</totfact>
</mgrwt>
</event>
<event>
 6    1  0.2236204E-005  0.3361022E+04  0.7818608E-02  0.8147540E-01
          2   -1    0    0  501    0  0.00000000000E+00  0.00000000000E+00  0.19183800350E+04  0.19183800350E+04  0.00000000000E+00 0.  1.
         -2   -1    0    0    0  501 -0.00000000000E+00 -0.00000000000E+00 -0.14721360759E+04  0.14721360759E+04  0.00000000000E+00 0. -1.
         23    2    1    2    0    0  0.19728520225E+03 -0.44084858795E+03 -0.13991281727E+04  0.14829870198E+04  0.91771067976E+02 0.  0.
         13    1    3    3    0    0  0.81984571077E+02 -0.28226002440E+03 -0.77936228479E+03  0.83294523363E+03  0.00000000000E+00 0.  1.
        -13    1    3    3    0    0  0.11530063117E+03 -0.15858856355E+03 -0.61976588786E+03  0.65004178619E+03  0.00000000000E+00 0. -1.
         22    1    1    2    0    0 -0.19728520225E+03  0.44084858795E+03  0.18453721318E+04  0.19075290911E+04  0.00000000000E+00 0.  1.
<mgrwt>
<rscale>  0 0.33610215E+04</rscale>
<asrwt>0</asrwt>
<pdfrwt beam="1">  1        2 0.29513539E+00 0.33610215E+04</pdfrwt>
<pdfrwt beam="2">  1       -2 0.22648247E+00 0.33610215E+04</pdfrwt>
<totfact> 0.55452047E-01</totfact>
</mgrwt>
</event>
<event>
 6    1  0.2236204E-005  0.3346638E+04  0.7818608E-02  0.8151129E-01
         -2   -1    0    0    0  501 -0.00000000000E+00  0.00000000000E+00  0.21681307647E+04  0.21681307647E+04  0.00000000000E+00 0.  1.
          2   -1    0    0  501    0  0.00000000000E+00 -0.00000000000E+00 -0.12914330390E+04  0.12914330390E+04  0.00000000000E+00 0. -1.
         23    2    1    2    0    0  0.47790094892E+03  0.55066567306E+03  0.19940879416E+04  0.21253288562E+04  0.94942233935E+02 0.  0.
         13    1    3    3    0    0  0.18346974574E+03  0.22390892214E+03  0.92701057484E+03  0.97115650586E+03  0.00000000000E+00 0. -1.
        -13    1    3    3    0    0  0.29443120319E+03  0.32675675092E+03  0.10670773668E+04  0.11541723504E+04  0.00000000000E+00 0.  1.
         22    1    1    2    0    0 -0.47790094892E+03 -0.55066567306E+03 -0.11173902159E+04  0.13342349475E+04  0.00000000000E+00 0. -1.
<mgrwt>
<rscale>  0 0.33466375E+04</rscale>
<asrwt>0</asrwt>
<pdfrwt beam="1">  1        2 0.19868201E+00 0.33466375E+04</pdfrwt>
<pdfrwt beam="2">  1       -2 0.33355858E+00 0.33466375E+04</pdfrwt>
<totfact> 0.27439510E-01</totfact>
</mgrwt>
</event>
<event>
 6    1  0.2236204E-005  0.1529194E+04  0.7818608E-02  0.8865268E-01
         -2   -1    0    0    0  501 -0.00000000000E+00  0.00000000000E+00  0.22708453777E+03  0.22708453777E+03  0.00000000000E+00 0.  1.
          2   -1    0    0  501    0  0.00000000000E+00 -0.00000000000E+00 -0.25744106473E+04  0.25744106473E+04  0.00000000000E+00 0. -1.
         23    2    1    2    0    0 -0.25399409070E+03  0.48531299467E+03 -0.21483113144E+04  0.22187014054E+04  0.85748014966E+02 0.  0.
         13    1    3    3    0    0 -0.18344363800E+03  0.37775295098E+03 -0.14957061062E+04  0.15535397054E+04  0.00000000000E+00 0. -1.
        -13    1    3    3    0    0 -0.70550452695E+02  0.10756004369E+03 -0.65260520820E+03  0.66516170000E+03  0.00000000000E+00 0.  1.
         22    1    1    2    0    0  0.25399409070E+03 -0.48531299467E+03 -0.19901479515E+03  0.58279377965E+03  0.00000000000E+00 0.  1.
<mgrwt>
<rscale>  0 0.15291944E+04</rscale>
<asrwt>0</asrwt>
<pdfrwt beam="1">  1        2 0.39606319E+00 0.15291944E+04</pdfrwt>
<pdfrwt beam="2">  1       -2 0.34936082E-01 0.15291944E+04</pdfrwt>
<totfact> 0.23420366E+01</totfact>
</mgrwt>
</event>
<event>
 6    1  0.2236204E-005  0.4032454E+04  0.7818608E-02  0.7998031E-01
          2   -1    0    0  501    0  0.00000000000E+00  0.00000000000E+00  0.19251555283E+04  0.19251555283E+04  0.00000000000E+00 0. -1.
         -2   -1    0    0    0  501 -0.00000000000E+00 -0.00000000000E+00 -0.21116068764E+04  0.21116068764E+04  0.00000000000E+00 0.  1.
         23    2    1    2    0    0 -0.50998019048E+03  0.13404103411E+04  0.13239467179E+04  0.19539561259E+04  0.91268574511E+02 0.  0.
         13    1    3    3    0    0 -0.52745483442E+02  0.10962513244E+03  0.82408888029E+02  0.14693869645E+03  0.00000000000E+00 0. -1.
        -13    1    3    3    0    0 -0.45723470704E+03  0.12307852087E+04  0.12415378299E+04  0.18070174294E+04  0.00000000000E+00 0.  1.
         22    1    1    2    0    0  0.50998019048E+03 -0.13404103411E+04 -0.15103980661E+04  0.20828062789E+04  0.00000000000E+00 0.  1.
<mgrwt>
<rscale>  0 0.40324542E+04</rscale>
<asrwt>0</asrwt>
<pdfrwt beam="1">  1        2 0.29617777E+00 0.40324542E+04</pdfrwt>
<pdfrwt beam="2">  1       -2 0.32486260E+00 0.40324542E+04</pdfrwt>
<totfact> 0.12924277E-01</totfact>
</mgrwt>
</event>
<event>
 6    1  0.2733690E-005  0.3196008E+04  0.7818608E-02  0.8189872E-01
         -2   -1    0    0    0  501 -0.00000000000E+00  0.00000000000E+00  0.98696778474E+03  0.98696778474E+03  0.00000000000E+00 0.  1.
          2   -1    0    0  501    0  0.00000000000E+00 -0.00000000000E+00 -0.25873351989E+04  0.25873351989E+04  0.00000000000E+00 0. -1.
         23    2    1    2    0    0 -0.34661618788E+03  0.35013353829E+03  0.89769314547E+03  0.10281209721E+04  0.91888375201E+02 0.  0.
         13    1    3    3    0    0 -0.17290569338E+03  0.14685865303E+03  0.49798946571E+03  0.54722696455E+03  0.00000000000E+00 0. -1.
        -13    1    3    3    0    0 -0.17371049450E+03  0.20327488525E+03  0.39970367976E+03  0.48089400754E+03  0.00000000000E+00 0.  1.
         22    1    1    2    0    0  0.34661618788E+03 -0.35013353829E+03 -0.24980605596E+04  0.25461820115E+04  0.00000000000E+00 0. -1.
<mgrwt>
<rscale>  0 0.31960078E+04</rscale>
<asrwt>0</asrwt>
<pdfrwt beam="1">  1        2 0.39805157E+00 0.31960078E+04</pdfrwt>
<pdfrwt beam="2">  1       -2 0.15184120E+00 0.31960078E+04</pdfrwt>
<totfact> 0.75617435E-01</totfact>
</mgrwt>
</event>
<event>
 6    1  0.2236204E-005  0.2238046E+04  0.7818608E-02  0.8502757E-01
         -2   -1    0    0    0  501 -0.00000000000E+00  0.00000000000E+00  0.65401390630E+03  0.65401390630E+03  0.00000000000E+00 0.  1.
          2   -1    0    0  501    0  0.00000000000E+00 -0.00000000000E+00 -0.19146571200E+04  0.19146571200E+04  0.00000000000E+00 0. -1.
         23    2    1    2    0    0  0.91251384444E+03 -0.29331194424E+03 -0.12919337901E+04  0.16096650237E+04  0.56702358127E+02 0.  0.
         13    1    3    3    0    0  0.54203260608E+03 -0.20156303452E+03 -0.76207919659E+03  0.95665652395E+03  0.00000000000E+00 0.  1.
        -13    1    3    3    0    0  0.37048123836E+03 -0.91748909713E+02 -0.52985459354E+03  0.65300849972E+03  0.00000000000E+00 0. -1.
         22    1    1    2    0    0 -0.91251384444E+03  0.29331194424E+03  0.31290576419E+02  0.95900600264E+03  0.00000000000E+00 0.  1.
<mgrwt>
<rscale>  0 0.22380459E+04</rscale>
<asrwt>0</asrwt>
<pdfrwt beam="1">  1        2 0.29456264E+00 0.22380459E+04</pdfrwt>
<pdfrwt beam="2">  1       -2 0.10061752E+00 0.22380459E+04</pdfrwt>
<totfact> 0.55274747E+00</totfact>
</mgrwt>
</event>
<event>
 6    1  0.2236204E-005  0.1772818E+04  0.7818608E-02  0.8720889E-01
         -2   -1    0    0    0  501 -0.00000000000E+00  0.00000000000E+00  0.11978563078E+04  0.11978563078E+04  0.00000000000E+00 0. -1.
          2   -1    0    0  501    0  0.00000000000E+00 -0.00000000000E+00 -0.65593937054E+03  0.65593937054E+03  0.00000000000E+00 0.  1.
         23    2    1    2    0    0 -0.62112892173E+03  0.32000579982E+03  0.83811143011E+03  0.10948911871E+04  0.90283403475E+02 0.  0.
         13    1    3    3    0    0 -0.18643168069E+03  0.11488700237E+03  0.20479238775E+03  0.29982614456E+03  0.00000000000E+00 0.  1.
        -13    1    3    3    0    0 -0.43469724104E+03  0.20511879745E+03  0.63331904235E+03  0.79506504252E+03  0.00000000000E+00 0. -1.
         22    1    1    2    0    0  0.62112892173E+03 -0.32000579982E+03 -0.29619449281E+03  0.75890449129E+03  0.00000000000E+00 0.  1.
<mgrwt>
<rscale>  0 0.17728182E+04</rscale>
<asrwt>0</asrwt>
<pdfrwt beam="1">  1        2 0.10091375E+00 0.17728182E+04</pdfrwt>
<pdfrwt beam="2">  1       -2 0.18428559E+00 0.17728182E+04</pdfrwt>
<totfact> 0.71212990E+00</totfact>
</mgrwt>
</event>
<event>
 6    1  0.2236204E-005  0.3152829E+04  0.7818608E-02  0.8201387E-01
         -2   -1    0    0    0  501 -0.00000000000E+00  0.00000000000E+00  0.98349506057E+03  0.98349506057E+03  0.00000000000E+00 0.  1.
          2   -1    0    0  501    0  0.00000000000E+00 -0.00000000000E+00 -0.25267870740E+04  0.25267870740E+04  0.00000000000E+00 0. -1.
         23    2    1    2    0    0 -0.10996670112E+04  0.13237825736E+03 -0.20199716754E+04  0.23044566751E+04  0.58680994506E+02 0.  0.
         13    1    3    3    0    0 -0.10929928772E+04  0.12977472854E+03 -0.19951007942E+04  0.22785745739E+04  0.00000000000E+00 0.  1.
        -13    1    3    3    0    0 -0.66741339708E+01  0.26035288120E+01 -0.24870881231E+02  0.25882101147E+02  0.00000000000E+00 0. -1.
         22    1    1    2    0    0  0.10996670112E+04 -0.13237825736E+03  0.47667966204E+03  0.12058254595E+04  0.00000000000E+00 0.  1.
<mgrwt>
<rscale>  0 0.31528290E+04</rscale>
<asrwt>0</asrwt>
<pdfrwt beam="1">  1        2 0.38873647E+00 0.31528290E+04</pdfrwt>
<pdfrwt beam="2">  1       -2 0.15130693E+00 0.31528290E+04</pdfrwt>
<totfact> 0.83108076E-01</totfact>
</mgrwt>
</event>
<event>
 6    1  0.2236204E-005  0.3993319E+04  0.7818608E-02  0.8005896E-01
         -2   -1    0    0    0  501 -0.00000000000E+00  0.00000000000E+00  0.22152121347E+04  0.22152121347E+04  0.00000000000E+00 0. -1.
          2   -1    0    0  501    0  0.00000000000E+00 -0.00000000000E+00 -0.17996692952E+04  0.17996692952E+04  0.00000000000E+00 0.  1.
         23    2    1    2    0    0 -0.17170254276E+04 -0.22012918285E+03  0.12062723741E+04  0.21117560075E+04  0.88245218854E+02 0.  0.
         13    1    3    3    0    0 -0.94139914064E+03 -0.10290218052E+03  0.70865542493E+03  0.11827991005E+04  0.00000000000E+00 0. -1.
        -13    1    3    3    0    0 -0.77562628697E+03 -0.11722700233E+03  0.49761694916E+03  0.92895690708E+03  0.00000000000E+00 0.  1.
         22    1    1    2    0    0  0.17170254276E+04  0.22012918285E+03 -0.79072953466E+03  0.19031254224E+04  0.00000000000E+00 0.  1.
<mgrwt>
<rscale>  0 0.39933191E+04</rscale>
<asrwt>0</asrwt>
<pdfrwt beam="1">  1        2 0.27687220E+00 0.39933191E+04</pdfrwt>
<pdfrwt beam="2">  1       -2 0.34080187E+00 0.39933191E+04</pdfrwt>
<totfact> 0.12108285E-01</totfact>
</mgrwt>
</event>
<event>
 6    1  0.2236204E-005  0.2404789E+04  0.7818608E-02  0.8437713E-01
         -2   -1    0    0    0  501 -0.00000000000E+00  0.00000000000E+00  0.41177074201E+03  0.41177074201E+03  0.00000000000E+00 0.  1.
          2   -1    0    0  501    0  0.00000000000E+00 -0.00000000000E+00 -0.35110627223E+04  0.35110627223E+04  0.00000000000E+00 0. -1.
         23    2    1    2    0    0 -0.42400848378E+03 -0.10202791258E+04 -0.23181940911E+04  0.25697382713E+04  0.93692316547E+02 0.  0.
         13    1    3    3    0    0 -0.16904347501E+03 -0.32815912258E+03 -0.84947345097E+03  0.92621231372E+03  0.00000000000E+00 0. -1.
        -13    1    3    3    0    0 -0.25496500878E+03 -0.69212000320E+03 -0.14687206401E+04  0.16435259576E+04  0.00000000000E+00 0.  1.
         22    1    1    2    0    0  0.42400848378E+03  0.10202791258E+04 -0.78109788918E+03  0.13530951930E+04  0.00000000000E+00 0.  1.
<mgrwt>
<rscale>  0 0.24047893E+04</rscale>
<asrwt>0</asrwt>
<pdfrwt beam="1">  1        2 0.54016350E+00 0.24047893E+04</pdfrwt>
<pdfrwt beam="2">  1       -2 0.63349345E-01 0.24047893E+04</pdfrwt>
<totfact> 0.16593565E+00</totfact>
</mgrwt>
</event>
<event>
 6    1  0.2236204E-005  0.1159342E+04  0.7818608E-02  0.9149208E-01
          2   -1    0    0  501    0  0.00000000000E+00  0.00000000000E+00  0.61148522287E+03  0.61148522287E+03  0.00000000000E+00 0. -1.
         -2   -1    0    0    0  501 -0.00000000000E+00 -0.00000000000E+00 -0.54951230767E+03  0.54951230767E+03  0.00000000000E+00 0.  1.
         23    2    1    2    0    0  0.21566920593E+03 -0.23267004912E+03 -0.45033717146E+03  0.55841128524E+03  0.91493373178E+02 0.  0.
         11    1    3    3    0    0  0.10316154905E+03 -0.55947157505E+02 -0.12499252962E+03  0.17145122366E+03  0.00000000000E+00 0.  1.
        -11    1    3    3    0    0  0.11250765688E+03 -0.17672289161E+03 -0.32534464184E+03  0.38696006157E+03  0.00000000000E+00 0. -1.
         22    1    1    2    0    0 -0.21566920593E+03  0.23267004912E+03  0.51231008666E+03  0.60258624531E+03  0.00000000000E+00 0. -1.
<mgrwt>
<rscale>  0 0.11593423E+04</rscale>
<asrwt>0</asrwt>
<pdfrwt beam="1">  1        2 0.94074650E-01 0.11593423E+04</pdfrwt>
<pdfrwt beam="2">  1       -2 0.84540355E-01 0.11593423E+04</pdfrwt>
<totfact> 0.58521519E+01</totfact>
</mgrwt>
</event>
<event>
 6    1  0.2236204E-005  0.5303270E+04  0.7818608E-02  0.7783355E-01
          2   -1    0    0  501    0  0.00000000000E+00  0.00000000000E+00  0.29506271450E+04  0.29506271450E+04  0.00000000000E+00 0. -1.
         -2   -1    0    0    0  501 -0.00000000000E+00 -0.00000000000E+00 -0.23829402692E+04  0.23829402692E+04  0.00000000000E+00 0.  1.
         23    2    1    2    0    0  0.21300610675E+04  0.15773220655E+04  0.23780127172E+03  0.26626257149E+04  0.89001140490E+02 0.  0.
         13    1    3    3    0    0  0.59590805104E+03  0.49157789089E+03  0.69985267369E+02  0.77566304911E+03  0.00000000000E+00 0.  1.
        -13    1    3    3    0    0  0.15341530165E+04  0.10857441746E+04  0.16781600435E+03  0.18869626657E+04  0.00000000000E+00 0. -1.
         22    1    1    2    0    0 -0.21300610675E+04 -0.15773220655E+04  0.32988560399E+03  0.26709416993E+04  0.00000000000E+00 0. -1.
<mgrwt>
<rscale>  0 0.53032700E+04</rscale>
<asrwt>0</asrwt>
<pdfrwt beam="1">  1        2 0.45394264E+00 0.53032700E+04</pdfrwt>
<pdfrwt beam="2">  1       -2 0.36660620E+00 0.53032700E+04</pdfrwt>
<totfact> 0.16213568E-02</totfact>
</mgrwt>
</event>
<event>
 6    1  0.2236204E-005  0.1998925E+04  0.7818608E-02  0.8607124E-01
         -2   -1    0    0    0  501 -0.00000000000E+00  0.00000000000E+00  0.10304733264E+04  0.10304733264E+04  0.00000000000E+00 0.  1.
          2   -1    0    0  501    0  0.00000000000E+00 -0.00000000000E+00 -0.96938450965E+03  0.96938450965E+03  0.00000000000E+00 0. -1.
         23    2    1    2    0    0 -0.21980609575E+03 -0.43497888515E+03 -0.84001839454E+03  0.97539917095E+03  0.90836607578E+02 0.  0.
         13    1    3    3    0    0 -0.10120665565E+03 -0.22160392365E+03 -0.50692714882E+03  0.56242885802E+03  0.00000000000E+00 0.  1.
        -13    1    3    3    0    0 -0.11859944010E+03 -0.21337496150E+03 -0.33309124572E+03  0.41297031293E+03  0.00000000000E+00 0. -1.
         22    1    1    2    0    0  0.21980609575E+03  0.43497888515E+03  0.90110721124E+03  0.10244586651E+04  0.00000000000E+00 0.  1.
<mgrwt>
<rscale>  0 0.19989246E+04</rscale>
<asrwt>0</asrwt>
<pdfrwt beam="1">  1        2 0.14913608E+00 0.19989246E+04</pdfrwt>
<pdfrwt beam="2">  1       -2 0.15853436E+00 0.19989246E+04</pdfrwt>
<totfact> 0.63261499E+00</totfact>
</mgrwt>
</event>
<event>
 6    1  0.2236204E-005  0.2214963E+04  0.7818608E-02  0.8512226E-01
          2   -1    0    0  501    0  0.00000000000E+00  0.00000000000E+00  0.23875898356E+04  0.23875898356E+04  0.00000000000E+00 0. -1.
         -2   -1    0    0    0  501 -0.00000000000E+00 -0.00000000000E+00 -0.51370434738E+03  0.51370434738E+03  0.00000000000E+00 0.  1.
         23    2    1    2    0    0  0.29003774616E+03  0.44527497548E+03 -0.33125324089E+03  0.63302865342E+03  0.92762430262E+02 0.  0.
         13    1    3    3    0    0  0.21580132155E+03  0.25157385831E+03 -0.21757799126E+03  0.39648429836E+03  0.00000000000E+00 0.  1.
        -13    1    3    3    0    0  0.74236424603E+02  0.19370111717E+03 -0.11367524963E+03  0.23654435506E+03  0.00000000000E+00 0. -1.
         22    1    1    2    0    0 -0.29003774616E+03 -0.44527497548E+03  0.22051387291E+04  0.22682655295E+04  0.00000000000E+00 0. -1.
<mgrwt>
<rscale>  0 0.22149630E+04</rscale>
<asrwt>0</asrwt>
<pdfrwt beam="1">  1        2 0.36732151E+00 0.22149630E+04</pdfrwt>
<pdfrwt beam="2">  1       -2 0.79031440E-01 0.22149630E+04</pdfrwt>
<totfact> 0.52409879E+00</totfact>
</mgrwt>
</event>
<event>
 6    1  0.2236204E-005  0.1678634E+04  0.7818608E-02  0.8773645E-01
          2   -1    0    0  501    0  0.00000000000E+00  0.00000000000E+00  0.17799029159E+04  0.17799029159E+04  0.00000000000E+00 0. -1.
         -2   -1    0    0    0  501 -0.00000000000E+00 -0.00000000000E+00 -0.39578150773E+03  0.39578150773E+03  0.00000000000E+00 0.  1.
         23    2    1    2    0    0  0.53877816288E+03  0.54033263386E+03  0.24857669585E+03  0.80758243266E+03  0.90320251420E+02 0.  0.
         13    1    3    3    0    0  0.23728586046E+03  0.23241426695E+03  0.61527931142E+02  0.33779676932E+03  0.00000000000E+00 0.  1.
        -13    1    3    3    0    0  0.30149230242E+03  0.30791836691E+03  0.18704876471E+03  0.46978566334E+03  0.00000000000E+00 0. -1.
         22    1    1    2    0    0 -0.53877816288E+03 -0.54033263386E+03  0.11355447123E+04  0.13681019910E+04  0.00000000000E+00 0.  1.
<mgrwt>
<rscale>  0 0.16786336E+04</rscale>
<asrwt>0</asrwt>
<pdfrwt beam="1">  1        2 0.27383121E+00 0.16786336E+04</pdfrwt>
<pdfrwt beam="2">  1       -2 0.60889464E-01 0.16786336E+04</pdfrwt>
<totfact> 0.21181902E+01</totfact>
</mgrwt>
</event>
<event>
 6    1  0.2236204E-005  0.1642618E+04  0.7818608E-02  0.8794785E-01
          2   -1    0    0  501    0  0.00000000000E+00  0.00000000000E+00  0.82709885754E+03  0.82709885754E+03  0.00000000000E+00 0. -1.
         -2   -1    0    0    0  501 -0.00000000000E+00 -0.00000000000E+00 -0.81556010156E+03  0.81556010156E+03  0.00000000000E+00 0.  1.
         23    2    1    2    0    0 -0.56234650104E+03  0.56790524537E+03 -0.17274263169E+03  0.82247020961E+03  0.88697654718E+02 0.  0.
         11    1    3    3    0    0 -0.41923955097E+03  0.38653788411E+03 -0.15408388388E+03  0.59069042672E+03  0.00000000000E+00 0. -1.
        -11    1    3    3    0    0 -0.14310695007E+03  0.18136736126E+03 -0.18658747812E+02  0.23177978290E+03  0.00000000000E+00 0.  1.
         22    1    1    2    0    0  0.56234650104E+03 -0.56790524537E+03  0.18428138767E+03  0.82018874949E+03  0.00000000000E+00 0. -1.
<mgrwt>
<rscale>  0 0.16426184E+04</rscale>
<asrwt>0</asrwt>
<pdfrwt beam="1">  1        2 0.12724598E+00 0.16426184E+04</pdfrwt>
<pdfrwt beam="2">  1       -2 0.12547078E+00 0.16426184E+04</pdfrwt>
<totfact> 0.14952320E+01</totfact>
</mgrwt>
</event>
<event>
 6    1  0.2236204E-005  0.2633644E+04  0.7818608E-02  0.8356862E-01
         -1   -1    0    0    0  501 -0.00000000000E+00  0.00000000000E+00  0.10896490385E+04  0.10896490385E+04  0.00000000000E+00 0.  1.
          1   -1    0    0  501    0  0.00000000000E+00 -0.00000000000E+00 -0.15913569293E+04  0.15913569293E+04  0.00000000000E+00 0. -1.
         23    2    1    2    0    0 -0.11230756418E+04 -0.68406578872E+03 -0.23253328137E+03  0.13387318263E+04  0.94267043635E+02 0.  0.
         11    1    3    3    0    0 -0.47394174863E+03 -0.24040101884E+03 -0.72546970589E+02  0.53635482090E+03  0.00000000000E+00 0. -1.
        -11    1    3    3    0    0 -0.64913389313E+03 -0.44366476987E+03 -0.15998631078E+03  0.80237700545E+03  0.00000000000E+00 0.  1.
         22    1    1    2    0    0  0.11230756418E+04  0.68406578872E+03 -0.26917460945E+03  0.13422741414E+04  0.00000000000E+00 0. -1.
<mgrwt>
<rscale>  0 0.26336443E+04</rscale>
<asrwt>0</asrwt>
<pdfrwt beam="1">  1        1 0.24482414E+00 0.26336443E+04</pdfrwt>
<pdfrwt beam="2">  1       -1 0.16763831E+00 0.26336443E+04</pdfrwt>
<totfact> 0.12725423E+00</totfact>
</mgrwt>
</event>
<event>
 6    1  0.2236204E-005  0.1367455E+04  0.7818608E-02  0.8977719E-01
          2   -1    0    0  501    0  0.00000000000E+00  0.00000000000E+00  0.21357075778E+04  0.21357075778E+04  0.00000000000E+00 0.  1.
         -2   -1    0    0    0  501 -0.00000000000E+00 -0.00000000000E+00 -0.21888912884E+03  0.21888912884E+03  0.00000000000E+00 0. -1.
         23    2    1    2    0    0 -0.15382820680E+03  0.51881040492E+03  0.25110648390E+03  0.60319049904E+03  0.89201784819E+02 0.  0.
         11    1    3    3    0    0 -0.96347827595E+02  0.31348477563E+03  0.10363826607E+03  0.34394258042E+03  0.00000000000E+00 0.  1.
        -11    1    3    3    0    0 -0.57480379202E+02  0.20532562929E+03  0.14746821783E+03  0.25924791862E+03  0.00000000000E+00 0. -1.
         22    1    1    2    0    0  0.15382820680E+03 -0.51881040492E+03  0.16657119650E+04  0.17514062076E+04  0.00000000000E+00 0.  1.
<mgrwt>
<rscale>  0 0.13674548E+04</rscale>
<asrwt>0</asrwt>
<pdfrwt beam="1">  1        2 0.32857038E+00 0.13674548E+04</pdfrwt>
<pdfrwt beam="2">  1       -2 0.33675252E-01 0.13674548E+04</pdfrwt>
<totfact> 0.45206225E+01</totfact>
</mgrwt>
</event>
<event>
 6    1  0.2236204E-005  0.6101496E+03  0.7818608E-02  0.9884570E-01
          2   -1    0    0  501    0  0.00000000000E+00  0.00000000000E+00  0.19733045941E+04  0.19733045941E+04  0.00000000000E+00 0. -1.
         -2   -1    0    0    0  501 -0.00000000000E+00 -0.00000000000E+00 -0.47164856118E+02  0.47164856118E+02  0.00000000000E+00 0.  1.
         23    2    1    2    0    0  0.93860555655E+02 -0.27206360861E+03  0.72682856686E+03  0.78710993402E+03  0.91836112598E+02 0.  0.
         11    1    3    3    0    0  0.24031366320E+01 -0.14769435305E+03  0.35784950968E+03  0.38713779016E+03  0.00000000000E+00 0. -1.
        -11    1    3    3    0    0  0.91457419023E+02 -0.12436925557E+03  0.36897905718E+03  0.39997214386E+03  0.00000000000E+00 0.  1.
         22    1    1    2    0    0 -0.93860555655E+02  0.27206360861E+03  0.11993111712E+04  0.12333595162E+04  0.00000000000E+00 0.  1.
<mgrwt>
<rscale>  0 0.61014958E+03</rscale>
<asrwt>0</asrwt>
<pdfrwt beam="1">  1        2 0.30358526E+00 0.61014958E+03</pdfrwt>
<pdfrwt beam="2">  1       -2 0.72561332E-02 0.61014958E+03</pdfrwt>
<totfact> 0.82017532E+02</totfact>
</mgrwt>
</event>
<event>
 6    1  0.2236204E-005  0.1211913E+04  0.7818608E-02  0.9102492E-01
          2   -1    0    0  501    0  0.00000000000E+00  0.00000000000E+00  0.45793673189E+03  0.45793673189E+03  0.00000000000E+00 0. -1.
         -2   -1    0    0    0  501 -0.00000000000E+00 -0.00000000000E+00 -0.80182157353E+03  0.80182157353E+03  0.00000000000E+00 0.  1.
         23    2    1    2    0    0 -0.11273366124E+03 -0.54340396246E+03  0.70300343173E+02  0.56726562524E+03  0.94081913935E+02 0.  0.
         13    1    3    3    0    0 -0.90958388789E+02 -0.23399624272E+03  0.97805781604E+01  0.25124356670E+03  0.00000000000E+00 0.  1.
        -13    1    3    3    0    0 -0.21775272454E+02 -0.30940771974E+03  0.60519765013E+02  0.31602205854E+03  0.00000000000E+00 0. -1.
         22    1    1    2    0    0  0.11273366124E+03  0.54340396246E+03 -0.41418518481E+03  0.69249268019E+03  0.00000000000E+00 0.  1.
<mgrwt>
<rscale>  0 0.12119134E+04</rscale>
<asrwt>0</asrwt>
<pdfrwt beam="1">  1        2 0.70451806E-01 0.12119134E+04</pdfrwt>
<pdfrwt beam="2">  1       -2 0.12335716E+00 0.12119134E+04</pdfrwt>
<totfact> 0.33299845E+01</totfact>
</mgrwt>
</event>
<event>
 6    1  0.2236204E-005  0.2383933E+04  0.7818608E-02  0.8445543E-01
          2   -1    0    0  501    0  0.00000000000E+00  0.00000000000E+00  0.51061005872E+04  0.51061005872E+04  0.00000000000E+00 0. -1.
         -2   -1    0    0    0  501 -0.00000000000E+00 -0.00000000000E+00 -0.27825229200E+03  0.27825229200E+03  0.00000000000E+00 0.  1.
         23    2    1    2    0    0  0.61917695441E+03  0.45976866871E+03  0.36644574572E+03  0.85678399092E+03  0.70915392843E+02 0.  0.
         11    1    3    3    0    0  0.29390448199E+03  0.24419349824E+03  0.21304388110E+03  0.43749057635E+03  0.00000000000E+00 0. -1.
        -11    1    3    3    0    0  0.32527247242E+03  0.21557517047E+03  0.15340186461E+03  0.41929341457E+03  0.00000000000E+00 0.  1.
         22    1    1    2    0    0 -0.61917695441E+03 -0.45976866871E+03  0.44614025495E+04  0.45275688883E+04  0.00000000000E+00 0. -1.
<mgrwt>
<rscale>  0 0.23839330E+04</rscale>
<asrwt>0</asrwt>
<pdfrwt beam="1">  1        2 0.78555386E+00 0.23839330E+04</pdfrwt>
<pdfrwt beam="2">  1       -2 0.42808049E-01 0.23839330E+04</pdfrwt>
<totfact> 0.11783498E-01</totfact>
</mgrwt>
</event>
<event>
 6    1  0.2236204E-005  0.3171701E+04  0.7818608E-02  0.8196331E-01
         -2   -1    0    0    0  501 -0.00000000000E+00  0.00000000000E+00  0.11202890282E+04  0.11202890282E+04  0.00000000000E+00 0.  1.
          2   -1    0    0  501    0  0.00000000000E+00 -0.00000000000E+00 -0.22448861762E+04  0.22448861762E+04  0.00000000000E+00 0. -1.
         23    2    1    2    0    0 -0.56292735354E+03  0.14640893863E+04 -0.32519275506E+03  0.16046376955E+04  0.93096022877E+02 0.  0.
         13    1    3    3    0    0 -0.52556288218E+03  0.14163596830E+04 -0.31265131683E+03  0.15427384551E+04  0.00000000000E+00 0.  1.
        -13    1    3    3    0    0 -0.37364471358E+02  0.47729703260E+02 -0.12541438223E+02  0.61899240430E+02  0.00000000000E+00 0. -1.
         22    1    1    2    0    0  0.56292735354E+03 -0.14640893863E+04 -0.79940439295E+03  0.17605375088E+04  0.00000000000E+00 0.  1.
<mgrwt>
<rscale>  0 0.31717007E+04</rscale>
<asrwt>0</asrwt>
<pdfrwt beam="1">  1        2 0.34536710E+00 0.31717007E+04</pdfrwt>
<pdfrwt beam="2">  1       -2 0.17235216E+00 0.31717007E+04</pdfrwt>
<totfact> 0.84328489E-01</totfact>
</mgrwt>
</event>
<event>
 6    1  0.2635512E-005  0.3243030E+04  0.7818608E-02  0.8177545E-01
          2   -1    0    0  501    0  0.00000000000E+00  0.00000000000E+00  0.26986828378E+04  0.26986828378E+04  0.00000000000E+00 0. -1.
         -2   -1    0    0    0  501 -0.00000000000E+00 -0.00000000000E+00 -0.97429385600E+03  0.97429385600E+03  0.00000000000E+00 0.  1.
         23    2    1    2    0    0 -0.11472020726E+04 -0.71646028222E+03  0.18728674561E+04  0.23123026737E+04  0.98606364795E+02 0.  0.
         11    1    3    3    0    0 -0.72677198237E+03 -0.47645264681E+03  0.11279286568E+04  0.14238776962E+04  0.00000000000E+00 0.  1.
        -11    1    3    3    0    0 -0.42043009026E+03 -0.24000763542E+03  0.74493879938E+03  0.88842497751E+03  0.00000000000E+00 0. -1.
         22    1    1    2    0    0  0.11472020726E+04  0.71646028222E+03 -0.14847847439E+03  0.13606740200E+04  0.00000000000E+00 0.  1.
<mgrwt>
<rscale>  0 0.32430295E+04</rscale>
<asrwt>0</asrwt>
<pdfrwt beam="1">  1        2 0.41518197E+00 0.32430295E+04</pdfrwt>
<pdfrwt beam="2">  1       -2 0.14989136E+00 0.32430295E+04</pdfrwt>
<totfact> 0.66985368E-01</totfact>
</mgrwt>
</event>
<event>
 6    1  0.2236204E-005  0.3852538E+04  0.7818608E-02  0.8034973E-01
          2   -1    0    0  501    0  0.00000000000E+00  0.00000000000E+00  0.15286666564E+04  0.15286666564E+04  0.00000000000E+00 0. -1.
         -2   -1    0    0    0  501 -0.00000000000E+00 -0.00000000000E+00 -0.24272871389E+04  0.24272871389E+04  0.00000000000E+00 0.  1.
         23    2    1    2    0    0  0.62204908983E+03  0.17908625427E+04 -0.79377032379E+03  0.20572365249E+04  0.89538122602E+02 0.  0.
         13    1    3    3    0    0  0.11043636181E+03  0.42115324334E+03 -0.16441842082E+03  0.46540268745E+03  0.00000000000E+00 0.  1.
        -13    1    3    3    0    0  0.51161272802E+03  0.13697092994E+04 -0.62935190297E+03  0.15918338375E+04  0.00000000000E+00 0. -1.
         22    1    1    2    0    0 -0.62204908983E+03 -0.17908625427E+04 -0.10485015871E+03  0.18987172704E+04  0.00000000000E+00 0.  1.
<mgrwt>
<rscale>  0 0.38525383E+04</rscale>
<asrwt>0</asrwt>
<pdfrwt beam="1">  1        2 0.23517949E+00 0.38525383E+04</pdfrwt>
<pdfrwt beam="2">  1       -2 0.37342879E+00 0.38525383E+04</pdfrwt>
<totfact> 0.10770715E-01</totfact>
</mgrwt>
</event>
<event>
 6    1  0.2236204E-005  0.1424422E+04  0.7818608E-02  0.8936328E-01
         -2   -1    0    0    0  501 -0.00000000000E+00  0.00000000000E+00  0.10459399595E+04  0.10459399595E+04  0.00000000000E+00 0.  1.
          2   -1    0    0  501    0  0.00000000000E+00 -0.00000000000E+00 -0.48496516991E+03  0.48496516991E+03  0.00000000000E+00 0. -1.
         23    2    1    2    0    0 -0.59771929506E+03 -0.37372866867E+03  0.36576259288E+03  0.79943450445E+03  0.91497426619E+02 0.  0.
         13    1    3    3    0    0 -0.18397092060E+03 -0.15979267377E+03  0.14958616151E+03  0.28592834405E+03  0.00000000000E+00 0.  1.
        -13    1    3    3    0    0 -0.41374837447E+03 -0.21393599490E+03  0.21617643136E+03  0.51350616040E+03  0.00000000000E+00 0. -1.
         22    1    1    2    0    0  0.59771929506E+03  0.37372866867E+03  0.19521219676E+03  0.73147062500E+03  0.00000000000E+00 0.  1.
<mgrwt>
<rscale>  0 0.14244219E+04</rscale>
<asrwt>0</asrwt>
<pdfrwt beam="1">  1        2 0.74610026E-01 0.14244219E+04</pdfrwt>
<pdfrwt beam="2">  1       -2 0.16091384E+00 0.14244219E+04</pdfrwt>
<totfact> 0.15358296E+01</totfact>
</mgrwt>
</event>
<event>
 6    1  0.2236204E-005  0.1580242E+04  0.7818608E-02  0.8832779E-01
         -2   -1    0    0    0  501 -0.00000000000E+00  0.00000000000E+00  0.13931072688E+04  0.13931072688E+04  0.00000000000E+00 0.  1.
          2   -1    0    0  501    0  0.00000000000E+00 -0.00000000000E+00 -0.44812877738E+03  0.44812877738E+03  0.00000000000E+00 0. -1.
         23    2    1    2    0    0 -0.54667062265E+03  0.47109817180E+03  0.10664923584E+03  0.73508135633E+03  0.90489136274E+02 0.  0.
         13    1    3    3    0    0 -0.40797336445E+03  0.34279221345E+03  0.38625238076E+02  0.53426648474E+03  0.00000000000E+00 0.  1.
        -13    1    3    3    0    0 -0.13869725820E+03  0.12830595834E+03  0.68023997768E+02  0.20081487158E+03  0.00000000000E+00 0. -1.
         22    1    1    2    0    0  0.54667062265E+03 -0.47109817180E+03  0.83832925558E+03  0.11061546899E+04  0.00000000000E+00 0.  1.
<mgrwt>
<rscale>  0 0.15802423E+04</rscale>
<asrwt>0</asrwt>
<pdfrwt beam="1">  1        2 0.68942889E-01 0.15802423E+04</pdfrwt>
<pdfrwt beam="2">  1       -2 0.21432419E+00 0.15802423E+04</pdfrwt>
<totfact> 0.72030871E+00</totfact>
</mgrwt>
</event>
<event>
 6    1  0.2236204E-005  0.2348962E+04  0.7818608E-02  0.8458863E-01
          1   -1    0    0  501    0  0.00000000000E+00  0.00000000000E+00  0.20496005948E+04  0.20496005948E+04  0.00000000000E+00 0. -1.
         -1   -1    0    0    0  501 -0.00000000000E+00 -0.00000000000E+00 -0.67301176401E+03  0.67301176401E+03  0.00000000000E+00 0.  1.
         23    2    1    2    0    0  0.11202704313E+04  0.31591533068E+03  0.85538648819E+03  0.14472848646E+04  0.90216959648E+02 0.  0.
         13    1    3    3    0    0  0.68408304075E+03  0.18704990590E+03  0.46647965465E+03  0.84885837579E+03  0.00000000000E+00 0. -1.
        -13    1    3    3    0    0  0.43618739056E+03  0.12886542478E+03  0.38890683354E+03  0.59842648885E+03  0.00000000000E+00 0.  1.
         22    1    1    2    0    0 -0.11202704313E+04 -0.31591533068E+03  0.52120234259E+03  0.12753274942E+04  0.00000000000E+00 0.  1.
<mgrwt>
<rscale>  0 0.23489617E+04</rscale>
<asrwt>0</asrwt>
<pdfrwt beam="1">  1        1 0.31532316E+00 0.23489617E+04</pdfrwt>
<pdfrwt beam="2">  1       -1 0.10354027E+00 0.23489617E+04</pdfrwt>
<totfact> 0.21826751E+00</totfact>
</mgrwt>
</event>
<event>
 6    1  0.2236204E-005  0.4893107E+04  0.7818608E-02  0.7845211E-01
          2   -1    0    0  501    0  0.00000000000E+00  0.00000000000E+00  0.41086671430E+04  0.41086671430E+04  0.00000000000E+00 0. -1.
         -2   -1    0    0    0  501 -0.00000000000E+00 -0.00000000000E+00 -0.14568283650E+04  0.14568283650E+04  0.00000000000E+00 0.  1.
         23    2    1    2    0    0  0.47137057789E+03  0.20923525504E+04 -0.84462747147E+01  0.21482969509E+04  0.12238885829E+03 0.  0.
         13    1    3    3    0    0  0.11830038938E+03  0.73816958318E+03 -0.37682591465E+02  0.74853810415E+03  0.00000000000E+00 0. -1.
        -13    1    3    3    0    0  0.35307018852E+03  0.13541829673E+04  0.29236316751E+02  0.13997588467E+04  0.00000000000E+00 0.  1.
         22    1    1    2    0    0 -0.47137057789E+03 -0.20923525504E+04  0.26602850527E+04  0.34171985571E+04  0.00000000000E+00 0. -1.
<mgrwt>
<rscale>  0 0.48931065E+04</rscale>
<asrwt>0</asrwt>
<pdfrwt beam="1">  1        2 0.63210263E+00 0.48931065E+04</pdfrwt>
<pdfrwt beam="2">  1       -2 0.22412744E+00 0.48931065E+04</pdfrwt>
<totfact> 0.18915445E-02</totfact>
</mgrwt>
</event>
<event>
 6    1  0.2236204E-005  0.3005818E+04  0.7818608E-02  0.8242072E-01
         -2   -1    0    0    0  501 -0.00000000000E+00  0.00000000000E+00  0.63042588578E+03  0.63042588578E+03  0.00000000000E+00 0.  1.
          2   -1    0    0  501    0  0.00000000000E+00 -0.00000000000E+00 -0.35828717787E+04  0.35828717787E+04  0.00000000000E+00 0. -1.
         23    2    1    2    0    0  0.80809041904E+03 -0.40337376107E+02 -0.32505926460E+04  0.33510165528E+04  0.91225858746E+02 0.  0.
         11    1    3    3    0    0  0.26580693321E+03 -0.15483030241E+02 -0.12529686570E+04  0.12809463320E+04  0.00000000000E+00 0. -1.
        -11    1    3    3    0    0  0.54228348584E+03 -0.24854345865E+02 -0.19976239890E+04  0.20700702208E+04  0.00000000000E+00 0.  1.
         22    1    1    2    0    0 -0.80809041904E+03  0.40337376107E+02  0.29814675309E+03  0.86228111173E+03  0.00000000000E+00 0.  1.
<mgrwt>
<rscale>  0 0.30058178E+04</rscale>
<asrwt>0</asrwt>
<pdfrwt beam="1">  1        2 0.55121103E+00 0.30058178E+04</pdfrwt>
<pdfrwt beam="2">  1       -2 0.96988601E-01 0.30058178E+04</pdfrwt>
<totfact> 0.53905668E-01</totfact>
</mgrwt>
</event>
<event>
 6    1  0.2236204E-005  0.3468095E+04  0.7818608E-02  0.8121393E-01
         -2   -1    0    0    0  501 -0.00000000000E+00  0.00000000000E+00  0.21382440212E+04  0.21382440212E+04  0.00000000000E+00 0.  1.
          2   -1    0    0  501    0  0.00000000000E+00 -0.00000000000E+00 -0.14062568795E+04  0.14062568795E+04  0.00000000000E+00 0. -1.
         23    2    1    2    0    0 -0.13598324784E+04  0.81032657514E+03  0.10867206166E+04  0.19222773138E+04  0.91732462661E+02 0.  0.
         11    1    3    3    0    0 -0.61702854989E+03  0.39665419580E+03  0.45688585975E+03  0.86417791644E+03  0.00000000000E+00 0.  1.
        -11    1    3    3    0    0 -0.74280392856E+03  0.41367237934E+03  0.62983475686E+03  0.10580993973E+04  0.00000000000E+00 0. -1.
         22    1    1    2    0    0  0.13598324784E+04 -0.81032657514E+03 -0.35473347484E+03  0.16222235869E+04  0.00000000000E+00 0. -1.
<mgrwt>
<rscale>  0 0.34680948E+04</rscale>
<asrwt>0</asrwt>
<pdfrwt beam="1">  1        2 0.21634721E+00 0.34680948E+04</pdfrwt>
<pdfrwt beam="2">  1       -2 0.32896062E+00 0.34680948E+04</pdfrwt>
<totfact> 0.24905504E-01</totfact>
</mgrwt>
</event>
<event>
 6    1  0.2236204E-005  0.2128830E+04  0.7818608E-02  0.8548649E-01
          2   -1    0    0  501    0  0.00000000000E+00  0.00000000000E+00  0.24314445203E+04  0.24314445203E+04  0.00000000000E+00 0. -1.
         -2   -1    0    0    0  501 -0.00000000000E+00 -0.00000000000E+00 -0.46596948222E+03  0.46596948222E+03  0.00000000000E+00 0.  1.
         23    2    1    2    0    0  0.70763166303E+03 -0.78517554218E+03  0.11327544199E+04  0.15518037951E+04  0.87859205182E+02 0.  0.
         13    1    3    3    0    0  0.45045841790E+03 -0.45238374829E+03  0.64012101248E+03  0.90405683040E+03  0.00000000000E+00 0. -1.
        -13    1    3    3    0    0  0.25717324513E+03 -0.33279179389E+03  0.49263340746E+03  0.64774696467E+03  0.00000000000E+00 0.  1.
         22    1    1    2    0    0 -0.70763166303E+03  0.78517554218E+03  0.83272061817E+03  0.13456102075E+04  0.00000000000E+00 0.  1.
<mgrwt>
<rscale>  0 0.21288297E+04</rscale>
<asrwt>0</asrwt>
<pdfrwt beam="1">  1        2 0.37406838E+00 0.21288297E+04</pdfrwt>
<pdfrwt beam="2">  1       -2 0.71687614E-01 0.21288297E+04</pdfrwt>
<totfact> 0.61867590E+00</totfact>
</mgrwt>
</event>
<event>
 6    1  0.2236204E-005  0.2364933E+04  0.7818608E-02  0.8452750E-01
         -2   -1    0    0    0  501 -0.00000000000E+00  0.00000000000E+00  0.44748401856E+03  0.44748401856E+03  0.00000000000E+00 0.  1.
          2   -1    0    0  501    0  0.00000000000E+00 -0.00000000000E+00 -0.31246399503E+04  0.31246399503E+04  0.00000000000E+00 0. -1.
         23    2    1    2    0    0  0.54706110020E+03  0.92171446786E+03 -0.59398251258E+03  0.12293809394E+04  0.98634990695E+02 0.  0.
         11    1    3    3    0    0  0.36620848817E+03  0.69342913744E+03 -0.41012554483E+03  0.88496078331E+03  0.00000000000E+00 0.  1.
        -11    1    3    3    0    0  0.18085261203E+03  0.22828533041E+03 -0.18385696775E+03  0.34442015613E+03  0.00000000000E+00 0. -1.
         22    1    1    2    0    0 -0.54706110020E+03 -0.92171446786E+03 -0.20831734191E+04  0.23427430294E+04  0.00000000000E+00 0. -1.
<mgrwt>
<rscale>  0 0.23649325E+04</rscale>
<asrwt>0</asrwt>
<pdfrwt beam="1">  1        2 0.48071383E+00 0.23649325E+04</pdfrwt>
<pdfrwt beam="2">  1       -2 0.68843696E-01 0.23649325E+04</pdfrwt>
<totfact> 0.25249090E+00</totfact>
</mgrwt>
</event>
<event>
 6    1  0.2236204E-005  0.2053263E+04  0.7818608E-02  0.8582115E-01
          2   -1    0    0  501    0  0.00000000000E+00  0.00000000000E+00  0.13048690340E+04  0.13048690340E+04  0.00000000000E+00 0. -1.
         -2   -1    0    0    0  501 -0.00000000000E+00 -0.00000000000E+00 -0.80772269998E+03  0.80772269998E+03  0.00000000000E+00 0.  1.
         23    2    1    2    0    0 -0.34528684068E+03 -0.94720951700E+03  0.43642175545E+03  0.11025836420E+04  0.93796948253E+02 0.  0.
         11    1    3    3    0    0 -0.18050057033E+03 -0.54915086335E+03  0.20348674387E+03  0.61282459280E+03  0.00000000000E+00 0.  1.
        -11    1    3    3    0    0 -0.16478627035E+03 -0.39805865365E+03  0.23293501158E+03  0.48975904919E+03  0.00000000000E+00 0. -1.
         22    1    1    2    0    0  0.34528684068E+03  0.94720951700E+03  0.60724578584E+02  0.10100080920E+04  0.00000000000E+00 0.  1.
<mgrwt>
<rscale>  0 0.20532631E+04</rscale>
<asrwt>0</asrwt>
<pdfrwt beam="1">  1        2 0.20074908E+00 0.20532631E+04</pdfrwt>
<pdfrwt beam="2">  1       -2 0.12426503E+00 0.20532631E+04</pdfrwt>
<totfact> 0.73946194E+00</totfact>
</mgrwt>
</event>
<event>
 6    1  0.2236204E-005  0.1653096E+04  0.7818608E-02  0.8788577E-01
          1   -1    0    0  501    0  0.00000000000E+00  0.00000000000E+00  0.13693663772E+04  0.13693663772E+04  0.00000000000E+00 0. -1.
         -1   -1    0    0    0  501 -0.00000000000E+00 -0.00000000000E+00 -0.49890329917E+03  0.49890329917E+03  0.00000000000E+00 0.  1.
         23    2    1    2    0    0 -0.76553582667E+03  0.63817956846E+02  0.77351363732E+03  0.10939848273E+04  0.91441903199E+02 0.  0.
         11    1    3    3    0    0 -0.33151371585E+03 -0.16083710626E+02  0.31477800213E+03  0.45743329587E+03  0.00000000000E+00 0. -1.
        -11    1    3    3    0    0 -0.43402211083E+03  0.79901667472E+02  0.45873563519E+03  0.63655153141E+03  0.00000000000E+00 0.  1.
         22    1    1    2    0    0  0.76553582667E+03 -0.63817956846E+02  0.96949440746E+02  0.77428484913E+03  0.00000000000E+00 0.  1.
<mgrwt>
<rscale>  0 0.16530958E+04</rscale>
<asrwt>0</asrwt>
<pdfrwt beam="1">  1        1 0.21067175E+00 0.16530958E+04</pdfrwt>
<pdfrwt beam="2">  1       -1 0.76754354E-01 0.16530958E+04</pdfrwt>
<totfact> 0.13137544E+01</totfact>
</mgrwt>
</event>
<event>
 6    1  0.2236204E-005  0.1878336E+04  0.7818608E-02  0.8665716E-01
         -1   -1    0    0    0  501 -0.00000000000E+00  0.00000000000E+00  0.34497303067E+03  0.34497303067E+03  0.00000000000E+00 0.  1.
          1   -1    0    0  501    0  0.00000000000E+00 -0.00000000000E+00 -0.25568275668E+04  0.25568275668E+04  0.00000000000E+00 0. -1.
         23    2    1    2    0    0 -0.87705199005E+03 -0.17510066304E+03 -0.67801434769E+03  0.11262595084E+04  0.94215651954E+02 0.  0.
         13    1    3    3    0    0 -0.22383831684E+03 -0.18715887126E+02 -0.21104013161E+03  0.30820741987E+03  0.00000000000E+00 0.  1.
        -13    1    3    3    0    0 -0.65321367322E+03 -0.15638477592E+03 -0.46697421608E+03  0.81805208850E+03  0.00000000000E+00 0. -1.
         22    1    1    2    0    0  0.87705199005E+03  0.17510066304E+03 -0.15338401885E+04  0.17755410891E+04  0.00000000000E+00 0. -1.
<mgrwt>
<rscale>  0 0.18783360E+04</rscale>
<asrwt>0</asrwt>
<pdfrwt beam="1">  1        1 0.39335810E+00 0.18783360E+04</pdfrwt>
<pdfrwt beam="2">  1       -1 0.53072772E-01 0.18783360E+04</pdfrwt>
<totfact> 0.41544494E+00</totfact>
</mgrwt>
</event>
<event>
 6    1  0.2236204E-005  0.1324156E+04  0.7818608E-02  0.9010626E-01
         -2   -1    0    0    0  501 -0.00000000000E+00  0.00000000000E+00  0.15804825008E+03  0.15804825008E+03  0.00000000000E+00 0. -1.
          2   -1    0    0  501    0  0.00000000000E+00 -0.00000000000E+00 -0.27735021573E+04  0.27735021573E+04  0.00000000000E+00 0.  1.
         23    2    1    2    0    0  0.29716081660E+03 -0.50886742590E+03 -0.19666910611E+04  0.20551122529E+04  0.91444159221E+02 0.  0.
         11    1    3    3    0    0  0.22097384131E+03 -0.38411241652E+03 -0.13309886098E+04  0.14028194704E+04  0.00000000000E+00 0. -1.
        -11    1    3    3    0    0  0.76186975292E+02 -0.12475500938E+03 -0.63570245134E+03  0.65229278258E+03  0.00000000000E+00 0.  1.
         22    1    1    2    0    0 -0.29716081660E+03  0.50886742590E+03 -0.64876284608E+03  0.87643815442E+03  0.00000000000E+00 0. -1.
<mgrwt>
<rscale>  0 0.13241558E+04</rscale>
<asrwt>0</asrwt>
<pdfrwt beam="1">  1        2 0.42669261E+00 0.13241558E+04</pdfrwt>
<pdfrwt beam="2">  1       -2 0.24315117E-01 0.13241558E+04</pdfrwt>
<totfact> 0.35691264E+01</totfact>
</mgrwt>
</event>
<event>
 6    1  0.2236204E-005  0.2547777E+04  0.7818608E-02  0.8386160E-01
         -2   -1    0    0    0  501 -0.00000000000E+00  0.00000000000E+00  0.59123554679E+03  0.59123554679E+03  0.00000000000E+00 0.  1.
          2   -1    0    0  501    0  0.00000000000E+00 -0.00000000000E+00 -0.27447471589E+04  0.27447471589E+04  0.00000000000E+00 0. -1.
         23    2    1    2    0    0  0.59381457718E+03 -0.63019540754E+03 -0.22987077789E+04  0.24580055245E+04  0.89284388534E+02 0.  0.
         11    1    3    3    0    0  0.45808014389E+03 -0.53344763051E+03 -0.18946842837E+04  0.20209483734E+04  0.00000000000E+00 0. -1.
        -11    1    3    3    0    0  0.13573443329E+03 -0.96747777021E+02 -0.40402349518E+03  0.43705715118E+03  0.00000000000E+00 0.  1.
         22    1    1    2    0    0 -0.59381457718E+03  0.63019540754E+03  0.14519616682E+03  0.87797718115E+03  0.00000000000E+00 0.  1.
<mgrwt>
<rscale>  0 0.25477771E+04</rscale>
<asrwt>0</asrwt>
<pdfrwt beam="1">  1        2 0.42226879E+00 0.25477771E+04</pdfrwt>
<pdfrwt beam="2">  1       -2 0.90959316E-01 0.25477771E+04</pdfrwt>
<totfact> 0.22869650E+00</totfact>
</mgrwt>
</event>
<event>
 6    1  0.2236204E-005  0.2679549E+04  0.7818608E-02  0.8341671E-01
         -2   -1    0    0    0  501 -0.00000000000E+00  0.00000000000E+00  0.62995826958E+03  0.62995826958E+03  0.00000000000E+00 0. -1.
          2   -1    0    0  501    0  0.00000000000E+00 -0.00000000000E+00 -0.28493882969E+04  0.28493882969E+04  0.00000000000E+00 0.  1.
         23    2    1    2    0    0  0.81389928060E+03 -0.85045826530E+03 -0.19376885202E+04  0.22689377195E+04  0.87921974611E+02 0.  0.
         13    1    3    3    0    0  0.30398697570E+03 -0.37296563001E+03 -0.75189175643E+03  0.89266603831E+03  0.00000000000E+00 0. -1.
        -13    1    3    3    0    0  0.50991230490E+03 -0.47749263529E+03 -0.11857967638E+04  0.13762716812E+04  0.00000000000E+00 0.  1.
         22    1    1    2    0    0 -0.81389928060E+03  0.85045826530E+03 -0.28174150709E+03  0.12104088470E+04  0.00000000000E+00 0. -1.
<mgrwt>
<rscale>  0 0.26795490E+04</rscale>
<asrwt>0</asrwt>
<pdfrwt beam="1">  1        2 0.43836743E+00 0.26795490E+04</pdfrwt>
<pdfrwt beam="2">  1       -2 0.96916657E-01 0.26795490E+04</pdfrwt>
<totfact> 0.16860012E+00</totfact>
</mgrwt>
</event>
<event>
 6    1  0.2236204E-005  0.2582985E+04  0.7818608E-02  0.8374004E-01
         -4   -1    0    0    0  501 -0.00000000000E+00  0.00000000000E+00  0.20093721767E+04  0.20093721767E+04  0.00000000000E+00 0.  1.
          4   -1    0    0  501    0  0.00000000000E+00 -0.00000000000E+00 -0.83008648472E+03  0.83008648472E+03  0.00000000000E+00 0. -1.
         23    2    1    2    0    0 -0.83127003769E+03  0.35457941220E+03  0.16020127771E+04  0.18417439610E+04  0.94018320982E+02 0.  0.
         11    1    3    3    0    0 -0.43289589291E+01  0.27878181359E-01 -0.34264514651E-01  0.43291842950E+01  0.00000000000E+00 0. -1.
        -11    1    3    3    0    0 -0.82694107876E+03  0.35455153401E+03  0.16020470416E+04  0.18374147767E+04  0.00000000000E+00 0.  1.
         22    1    1    2    0    0  0.83127003769E+03 -0.35457941220E+03 -0.42272708509E+03  0.99771470049E+03  0.00000000000E+00 0. -1.
<mgrwt>
<rscale>  0 0.25829849E+04</rscale>
<asrwt>0</asrwt>
<pdfrwt beam="1">  1        4 0.12770561E+00 0.25829849E+04</pdfrwt>
<pdfrwt beam="2">  1       -4 0.30913418E+00 0.25829849E+04</pdfrwt>
<totfact> 0.21640952E-02</totfact>
</mgrwt>
</event>
<event>
 6    1  0.2236204E-005  0.5160950E+04  0.7818608E-02  0.7804148E-01
         -2   -1    0    0    0  501 -0.00000000000E+00  0.00000000000E+00  0.28713915950E+04  0.28713915950E+04  0.00000000000E+00 0.  1.
          2   -1    0    0  501    0  0.00000000000E+00 -0.00000000000E+00 -0.23190328780E+04  0.23190328780E+04  0.00000000000E+00 0. -1.
         23    2    1    2    0    0  0.10919332688E+04 -0.40304711584E+03 -0.20390022789E+04  0.23496645301E+04  0.92886325024E+02 0.  0.
         13    1    3    3    0    0  0.67740006400E+02 -0.32353148606E+02 -0.18072397632E+03  0.19569514636E+03  0.00000000000E+00 0.  1.
        -13    1    3    3    0    0  0.10241932624E+04 -0.37069396723E+03 -0.18582783026E+04  0.21539693838E+04  0.00000000000E+00 0. -1.
         22    1    1    2    0    0 -0.10919332688E+04  0.40304711584E+03  0.25913609960E+04  0.28407599428E+04  0.00000000000E+00 0.  1.
<mgrwt>
<rscale>  0 0.51609501E+04</rscale>
<asrwt>0</asrwt>
<pdfrwt beam="1">  1        2 0.35677429E+00 0.51609501E+04</pdfrwt>
<pdfrwt beam="2">  1       -2 0.44175255E+00 0.51609501E+04</pdfrwt>
<totfact> 0.12543000E-02</totfact>
</mgrwt>
</event>
<event>
 6    1  0.2236204E-005  0.3400098E+04  0.7818608E-02  0.8137882E-01
         -2   -1    0    0    0  501 -0.00000000000E+00  0.00000000000E+00  0.17377120764E+04  0.17377120764E+04  0.00000000000E+00 0.  1.
          2   -1    0    0  501    0  0.00000000000E+00 -0.00000000000E+00 -0.16632024895E+04  0.16632024895E+04  0.00000000000E+00 0. -1.
         23    2    1    2    0    0 -0.14007454971E+04 -0.80235123145E+03  0.56680193769E+03  0.17132513279E+04  0.90056813758E+02 0.  0.
         11    1    3    3    0    0 -0.87285709579E+03 -0.46127448985E+03  0.37621444576E+03  0.10564993961E+04  0.00000000000E+00 0.  1.
        -11    1    3    3    0    0 -0.52788840131E+03 -0.34107674161E+03  0.19058749193E+03  0.65675193184E+03  0.00000000000E+00 0. -1.
         22    1    1    2    0    0  0.14007454971E+04  0.80235123145E+03 -0.49229235075E+03  0.16876632380E+04  0.00000000000E+00 0. -1.
<mgrwt>
<rscale>  0 0.34000983E+04</rscale>
<asrwt>0</asrwt>
<pdfrwt beam="1">  1        2 0.25587730E+00 0.34000983E+04</pdfrwt>
<pdfrwt beam="2">  1       -2 0.26734032E+00 0.34000983E+04</pdfrwt>
<totfact> 0.42854127E-01</totfact>
</mgrwt>
</event>
<event>
 6    1  0.2236204E-005  0.1294439E+04  0.7818608E-02  0.9033986E-01
         -2   -1    0    0    0  501 -0.00000000000E+00  0.00000000000E+00  0.51371389653E+03  0.51371389653E+03  0.00000000000E+00 0.  1.
          2   -1    0    0  501    0  0.00000000000E+00 -0.00000000000E+00 -0.81542139233E+03  0.81542139233E+03  0.00000000000E+00 0. -1.
         23    2    1    2    0    0 -0.18244635205E+03 -0.59558714664E+03 -0.31924550569E+03  0.70598337928E+03  0.92109273706E+02 0.  0.
         11    1    3    3    0    0 -0.28285611777E+02 -0.19642182972E+03 -0.13552810918E+03  0.24031121364E+03  0.00000000000E+00 0. -1.
        -11    1    3    3    0    0 -0.15416074028E+03 -0.39916531692E+03 -0.18371739651E+03  0.46567216565E+03  0.00000000000E+00 0.  1.
         22    1    1    2    0    0  0.18244635205E+03  0.59558714664E+03  0.17538009890E+02  0.62315190958E+03  0.00000000000E+00 0.  1.
<mgrwt>
<rscale>  0 0.12944393E+04</rscale>
<asrwt>0</asrwt>
<pdfrwt beam="1">  1        2 0.12544944E+00 0.12944393E+04</pdfrwt>
<pdfrwt beam="2">  1       -2 0.79032907E-01 0.12944393E+04</pdfrwt>
<totfact> 0.46791494E+01</totfact>
</mgrwt>
</event>
<event>
 6    1  0.2236204E-005  0.1073487E+04  0.7818608E-02  0.9231425E-01
         -2   -1    0    0    0  501 -0.00000000000E+00  0.00000000000E+00  0.14396894755E+03  0.14396894755E+03  0.00000000000E+00 0.  1.
          2   -1    0    0  501    0  0.00000000000E+00 -0.00000000000E+00 -0.20010820234E+04  0.20010820234E+04  0.00000000000E+00 0. -1.
         23    2    1    2    0    0  0.48738338954E+03  0.15587881139E+03 -0.12332940862E+04  0.13382108975E+04  0.89181449502E+02 0.  0.
         11    1    3    3    0    0  0.16327078795E+03  0.97230847070E+02 -0.44690801607E+03  0.48563150911E+03  0.00000000000E+00 0.  1.
        -11    1    3    3    0    0  0.32411260159E+03  0.58647964318E+02 -0.78638607011E+03  0.85257938838E+03  0.00000000000E+00 0. -1.
         22    1    1    2    0    0 -0.48738338954E+03 -0.15587881139E+03 -0.62381898964E+03  0.80684007342E+03  0.00000000000E+00 0.  1.
<mgrwt>
<rscale>  0 0.10734872E+04</rscale>
<asrwt>0</asrwt>
<pdfrwt beam="1">  1        2 0.30785875E+00 0.10734872E+04</pdfrwt>
<pdfrwt beam="2">  1       -2 0.22149070E-01 0.10734872E+04</pdfrwt>
<totfact> 0.11865256E+02</totfact>
</mgrwt>
</event>
<event>
 6    1  0.2236204E-005  0.2667221E+04  0.7818608E-02  0.8345720E-01
         -2   -1    0    0    0  501 -0.00000000000E+00  0.00000000000E+00  0.62432144844E+03  0.62432144844E+03  0.00000000000E+00 0. -1.
          2   -1    0    0  501    0  0.00000000000E+00 -0.00000000000E+00 -0.28487196277E+04  0.28487196277E+04  0.00000000000E+00 0.  1.
         23    2    1    2    0    0  0.11642481320E+04 -0.10237531445E+03 -0.28109477186E+03  0.12053588781E+04  0.89001889925E+02 0.  0.
         11    1    3    3    0    0  0.13551179266E+03 -0.40909742940E+02 -0.34513359296E+02  0.14569909055E+03  0.00000000000E+00 0.  1.
        -11    1    3    3    0    0  0.10287363394E+04 -0.61465571507E+02 -0.24658141256E+03  0.10596597876E+04  0.00000000000E+00 0. -1.
         22    1    1    2    0    0 -0.11642481320E+04  0.10237531445E+03 -0.19433034074E+04  0.22676821980E+04  0.00000000000E+00 0.  1.
<mgrwt>
<rscale>  0 0.26672208E+04</rscale>
<asrwt>0</asrwt>
<pdfrwt beam="1">  1        2 0.43826456E+00 0.26672208E+04</pdfrwt>
<pdfrwt beam="2">  1       -2 0.96049453E-01 0.26672208E+04</pdfrwt>
<totfact> 0.17253642E+00</totfact>
</mgrwt>
</event>
<event>
 6    1  0.2236204E-005  0.1260649E+04  0.7818608E-02  0.9061366E-01
          2   -1    0    0  501    0  0.00000000000E+00  0.00000000000E+00  0.11368435202E+04  0.11368435202E+04  0.00000000000E+00 0.  1.
         -2   -1    0    0    0  501 -0.00000000000E+00 -0.00000000000E+00 -0.34948426311E+03  0.34948426311E+03  0.00000000000E+00 0. -1.
         23    2    1    2    0    0  0.24476051033E+03 -0.23846900625E+03 -0.22382306955E+03  0.41896426882E+03  0.93054380453E+02 0.  0.
         11    1    3    3    0    0  0.29154738289E+02 -0.84057704989E+02 -0.55743687678E+02  0.10499073887E+03  0.00000000000E+00 0. -1.
        -11    1    3    3    0    0  0.21560577204E+03 -0.15441130126E+03 -0.16807938187E+03  0.31397352995E+03  0.00000000000E+00 0.  1.
         22    1    1    2    0    0 -0.24476051033E+03  0.23846900625E+03  0.10111823267E+04  0.10673635145E+04  0.00000000000E+00 0.  1.
<mgrwt>
<rscale>  0 0.12606489E+04</rscale>
<asrwt>0</asrwt>
<pdfrwt beam="1">  1        2 0.17489900E+00 0.12606489E+04</pdfrwt>
<pdfrwt beam="2">  1       -2 0.53766810E-01 0.12606489E+04</pdfrwt>
<totfact> 0.66227977E+01</totfact>
</mgrwt>
</event>
<event>
 6    1  0.2236204E-005  0.3644965E+04  0.7818608E-02  0.8080269E-01
         -2   -1    0    0    0  501 -0.00000000000E+00  0.00000000000E+00  0.16030888966E+04  0.16030888966E+04  0.00000000000E+00 0.  1.
          2   -1    0    0  501    0  0.00000000000E+00 -0.00000000000E+00 -0.20719013607E+04  0.20719013607E+04  0.00000000000E+00 0. -1.
         23    2    1    2    0    0 -0.57761881651E+02 -0.17259044447E+04 -0.81839611884E+03  0.19130903400E+04  0.89776691141E+02 0.  0.
         13    1    3    3    0    0 -0.57747292405E+02 -0.81994529827E+03 -0.42591184919E+03  0.92576775987E+03  0.00000000000E+00 0.  1.
        -13    1    3    3    0    0 -0.14589245937E-01 -0.90595914643E+03 -0.39248426965E+03  0.98732258008E+03  0.00000000000E+00 0. -1.
         22    1    1    2    0    0  0.57761881651E+02  0.17259044447E+04  0.34958365480E+03  0.17618999174E+04  0.00000000000E+00 0.  1.
<mgrwt>
<rscale>  0 0.36449648E+04</rscale>
<asrwt>0</asrwt>
<pdfrwt beam="1">  1        2 0.31875405E+00 0.36449648E+04</pdfrwt>
<pdfrwt beam="2">  1       -2 0.24662906E+00 0.36449648E+04</pdfrwt>
<totfact> 0.33350799E-01</totfact>
</mgrwt>
</event>
<event>
 6    1  0.2695261E-005  0.5472294E+04  0.7818608E-02  0.7759513E-01
         -2   -1    0    0    0  501 -0.00000000000E+00  0.00000000000E+00  0.24352199639E+04  0.24352199639E+04  0.00000000000E+00 0.  1.
          2   -1    0    0  501    0  0.00000000000E+00 -0.00000000000E+00 -0.30742604316E+04  0.30742604316E+04  0.00000000000E+00 0. -1.
         23    2    1    2    0    0  0.98982984240E+03  0.19380614213E+04  0.13487915118E+04  0.25620542016E+04  0.95068397619E+02 0.  0.
         11    1    3    3    0    0  0.45037789747E+03  0.96682226605E+03  0.62813622488E+03  0.12377966964E+04  0.00000000000E+00 0. -1.
        -11    1    3    3    0    0  0.53945194493E+03  0.97123915522E+03  0.72065528693E+03  0.13242575052E+04  0.00000000000E+00 0.  1.
         22    1    1    2    0    0 -0.98982984240E+03 -0.19380614213E+04 -0.19878319795E+04  0.29474261939E+04  0.00000000000E+00 0. -1.
<mgrwt>
<rscale>  0 0.54722940E+04</rscale>
<asrwt>0</asrwt>
<pdfrwt beam="1">  1        2 0.47296314E+00 0.54722940E+04</pdfrwt>
<pdfrwt beam="2">  1       -2 0.37464923E+00 0.54722940E+04</pdfrwt>
<totfact> 0.11878295E-02</totfact>
</mgrwt>
</event>
<event>
 6    1  0.2236204E-005  0.3469780E+04  0.7818608E-02  0.8120989E-01
          2   -1    0    0  501    0  0.00000000000E+00  0.00000000000E+00  0.18383242400E+04  0.18383242400E+04  0.00000000000E+00 0. -1.
         -2   -1    0    0    0  501 -0.00000000000E+00 -0.00000000000E+00 -0.16372752165E+04  0.16372752165E+04  0.00000000000E+00 0.  1.
         23    2    1    2    0    0 -0.57729083128E+03  0.57184634666E+03 -0.14334049818E+04  0.16503014415E+04  0.92585408875E+02 0.  0.
         11    1    3    3    0    0 -0.31084114133E+02  0.25756058005E+02 -0.12020070924E+03  0.12679829327E+03  0.00000000000E+00 0.  1.
        -11    1    3    3    0    0 -0.54620671714E+03  0.54609028866E+03 -0.13132042726E+04  0.15235031483E+04  0.00000000000E+00 0. -1.
         22    1    1    2    0    0  0.57729083128E+03 -0.57184634666E+03  0.16344540053E+04  0.18252980150E+04  0.00000000000E+00 0. -1.
<mgrwt>
<rscale>  0 0.34697797E+04</rscale>
<asrwt>0</asrwt>
<pdfrwt beam="1">  1        2 0.28281911E+00 0.34697797E+04</pdfrwt>
<pdfrwt beam="2">  1       -2 0.25188850E+00 0.34697797E+04</pdfrwt>
<totfact> 0.42346936E-01</totfact>
</mgrwt>
</event>
<event>
 6    1  0.2236204E-005  0.1624854E+04  0.7818608E-02  0.8805423E-01
          2   -1    0    0  501    0  0.00000000000E+00  0.00000000000E+00  0.11395736637E+04  0.11395736637E+04  0.00000000000E+00 0. -1.
         -2   -1    0    0    0  501 -0.00000000000E+00 -0.00000000000E+00 -0.57919726445E+03  0.57919726445E+03  0.00000000000E+00 0.  1.
         23    2    1    2    0    0 -0.76443738709E+03 -0.34278744246E+02  0.56149739093E+03  0.95356454571E+03  0.92013432303E+02 0.  0.
         11    1    3    3    0    0 -0.65078051595E+03 -0.38690488503E+02  0.51449881408E+03  0.83049458971E+03  0.00000000000E+00 0. -1.
        -11    1    3    3    0    0 -0.11365687114E+03  0.44117442572E+01  0.46998576850E+02  0.12306995600E+03  0.00000000000E+00 0.  1.
         22    1    1    2    0    0  0.76443738709E+03  0.34278744246E+02 -0.11209916987E+01  0.76520638243E+03  0.00000000000E+00 0.  1.
<mgrwt>
<rscale>  0 0.16248544E+04</rscale>
<asrwt>0</asrwt>
<pdfrwt beam="1">  1        2 0.17531902E+00 0.16248544E+04</pdfrwt>
<pdfrwt beam="2">  1       -2 0.89107272E-01 0.16248544E+04</pdfrwt>
<totfact> 0.21326362E+01</totfact>
</mgrwt>
</event>
<event>
 6    1  0.2236204E-005  0.2545083E+04  0.7818608E-02  0.8387098E-01
         -2   -1    0    0    0  501 -0.00000000000E+00  0.00000000000E+00  0.42667034569E+03  0.42667034569E+03  0.00000000000E+00 0.  1.
          2   -1    0    0  501    0  0.00000000000E+00 -0.00000000000E+00 -0.37953470154E+04  0.37953470154E+04  0.00000000000E+00 0. -1.
         23    2    1    2    0    0 -0.59639049563E+03 -0.42988162179E+03 -0.34061375380E+04  0.34858902330E+04  0.95801655037E+02 0.  0.
         11    1    3    3    0    0 -0.20462146708E+03 -0.19313497983E+03 -0.14315011363E+04  0.14588922402E+04  0.00000000000E+00 0. -1.
        -11    1    3    3    0    0 -0.39176902854E+03 -0.23674664196E+03 -0.19746364017E+04  0.20269979929E+04  0.00000000000E+00 0.  1.
         22    1    1    2    0    0  0.59639049563E+03  0.42988162179E+03  0.37460868258E+02  0.73612712807E+03  0.00000000000E+00 0.  1.
<mgrwt>
<rscale>  0 0.25450831E+04</rscale>
<asrwt>0</asrwt>
<pdfrwt beam="1">  1        2 0.58389957E+00 0.25450831E+04</pdfrwt>
<pdfrwt beam="2">  1       -2 0.65641588E-01 0.25450831E+04</pdfrwt>
<totfact> 0.94234334E-01</totfact>
</mgrwt>
</event>
<event>
 6    1  0.2562742E-005  0.3315619E+04  0.7818608E-02  0.8158932E-01
         -2   -1    0    0    0  501 -0.00000000000E+00  0.00000000000E+00  0.12279817391E+04  0.12279817391E+04  0.00000000000E+00 0.  1.
          2   -1    0    0  501    0  0.00000000000E+00 -0.00000000000E+00 -0.22380895576E+04  0.22380895576E+04  0.00000000000E+00 0. -1.
         23    2    1    2    0    0 -0.50037851110E+03  0.11319911439E+04 -0.16564859662E+04  0.20697950654E+04  0.91231859935E+02 0.  0.
         13    1    3    3    0    0 -0.43168886728E+03  0.88689385668E+03 -0.13063314662E+04  0.16368988639E+04  0.00000000000E+00 0. -1.
        -13    1    3    3    0    0 -0.68689643817E+02  0.24509728722E+03 -0.35015449995E+03  0.43289620143E+03  0.00000000000E+00 0.  1.
         22    1    1    2    0    0  0.50037851110E+03 -0.11319911439E+04  0.64637814773E+03  0.13962762313E+04  0.00000000000E+00 0.  1.
<mgrwt>
<rscale>  0 0.33156195E+04</rscale>
<asrwt>0</asrwt>
<pdfrwt beam="1">  1        2 0.34432147E+00 0.33156195E+04</pdfrwt>
<pdfrwt beam="2">  1       -2 0.18892027E+00 0.33156195E+04</pdfrwt>
<totfact> 0.64615104E-01</totfact>
</mgrwt>
</event>
<event>
 6    1  0.2236204E-005  0.2027441E+04  0.7818608E-02  0.8593898E-01
         -1   -1    0    0    0  501 -0.00000000000E+00  0.00000000000E+00  0.78455558322E+03  0.78455558322E+03  0.00000000000E+00 0.  1.
          1   -1    0    0  501    0  0.00000000000E+00 -0.00000000000E+00 -0.13098231430E+04  0.13098231430E+04  0.00000000000E+00 0. -1.
         23    2    1    2    0    0  0.38344336618E+03  0.51098990148E+03  0.54655453233E+03  0.84660387007E+03  0.99381897322E+02 0.  0.
         11    1    3    3    0    0  0.29747293616E+03  0.33917542303E+03  0.34321031610E+03  0.56685398156E+03  0.00000000000E+00 0.  1.
        -11    1    3    3    0    0  0.85970430022E+02  0.17181447845E+03  0.20334421623E+03  0.27974988850E+03  0.00000000000E+00 0. -1.
         22    1    1    2    0    0 -0.38344336618E+03 -0.51098990148E+03 -0.10718220921E+04  0.12477748561E+04  0.00000000000E+00 0. -1.
<mgrwt>
<rscale>  0 0.20274408E+04</rscale>
<asrwt>0</asrwt>
<pdfrwt beam="1">  1        1 0.20151125E+00 0.20274408E+04</pdfrwt>
<pdfrwt beam="2">  1       -1 0.12070086E+00 0.20274408E+04</pdfrwt>
<totfact> 0.50272892E+00</totfact>
</mgrwt>
</event>
<event>
 6    1  0.2236204E-005  0.1045886E+04  0.7818608E-02  0.9259602E-01
         -2   -1    0    0    0  501 -0.00000000000E+00  0.00000000000E+00  0.66045179415E+03  0.66045179415E+03  0.00000000000E+00 0.  1.
          2   -1    0    0  501    0  0.00000000000E+00 -0.00000000000E+00 -0.41406377631E+03  0.41406377631E+03  0.00000000000E+00 0. -1.
         23    2    1    2    0    0 -0.48661333840E+03  0.17688159719E+03  0.89257506770E+02  0.53343365610E+03  0.92222136254E+02 0.  0.
         11    1    3    3    0    0 -0.51482395283E+02  0.50785031079E+02  0.20875118795E+02  0.75268366466E+02  0.00000000000E+00 0.  1.
        -11    1    3    3    0    0 -0.43513094312E+03  0.12609656611E+03  0.68382387975E+02  0.45816528964E+03  0.00000000000E+00 0. -1.
         22    1    1    2    0    0  0.48661333840E+03 -0.17688159719E+03  0.15713051107E+03  0.54108191435E+03  0.00000000000E+00 0.  1.
<mgrwt>
<rscale>  0 0.10458856E+04</rscale>
<asrwt>0</asrwt>
<pdfrwt beam="1">  1        2 0.63702120E-01 0.10458856E+04</pdfrwt>
<pdfrwt beam="2">  1       -2 0.10160797E+00 0.10458856E+04</pdfrwt>
<totfact> 0.60574679E+01</totfact>
</mgrwt>
</event>
<event>
 6    1  0.2236204E-005  0.6754914E+03  0.7818608E-02  0.9760088E-01
         -1   -1    0    0    0  501 -0.00000000000E+00  0.00000000000E+00  0.82494061212E+02  0.82494061212E+02  0.00000000000E+00 0.  1.
          1   -1    0    0  501    0  0.00000000000E+00 -0.00000000000E+00 -0.13827925664E+04  0.13827925664E+04  0.00000000000E+00 0. -1.
         23    2    1    2    0    0 -0.26665379868E+03 -0.12228799208E+03 -0.32713788817E+03  0.44887126573E+03  0.91693042084E+02 0.  0.
         13    1    3    3    0    0 -0.63952206705E+02  0.16511675026E+01 -0.37134326402E+02  0.73970056739E+02  0.00000000000E+00 0.  1.
        -13    1    3    3    0    0 -0.20270159197E+03 -0.12393915958E+03 -0.29000356176E+03  0.37490120899E+03  0.00000000000E+00 0. -1.
         22    1    1    2    0    0  0.26665379868E+03  0.12228799208E+03 -0.97316061702E+03  0.10164153619E+04  0.00000000000E+00 0. -1.
<mgrwt>
<rscale>  0 0.67549145E+03</rscale>
<asrwt>0</asrwt>
<pdfrwt beam="1">  1        1 0.21273731E+00 0.67549145E+03</pdfrwt>
<pdfrwt beam="2">  1       -1 0.12691394E-01 0.67549145E+03</pdfrwt>
<totfact> 0.34757005E+02</totfact>
</mgrwt>
</event>
<event>
 6    1  0.2236204E-005  0.2295963E+04  0.7818608E-02  0.8479514E-01
         -2   -1    0    0    0  501 -0.00000000000E+00  0.00000000000E+00  0.22317768072E+04  0.22317768072E+04  0.00000000000E+00 0.  1.
          2   -1    0    0  501    0  0.00000000000E+00 -0.00000000000E+00 -0.59049887954E+03  0.59049887954E+03  0.00000000000E+00 0. -1.
         23    2    1    2    0    0 -0.34522930114E+03  0.21155177198E+03  0.21398569418E+04  0.21799996901E+04  0.97331879153E+02 0.  0.
         13    1    3    3    0    0 -0.28069965910E+03  0.15002189834E+03  0.18339755655E+04  0.18613879884E+04  0.00000000000E+00 0. -1.
        -13    1    3    3    0    0 -0.64529642044E+02  0.61529873644E+02  0.30588137632E+03  0.31861170166E+03  0.00000000000E+00 0.  1.
         22    1    1    2    0    0  0.34522930114E+03 -0.21155177198E+03 -0.49857901413E+03  0.64227599669E+03  0.00000000000E+00 0. -1.
<mgrwt>
<rscale>  0 0.22959632E+04</rscale>
<asrwt>0</asrwt>
<pdfrwt beam="1">  1        2 0.90845983E-01 0.22959632E+04</pdfrwt>
<pdfrwt beam="2">  1       -2 0.34335027E+00 0.22959632E+04</pdfrwt>
<totfact> 0.78638929E-01</totfact>
</mgrwt>
</event>
<event>
 6    1  0.2236204E-005  0.1852707E+04  0.7818608E-02  0.8678762E-01
         -2   -1    0    0    0  501 -0.00000000000E+00  0.00000000000E+00  0.35918883066E+03  0.35918883066E+03  0.00000000000E+00 0. -1.
          2   -1    0    0  501    0  0.00000000000E+00 -0.00000000000E+00 -0.23890809394E+04  0.23890809394E+04  0.00000000000E+00 0.  1.
         23    2    1    2    0    0  0.68231495311E+03  0.52981820747E+02 -0.19383494315E+04  0.20578055564E+04  0.94891626486E+02 0.  0.
         11    1    3    3    0    0  0.17748062568E+03  0.52905367420E+02 -0.56750345616E+03  0.59695772308E+03  0.00000000000E+00 0. -1.
        -11    1    3    3    0    0  0.50483432743E+03  0.76453326539E-01 -0.13708459753E+04  0.14608478333E+04  0.00000000000E+00 0.  1.
         22    1    1    2    0    0 -0.68231495311E+03 -0.52981820747E+02 -0.91542677208E+02  0.69046421364E+03  0.00000000000E+00 0. -1.
<mgrwt>
<rscale>  0 0.18527074E+04</rscale>
<asrwt>0</asrwt>
<pdfrwt beam="1">  1        2 0.36755091E+00 0.18527074E+04</pdfrwt>
<pdfrwt beam="2">  1       -2 0.55259820E-01 0.18527074E+04</pdfrwt>
<totfact> 0.11680254E+01</totfact>
</mgrwt>
</event>
<event>
 6    1  0.2236204E-005  0.1742642E+04  0.7818608E-02  0.8737411E-01
          2   -1    0    0  501    0  0.00000000000E+00  0.00000000000E+00  0.39224996109E+04  0.39224996109E+04  0.00000000000E+00 0. -1.
         -2   -1    0    0    0  501 -0.00000000000E+00 -0.00000000000E+00 -0.19355017973E+03  0.19355017973E+03  0.00000000000E+00 0.  1.
         23    2    1    2    0    0 -0.51730414138E+03 -0.27409342460E+03  0.33862799851E+04  0.34377039132E+04  0.90472524381E+02 0.  0.
         13    1    3    3    0    0 -0.45897241157E+03 -0.26745174125E+03  0.29436301474E+04  0.29911777870E+04  0.00000000000E+00 0. -1.
        -13    1    3    3    0    0 -0.58331729807E+02 -0.66416833456E+01  0.44264983762E+03  0.44652612623E+03  0.00000000000E+00 0.  1.
         22    1    1    2    0    0  0.51730414138E+03  0.27409342460E+03  0.34266944609E+03  0.67834587739E+03  0.00000000000E+00 0.  1.
<mgrwt>
<rscale>  0 0.17426423E+04</rscale>
<asrwt>0</asrwt>
<pdfrwt beam="1">  1        2 0.60346142E+00 0.17426423E+04</pdfrwt>
<pdfrwt beam="2">  1       -2 0.29776954E-01 0.17426423E+04</pdfrwt>
<totfact> 0.39501486E+00</totfact>
</mgrwt>
</event>
<event>
 6    1  0.2236204E-005  0.2626501E+04  0.7818608E-02  0.8359255E-01
         -2   -1    0    0    0  501 -0.00000000000E+00  0.00000000000E+00  0.70718795725E+03  0.70718795725E+03  0.00000000000E+00 0.  1.
          2   -1    0    0  501    0  0.00000000000E+00 -0.00000000000E+00 -0.24387100489E+04  0.24387100489E+04  0.00000000000E+00 0. -1.
         23    2    1    2    0    0 -0.11521470623E+03 -0.42248033126E+03 -0.23477170525E+04  0.23899480815E+04  0.91172447422E+02 0.  0.
         11    1    3    3    0    0 -0.31847034574E+02 -0.21246809580E+03 -0.13480844462E+04  0.13650965531E+04  0.00000000000E+00 0. -1.
        -11    1    3    3    0    0 -0.83367671657E+02 -0.21001223546E+03 -0.99963260628E+03  0.10248515284E+04  0.00000000000E+00 0.  1.
         22    1    1    2    0    0  0.11521470623E+03  0.42248033126E+03  0.61619496080E+03  0.75594992463E+03  0.00000000000E+00 0.  1.
<mgrwt>
<rscale>  0 0.26265006E+04</rscale>
<asrwt>0</asrwt>
<pdfrwt beam="1">  1        2 0.37518616E+00 0.26265006E+04</pdfrwt>
<pdfrwt beam="2">  1       -2 0.10879815E+00 0.26265006E+04</pdfrwt>
<totfact> 0.22488525E+00</totfact>
</mgrwt>
</event>
<event>
 6    1  0.2236204E-005  0.1305468E+04  0.7818608E-02  0.9025240E-01
         -2   -1    0    0    0  501 -0.00000000000E+00  0.00000000000E+00  0.65864336324E+03  0.65864336324E+03  0.00000000000E+00 0.  1.
          2   -1    0    0  501    0  0.00000000000E+00 -0.00000000000E+00 -0.64687742703E+03  0.64687742703E+03  0.00000000000E+00 0. -1.
         23    2    1    2    0    0  0.42985782655E+03 -0.48708053888E+03  0.12826544297E+02  0.65588525607E+03  0.89418938147E+02 0.  0.
         13    1    3    3    0    0  0.12712050941E+03 -0.19357131523E+03  0.32045283015E+02  0.23378703590E+03  0.00000000000E+00 0. -1.
        -13    1    3    3    0    0  0.30273731714E+03 -0.29350922365E+03 -0.19218738718E+02  0.42209822017E+03  0.00000000000E+00 0.  1.
         22    1    1    2    0    0 -0.42985782655E+03  0.48708053888E+03 -0.10606080879E+01  0.64963553419E+03  0.00000000000E+00 0. -1.
<mgrwt>
<rscale>  0 0.13054678E+04</rscale>
<asrwt>0</asrwt>
<pdfrwt beam="1">  1        2 0.99519604E-01 0.13054678E+04</pdfrwt>
<pdfrwt beam="2">  1       -2 0.10132975E+00 0.13054678E+04</pdfrwt>
<totfact> 0.35481622E+01</totfact>
</mgrwt>
</event>
<event>
 6    1  0.2236204E-005  0.2202980E+04  0.7818608E-02  0.8517189E-01
         -2   -1    0    0    0  501 -0.00000000000E+00  0.00000000000E+00  0.13324749787E+04  0.13324749787E+04  0.00000000000E+00 0.  1.
          2   -1    0    0  501    0  0.00000000000E+00 -0.00000000000E+00 -0.91054636322E+03  0.91054636322E+03  0.00000000000E+00 0. -1.
         23    2    1    2    0    0 -0.69513600508E+03  0.50095791149E+03  0.91298303178E+03  0.12554448464E+04  0.91819667649E+02 0.  0.
         13    1    3    3    0    0 -0.40859645162E+03  0.28015011877E+03  0.46304925247E+03  0.67812223053E+03  0.00000000000E+00 0. -1.
        -13    1    3    3    0    0 -0.28653955347E+03  0.22080779272E+03  0.44993377931E+03  0.57732261587E+03  0.00000000000E+00 0.  1.
         22    1    1    2    0    0  0.69513600508E+03 -0.50095791149E+03 -0.49105441634E+03  0.98757649549E+03  0.00000000000E+00 0. -1.
<mgrwt>
<rscale>  0 0.22029800E+04</rscale>
<asrwt>0</asrwt>
<pdfrwt beam="1">  1        2 0.14008406E+00 0.22029800E+04</pdfrwt>
<pdfrwt beam="2">  1       -2 0.20499615E+00 0.22029800E+04</pdfrwt>
<totfact> 0.32506872E+00</totfact>
</mgrwt>
</event>
<event>
 6    1  0.2236204E-005  0.1171589E+04  0.7818608E-02  0.9138095E-01
         -2   -1    0    0    0  501 -0.00000000000E+00  0.00000000000E+00  0.12744208916E+03  0.12744208916E+03  0.00000000000E+00 0.  1.
          2   -1    0    0  501    0  0.00000000000E+00 -0.00000000000E+00 -0.26926356634E+04  0.26926356634E+04  0.00000000000E+00 0. -1.
         23    2    1    2    0    0 -0.25338237494E+03 -0.51178718068E+03 -0.10183771183E+04  0.11712084749E+04  0.92242021226E+02 0.  0.
         11    1    3    3    0    0 -0.22251608562E+03 -0.43833405885E+03 -0.80244857381E+03  0.94104934467E+03  0.00000000000E+00 0. -1.
        -11    1    3    3    0    0 -0.30866289325E+02 -0.73453121833E+02 -0.21592854449E+03  0.23015913027E+03  0.00000000000E+00 0.  1.
         22    1    1    2    0    0  0.25338237494E+03  0.51178718068E+03 -0.15468164559E+04  0.16488692776E+04  0.00000000000E+00 0. -1.
<mgrwt>
<rscale>  0 0.11715889E+04</rscale>
<asrwt>0</asrwt>
<pdfrwt beam="1">  1        2 0.41425167E+00 0.11715889E+04</pdfrwt>
<pdfrwt beam="2">  1       -2 0.19606474E-01 0.11715889E+04</pdfrwt>
<totfact> 0.59281802E+01</totfact>
</mgrwt>
</event>
<event>
 6    1  0.2236204E-005  0.4238450E+04  0.7818608E-02  0.7958098E-01
          2   -1    0    0  501    0  0.00000000000E+00  0.00000000000E+00  0.22243997514E+04  0.22243997514E+04  0.00000000000E+00 0. -1.
         -2   -1    0    0    0  501 -0.00000000000E+00 -0.00000000000E+00 -0.20190236251E+04  0.20190236251E+04  0.00000000000E+00 0.  1.
         23    2    1    2    0    0  0.10873860596E+03 -0.11307719383E+04 -0.16872432126E+04  0.20360545304E+04  0.90879764164E+02 0.  0.
         11    1    3    3    0    0  0.60589297586E+02 -0.28333786936E+03 -0.39167068604E+03  0.48719332662E+03  0.00000000000E+00 0. -1.
        -11    1    3    3    0    0  0.48149308377E+02 -0.84743406898E+03 -0.12955725265E+04  0.15488612038E+04  0.00000000000E+00 0.  1.
         22    1    1    2    0    0 -0.10873860596E+03  0.11307719383E+04  0.18926193389E+04  0.22073688461E+04  0.00000000000E+00 0. -1.
<mgrwt>
<rscale>  0 0.42384505E+04</rscale>
<asrwt>0</asrwt>
<pdfrwt beam="1">  1        2 0.34221535E+00 0.42384505E+04</pdfrwt>
<pdfrwt beam="2">  1       -2 0.31061902E+00 0.42384505E+04</pdfrwt>
<totfact> 0.10590555E-01</totfact>
</mgrwt>
</event>
<event>
 6    1  0.2236204E-005  0.1902594E+04  0.7818608E-02  0.8653566E-01
         -2   -1    0    0    0  501 -0.00000000000E+00  0.00000000000E+00  0.12874330656E+04  0.12874330656E+04  0.00000000000E+00 0.  1.
          2   -1    0    0  501    0  0.00000000000E+00 -0.00000000000E+00 -0.70292297280E+03  0.70292297280E+03  0.00000000000E+00 0. -1.
         23    2    1    2    0    0 -0.22313387873E+03  0.26467410262E+03  0.12174085301E+04  0.12689674188E+04  0.91398425340E+02 0.  0.
         11    1    3    3    0    0 -0.17850690844E+03  0.24918729156E+03  0.97681819411E+03  0.10237835743E+04  0.00000000000E+00 0.  1.
        -11    1    3    3    0    0 -0.44626970295E+02  0.15486811060E+02  0.24059033604E+03  0.24518384447E+03  0.00000000000E+00 0. -1.
         22    1    1    2    0    0  0.22313387873E+03 -0.26467410262E+03 -0.63289843739E+03  0.72138861960E+03  0.00000000000E+00 0. -1.
<mgrwt>
<rscale>  0 0.19025943E+04</rscale>
<asrwt>0</asrwt>
<pdfrwt beam="1">  1        2 0.10814200E+00 0.19025943E+04</pdfrwt>
<pdfrwt beam="2">  1       -2 0.19806663E+00 0.19025943E+04</pdfrwt>
<totfact> 0.52232165E+00</totfact>
</mgrwt>
</event>
<event>
 6    1  0.2236204E-005  0.1772823E+04  0.7818608E-02  0.8720887E-01
          2   -1    0    0  501    0  0.00000000000E+00  0.00000000000E+00  0.14201536399E+04  0.14201536399E+04  0.00000000000E+00 0. -1.
         -2   -1    0    0    0  501 -0.00000000000E+00 -0.00000000000E+00 -0.55326782297E+03  0.55326782297E+03  0.00000000000E+00 0.  1.
         23    2    1    2    0    0  0.37515778751E+03  0.27935980373E+03  0.12696210338E+04  0.13561849439E+04  0.92275495929E+02 0.  0.
         13    1    3    3    0    0  0.25148419501E+03  0.14397363882E+03  0.69424332903E+03  0.75229416382E+03  0.00000000000E+00 0. -1.
        -13    1    3    3    0    0  0.12367359250E+03  0.13538616491E+03  0.57537770473E+03  0.60389078005E+03  0.00000000000E+00 0.  1.
         22    1    1    2    0    0 -0.37515778751E+03 -0.27935980373E+03 -0.40273521685E+03  0.61723651898E+03  0.00000000000E+00 0.  1.
<mgrwt>
<rscale>  0 0.17728230E+04</rscale>
<asrwt>0</asrwt>
<pdfrwt beam="1">  1        2 0.21848517E+00 0.17728230E+04</pdfrwt>
<pdfrwt beam="2">  1       -2 0.85118127E-01 0.17728230E+04</pdfrwt>
<totfact> 0.16013978E+01</totfact>
</mgrwt>
</event>
<event>
 6    1  0.2236204E-005  0.1358193E+04  0.7818608E-02  0.8984649E-01
          2   -1    0    0  501    0  0.00000000000E+00  0.00000000000E+00  0.16760575095E+03  0.16760575095E+03  0.00000000000E+00 0. -1.
         -2   -1    0    0    0  501 -0.00000000000E+00 -0.00000000000E+00 -0.27515271602E+04  0.27515271602E+04  0.00000000000E+00 0.  1.
         23    2    1    2    0    0  0.39493953188E+03 -0.10652889097E+01 -0.24770603252E+04  0.25099903199E+04  0.90802988228E+02 0.  0.
         11    1    3    3    0    0  0.36700009505E+03 -0.25720890977E+02 -0.22342380915E+04  0.22643256134E+04  0.00000000000E+00 0.  1.
        -11    1    3    3    0    0  0.27939436830E+02  0.24655602067E+02 -0.24282223372E+03  0.24566470652E+03  0.00000000000E+00 0. -1.
         22    1    1    2    0    0 -0.39493953188E+03  0.10652889097E+01 -0.10686108403E+03  0.40914259123E+03  0.00000000000E+00 0. -1.
<mgrwt>
<rscale>  0 0.13581926E+04</rscale>
<asrwt>0</asrwt>
<pdfrwt beam="1">  1        2 0.25785504E-01 0.13581926E+04</pdfrwt>
<pdfrwt beam="2">  1       -2 0.42331181E+00 0.13581926E+04</pdfrwt>
<totfact> 0.10923583E+00</totfact>
</mgrwt>
</event>
<event>
 6    1  0.2236204E-005  0.2842860E+04  0.7818608E-02  0.8290084E-01
         -2   -1    0    0    0  501 -0.00000000000E+00  0.00000000000E+00  0.68157450378E+03  0.68157450378E+03  0.00000000000E+00 0.  1.
          2   -1    0    0  501    0  0.00000000000E+00 -0.00000000000E+00 -0.29644050671E+04  0.29644050671E+04  0.00000000000E+00 0. -1.
         23    2    1    2    0    0  0.12401355921E+03  0.13810999513E+04 -0.75063944682E+03  0.15794786501E+04  0.92069476941E+02 0.  0.
         13    1    3    3    0    0  0.20979955739E+02  0.69938258251E+03 -0.35580697121E+03  0.78496799681E+03  0.00000000000E+00 0.  1.
        -13    1    3    3    0    0  0.10303360347E+03  0.68171736876E+03 -0.39483247561E+03  0.79451065324E+03  0.00000000000E+00 0. -1.
         22    1    1    2    0    0 -0.12401355921E+03 -0.13810999513E+04 -0.15321911165E+04  0.20665009208E+04  0.00000000000E+00 0.  1.
<mgrwt>
<rscale>  0 0.28428598E+04</rscale>
<asrwt>0</asrwt>
<pdfrwt beam="1">  1        2 0.45606232E+00 0.28428598E+04</pdfrwt>
<pdfrwt beam="2">  1       -2 0.10485762E+00 0.28428598E+04</pdfrwt>
<totfact> 0.11714418E+00</totfact>
</mgrwt>
</event>
<event>
 6    1  0.2236204E-005  0.1183112E+04  0.7818608E-02  0.9127768E-01
         -2   -1    0    0    0  501 -0.00000000000E+00  0.00000000000E+00  0.22234611099E+03  0.22234611099E+03  0.00000000000E+00 0.  1.
          2   -1    0    0  501    0  0.00000000000E+00 -0.00000000000E+00 -0.15738467814E+04  0.15738467814E+04  0.00000000000E+00 0. -1.
         23    2    1    2    0    0  0.20089524651E+03 -0.52209500955E+03 -0.40567155704E+03  0.69731400426E+03  0.93462876528E+02 0.  0.
         11    1    3    3    0    0  0.74438611447E+02 -0.97259471174E+02 -0.67979430183E+02  0.14007753044E+03  0.00000000000E+00 0.  1.
        -11    1    3    3    0    0  0.12645663507E+03 -0.42483553837E+03 -0.33769212685E+03  0.55723647382E+03  0.00000000000E+00 0. -1.
         22    1    1    2    0    0 -0.20089524651E+03  0.52209500955E+03 -0.94582911335E+03  0.10988788881E+04  0.00000000000E+00 0. -1.
<mgrwt>
<rscale>  0 0.11831124E+04</rscale>
<asrwt>0</asrwt>
<pdfrwt beam="1">  1        2 0.24213027E+00 0.11831124E+04</pdfrwt>
<pdfrwt beam="2">  1       -2 0.34207095E-01 0.11831124E+04</pdfrwt>
<totfact> 0.91153992E+01</totfact>
</mgrwt>
</event>
<event>
 6    1  0.2236204E-005  0.1736709E+04  0.7818608E-02  0.8740700E-01
         -1   -1    0    0    0  501 -0.00000000000E+00  0.00000000000E+00  0.56795634776E+03  0.56795634776E+03  0.00000000000E+00 0.  1.
          1   -1    0    0  501    0  0.00000000000E+00 -0.00000000000E+00 -0.13276363508E+04  0.13276363508E+04  0.00000000000E+00 0. -1.
         23    2    1    2    0    0 -0.26330043280E+03  0.41144849453E+03 -0.11613269482E+04  0.12631867766E+04  0.91343147055E+02 0.  0.
         13    1    3    3    0    0 -0.18049374641E+03  0.33216444894E+03 -0.81569857213E+03  0.89904136401E+03  0.00000000000E+00 0.  1.
        -13    1    3    3    0    0 -0.82806686390E+02  0.79284045584E+02 -0.34562837605E+03  0.36414541261E+03  0.00000000000E+00 0. -1.
         22    1    1    2    0    0  0.26330043280E+03 -0.41144849453E+03  0.40164694513E+03  0.63240592193E+03  0.00000000000E+00 0.  1.
<mgrwt>
<rscale>  0 0.17367089E+04</rscale>
<asrwt>0</asrwt>
<pdfrwt beam="1">  1        1 0.20425175E+00 0.17367089E+04</pdfrwt>
<pdfrwt beam="2">  1       -1 0.87377899E-01 0.17367089E+04</pdfrwt>
<totfact> 0.10571748E+01</totfact>
</mgrwt>
</event>
<event>
 6    1  0.2236204E-005  0.2527702E+04  0.7818608E-02  0.8393183E-01
         -2   -1    0    0    0  501 -0.00000000000E+00  0.00000000000E+00  0.10313508641E+04  0.10313508641E+04  0.00000000000E+00 0. -1.
          2   -1    0    0  501    0  0.00000000000E+00 -0.00000000000E+00 -0.15487636932E+04  0.15487636932E+04  0.00000000000E+00 0.  1.
         23    2    1    2    0    0  0.14834506398E+03  0.38697826757E+03  0.95794060551E+03  0.10476569902E+04  0.90424155489E+02 0.  0.
         13    1    3    3    0    0  0.15562412064E+03  0.33599265283E+03  0.80016474773E+03  0.88168790010E+03  0.00000000000E+00 0.  1.
        -13    1    3    3    0    0 -0.72790566535E+01  0.50985614736E+02  0.15777585778E+03  0.16596909012E+03  0.00000000000E+00 0. -1.
         22    1    1    2    0    0 -0.14834506398E+03 -0.38697826757E+03 -0.14753534346E+04  0.15324575670E+04  0.00000000000E+00 0.  1.
<mgrwt>
<rscale>  0 0.25277015E+04</rscale>
<asrwt>0</asrwt>
<pdfrwt beam="1">  1        2 0.23827134E+00 0.25277015E+04</pdfrwt>
<pdfrwt beam="2">  1       -2 0.15866937E+00 0.25277015E+04</pdfrwt>
<totfact> 0.27325858E+00</totfact>
</mgrwt>
</event>
<event>
 6    1  0.2236204E-005  0.4084336E+04  0.7818608E-02  0.7987746E-01
          2   -1    0    0  501    0  0.00000000000E+00  0.00000000000E+00  0.20956409258E+04  0.20956409258E+04  0.00000000000E+00 0. -1.
         -2   -1    0    0    0  501 -0.00000000000E+00 -0.00000000000E+00 -0.19900598167E+04  0.19900598167E+04  0.00000000000E+00 0.  1.
         23    2    1    2    0    0 -0.13331702111E+04  0.13047369418E+04 -0.77611752814E+03  0.20224329978E+04  0.90529078345E+02 0.  0.
         13    1    3    3    0    0 -0.35213110782E+03  0.33781792095E+03 -0.24622946134E+03  0.54657681293E+03  0.00000000000E+00 0.  1.
        -13    1    3    3    0    0 -0.98103910332E+03  0.96691902088E+03 -0.52988806680E+03  0.14758561849E+04  0.00000000000E+00 0. -1.
         22    1    1    2    0    0  0.13331702111E+04 -0.13047369418E+04  0.88169863719E+03  0.20632677446E+04  0.00000000000E+00 0. -1.
<mgrwt>
<rscale>  0 0.40843363E+04</rscale>
<asrwt>0</asrwt>
<pdfrwt beam="1">  1        2 0.32240630E+00 0.40843363E+04</pdfrwt>
<pdfrwt beam="2">  1       -2 0.30616305E+00 0.40843363E+04</pdfrwt>
<totfact> 0.13489217E-01</totfact>
</mgrwt>
</event>
<event>
 6    1  0.2236204E-005  0.3908428E+04  0.7818608E-02  0.8023279E-01
         -2   -1    0    0    0  501 -0.00000000000E+00  0.00000000000E+00  0.10884359824E+04  0.10884359824E+04  0.00000000000E+00 0. -1.
          2   -1    0    0  501    0  0.00000000000E+00 -0.00000000000E+00 -0.35086613771E+04  0.35086613771E+04  0.00000000000E+00 0.  1.
         23    2    1    2    0    0 -0.70514266640E+03  0.24636094261E+03 -0.33334572637E+04  0.34173040130E+04  0.90052732779E+02 0.  0.
         13    1    3    3    0    0 -0.24469547197E+03  0.43043629702E+02 -0.11644075055E+04  0.11906189428E+04  0.00000000000E+00 0. -1.
        -13    1    3    3    0    0 -0.46044719443E+03  0.20331731291E+03 -0.21690497582E+04  0.22266850702E+04  0.00000000000E+00 0.  1.
         22    1    1    2    0    0  0.70514266640E+03 -0.24636094261E+03  0.91323186897E+03  0.11797933465E+04  0.00000000000E+00 0. -1.
<mgrwt>
<rscale>  0 0.39084285E+04</rscale>
<asrwt>0</asrwt>
<pdfrwt beam="1">  1        2 0.53979406E+00 0.39084285E+04</pdfrwt>
<pdfrwt beam="2">  1       -2 0.16745169E+00 0.39084285E+04</pdfrwt>
<totfact> 0.14135239E-01</totfact>
</mgrwt>
</event>
<event>
 6    1  0.2236204E-005  0.1166898E+04  0.7818608E-02  0.9142335E-01
          2   -1    0    0  501    0  0.00000000000E+00  0.00000000000E+00  0.43602784502E+03  0.43602784502E+03  0.00000000000E+00 0. -1.
         -2   -1    0    0    0  501 -0.00000000000E+00 -0.00000000000E+00 -0.78071313409E+03  0.78071313409E+03  0.00000000000E+00 0.  1.
         23    2    1    2    0    0  0.53533694822E+03 -0.69991044331E+02  0.47829980063E+02  0.54924369003E+03  0.88862419701E+02 0.  0.
         11    1    3    3    0    0  0.21513174344E+02  0.14299694571E+02 -0.33250266396E+01  0.26045224848E+02  0.00000000000E+00 0. -1.
        -11    1    3    3    0    0  0.51382377387E+03 -0.84290738902E+02  0.51155006703E+02  0.52319846519E+03  0.00000000000E+00 0.  1.
         22    1    1    2    0    0 -0.53533694822E+03  0.69991044331E+02 -0.39251526913E+03  0.66749728907E+03  0.00000000000E+00 0.  1.
<mgrwt>
<rscale>  0 0.11668979E+04</rscale>
<asrwt>0</asrwt>
<pdfrwt beam="1">  1        2 0.67081207E-01 0.11668979E+04</pdfrwt>
<pdfrwt beam="2">  1       -2 0.12010971E+00 0.11668979E+04</pdfrwt>
<totfact> 0.37758737E+01</totfact>
</mgrwt>
</event>
<event>
 6    1  0.2236204E-005  0.6233914E+03  0.7818608E-02  0.9858031E-01
         -2   -1    0    0    0  501 -0.00000000000E+00  0.00000000000E+00  0.39815254794E+02  0.39815254794E+02  0.00000000000E+00 0. -1.
          2   -1    0    0  501    0  0.00000000000E+00 -0.00000000000E+00 -0.24401249897E+04  0.24401249897E+04  0.00000000000E+00 0.  1.
         23    2    1    2    0    0  0.26876461706E+03  0.81254612461E+02 -0.74463549421E+03  0.80062671727E+03  0.87660651013E+02 0.  0.
         13    1    3    3    0    0  0.16261626064E+03  0.22662479258E+02 -0.32939668795E+03  0.36804865741E+03  0.00000000000E+00 0. -1.
        -13    1    3    3    0    0  0.10614835642E+03  0.58592133203E+02 -0.41523880626E+03  0.43257805986E+03  0.00000000000E+00 0.  1.
         22    1    1    2    0    0 -0.26876461706E+03 -0.81254612461E+02 -0.16556742407E+04  0.16793135273E+04  0.00000000000E+00 0.  1.
<mgrwt>
<rscale>  0 0.62339136E+03</rscale>
<asrwt>0</asrwt>
<pdfrwt beam="1">  1        2 0.37540383E+00 0.62339136E+03</pdfrwt>
<pdfrwt beam="2">  1       -2 0.61254241E-02 0.62339136E+03</pdfrwt>
<totfact> 0.59324370E+02</totfact>
</mgrwt>
</event>
<event>
 6    1  0.2236204E-005  0.2745770E+04  0.7818608E-02  0.8320305E-01
          2   -1    0    0  501    0  0.00000000000E+00  0.00000000000E+00  0.18626641299E+04  0.18626641299E+04  0.00000000000E+00 0. -1.
         -2   -1    0    0    0  501 -0.00000000000E+00 -0.00000000000E+00 -0.10118909751E+04  0.10118909751E+04  0.00000000000E+00 0.  1.
         23    2    1    2    0    0 -0.49315468750E+03 -0.48016493465E+02  0.17651472990E+04  0.18345612564E+04  0.66052151555E+02 0.  0.
         13    1    3    3    0    0 -0.15984218377E+02 -0.96788204582E+01  0.11005315244E+03  0.11162827224E+03  0.00000000000E+00 0. -1.
        -13    1    3    3    0    0 -0.47717046912E+03 -0.38337673007E+02  0.16550941466E+04  0.17229329842E+04  0.00000000000E+00 0.  1.
         22    1    1    2    0    0  0.49315468750E+03  0.48016493465E+02 -0.91437414428E+03  0.10399938486E+04  0.00000000000E+00 0.  1.
<mgrwt>
<rscale>  0 0.27457699E+04</rscale>
<asrwt>0</asrwt>
<pdfrwt beam="1">  1        2 0.28656371E+00 0.27457699E+04</pdfrwt>
<pdfrwt beam="2">  1       -2 0.15567553E+00 0.27457699E+04</pdfrwt>
<totfact> 0.18890112E+00</totfact>
</mgrwt>
</event>
<event>
 6    1  0.2236204E-005  0.3150489E+04  0.7818608E-02  0.8202017E-01
          2   -1    0    0  501    0  0.00000000000E+00  0.00000000000E+00  0.30413320011E+04  0.30413320011E+04  0.00000000000E+00 0. -1.
         -2   -1    0    0    0  501 -0.00000000000E+00 -0.00000000000E+00 -0.81589088923E+03  0.81589088923E+03  0.00000000000E+00 0.  1.
         23    2    1    2    0    0 -0.10035206469E+04 -0.65827465861E+03 -0.13272165604E+03  0.12112238626E+04  0.95231257154E+02 0.  0.
         13    1    3    3    0    0 -0.63234971592E+03 -0.38905958430E+03 -0.40763913500E+02  0.74356924358E+03  0.00000000000E+00 0. -1.
        -13    1    3    3    0    0 -0.37117093099E+03 -0.26921507432E+03 -0.91957742541E+02  0.46765461899E+03  0.00000000000E+00 0.  1.
         22    1    1    2    0    0  0.10035206469E+04  0.65827465861E+03  0.23581627679E+04  0.26459990277E+04  0.00000000000E+00 0. -1.
<mgrwt>
<rscale>  0 0.31504889E+04</rscale>
<asrwt>0</asrwt>
<pdfrwt beam="1">  1        2 0.46789722E+00 0.31504889E+04</pdfrwt>
<pdfrwt beam="2">  1       -2 0.12552168E+00 0.31504889E+04</pdfrwt>
<totfact> 0.65739250E-01</totfact>
</mgrwt>
</event>
<event>
 6    1  0.2236204E-005  0.1561062E+04  0.7818608E-02  0.8844833E-01
         -2   -1    0    0    0  501 -0.00000000000E+00  0.00000000000E+00  0.18777153111E+03  0.18777153111E+03  0.00000000000E+00 0. -1.
          2   -1    0    0  501    0  0.00000000000E+00 -0.00000000000E+00 -0.32445190735E+04  0.32445190735E+04  0.00000000000E+00 0.  1.
         23    2    1    2    0    0  0.29228648120E+03 -0.62111420965E+03 -0.23382232390E+04  0.24385645744E+04  0.89972327750E+02 0.  0.
         11    1    3    3    0    0  0.13883456473E+03 -0.30986936572E+03 -0.13134804457E+04  0.13566594788E+04  0.00000000000E+00 0. -1.
        -11    1    3    3    0    0  0.15345191647E+03 -0.31124484393E+03 -0.10247427933E+04  0.10819050956E+04  0.00000000000E+00 0.  1.
         22    1    1    2    0    0 -0.29228648120E+03  0.62111420965E+03 -0.71852430344E+03  0.99372603023E+03  0.00000000000E+00 0. -1.
<mgrwt>
<rscale>  0 0.15610616E+04</rscale>
<asrwt>0</asrwt>
<pdfrwt beam="1">  1        2 0.49915678E+00 0.15610616E+04</pdfrwt>
<pdfrwt beam="2">  1       -2 0.28887928E-01 0.15610616E+04</pdfrwt>
<totfact> 0.12947771E+01</totfact>
</mgrwt>
</event>
<event>
 6    1  0.2236204E-005  0.3547126E+04  0.7818608E-02  0.8102712E-01
         -2   -1    0    0    0  501 -0.00000000000E+00  0.00000000000E+00  0.25338561552E+04  0.25338561552E+04  0.00000000000E+00 0.  1.
          2   -1    0    0  501    0  0.00000000000E+00 -0.00000000000E+00 -0.12413988916E+04  0.12413988916E+04  0.00000000000E+00 0. -1.
         23    2    1    2    0    0  0.14831791625E+04 -0.91382090294E+03  0.99479769731E+03  0.20079151564E+04  0.84921999758E+02 0.  0.
         11    1    3    3    0    0  0.92117857337E+03 -0.59552561157E+03  0.66437169936E+03  0.12824236714E+04  0.00000000000E+00 0. -1.
        -11    1    3    3    0    0  0.56200058914E+03 -0.31829529137E+03  0.33042599794E+03  0.72549148501E+03  0.00000000000E+00 0.  1.
         22    1    1    2    0    0 -0.14831791625E+04  0.91382090294E+03  0.29765956630E+03  0.17673398904E+04  0.00000000000E+00 0. -1.
<mgrwt>
<rscale>  0 0.35471263E+04</rscale>
<asrwt>0</asrwt>
<pdfrwt beam="1">  1        2 0.19098445E+00 0.35471263E+04</pdfrwt>
<pdfrwt beam="2">  1       -2 0.38982402E+00 0.35471263E+04</pdfrwt>
<totfact> 0.12658377E-01</totfact>
</mgrwt>
</event>
<event>
 6    1  0.2236204E-005  0.1386403E+04  0.7818608E-02  0.8963720E-01
         -2   -1    0    0    0  501 -0.00000000000E+00  0.00000000000E+00  0.60189190022E+03  0.60189190022E+03  0.00000000000E+00 0.  1.
          2   -1    0    0  501    0  0.00000000000E+00 -0.00000000000E+00 -0.79836302350E+03  0.79836302350E+03  0.00000000000E+00 0. -1.
         23    2    1    2    0    0 -0.22106098197E+03 -0.21002735794E+03  0.52686792443E+03  0.61527159474E+03  0.89386110007E+02 0.  0.
         13    1    3    3    0    0 -0.82489927262E+02 -0.12582416556E+03  0.19874659976E+03  0.24927197929E+03  0.00000000000E+00 0. -1.
        -13    1    3    3    0    0 -0.13857105471E+03 -0.84203192381E+02  0.32812132467E+03  0.36599961545E+03  0.00000000000E+00 0.  1.
         22    1    1    2    0    0  0.22106098197E+03  0.21002735794E+03 -0.72333904771E+03  0.78498332898E+03  0.00000000000E+00 0. -1.
<mgrwt>
<rscale>  0 0.13864029E+04</rscale>
<asrwt>0</asrwt>
<pdfrwt beam="1">  1        2 0.12282508E+00 0.13864029E+04</pdfrwt>
<pdfrwt beam="2">  1       -2 0.92598754E-01 0.13864029E+04</pdfrwt>
<totfact> 0.33303029E+01</totfact>
</mgrwt>
</event>
<event>
 6    1  0.2498359E-005  0.3353245E+04  0.7818608E-02  0.8149478E-01
         -2   -1    0    0    0  501 -0.00000000000E+00  0.00000000000E+00  0.11595729904E+04  0.11595729904E+04  0.00000000000E+00 0.  1.
          2   -1    0    0  501    0  0.00000000000E+00 -0.00000000000E+00 -0.24242229899E+04  0.24242229899E+04  0.00000000000E+00 0. -1.
         23    2    1    2    0    0  0.14657379551E+03  0.16627804330E+04 -0.47861042229E+03  0.17387537415E+04  0.88735515164E+02 0.  0.
         11    1    3    3    0    0  0.51592482134E+02  0.47070799727E+03 -0.95752168545E+02  0.48311104385E+03  0.00000000000E+00 0. -1.
        -11    1    3    3    0    0  0.94981313375E+02  0.11920724357E+04 -0.38285825374E+03  0.12556426977E+04  0.00000000000E+00 0.  1.
         22    1    1    2    0    0 -0.14657379551E+03 -0.16627804330E+04 -0.78603957727E+03  0.18450422388E+04  0.00000000000E+00 0.  1.
<mgrwt>
<rscale>  0 0.33532453E+04</rscale>
<asrwt>0</asrwt>
<pdfrwt beam="1">  1        2 0.37295738E+00 0.33532453E+04</pdfrwt>
<pdfrwt beam="2">  1       -2 0.17839584E+00 0.33532453E+04</pdfrwt>
<totfact> 0.59557530E-01</totfact>
</mgrwt>
</event>
<event>
 6    1  0.2236204E-005  0.2174140E+04  0.7818608E-02  0.8529269E-01
          2   -1    0    0  501    0  0.00000000000E+00  0.00000000000E+00  0.25163109155E+04  0.25163109155E+04  0.00000000000E+00 0. -1.
         -2   -1    0    0    0  501 -0.00000000000E+00 -0.00000000000E+00 -0.46962439694E+03  0.46962439694E+03  0.00000000000E+00 0.  1.
         23    2    1    2    0    0  0.64332518354E+03 -0.83979982306E+02 -0.16949231417E+03  0.67674312732E+03  0.91289027800E+02 0.  0.
         13    1    3    3    0    0  0.35448611479E+03 -0.33629733230E+02 -0.47700131349E+02  0.35925849616E+03  0.00000000000E+00 0. -1.
        -13    1    3    3    0    0  0.28883906876E+03 -0.50350249076E+02 -0.12179218282E+03  0.31748463116E+03  0.00000000000E+00 0.  1.
         22    1    1    2    0    0 -0.64332518354E+03  0.83979982306E+02  0.22161788327E+04  0.23091921851E+04  0.00000000000E+00 0. -1.
<mgrwt>
<rscale>  0 0.21741398E+04</rscale>
<asrwt>0</asrwt>
<pdfrwt beam="1">  1        2 0.38712475E+00 0.21741398E+04</pdfrwt>
<pdfrwt beam="2">  1       -2 0.72249908E-01 0.21741398E+04</pdfrwt>
<totfact> 0.54115892E+00</totfact>
</mgrwt>
</event>
<event>
 6    1  0.2236204E-005  0.2329596E+04  0.7818608E-02  0.8466342E-01
         -2   -1    0    0    0  501 -0.00000000000E+00  0.00000000000E+00  0.13258662068E+04  0.13258662068E+04  0.00000000000E+00 0.  1.
          2   -1    0    0  501    0  0.00000000000E+00 -0.00000000000E+00 -0.10232969336E+04  0.10232969336E+04  0.00000000000E+00 0. -1.
         23    2    1    2    0    0  0.75877179255E+03 -0.70168250792E+03  0.68940006340E+03  0.12456546287E+04  0.91049610774E+02 0.  0.
         11    1    3    3    0    0  0.20518716322E+03 -0.21986685231E+03  0.24314440079E+03  0.38673298842E+03  0.00000000000E+00 0.  1.
        -11    1    3    3    0    0  0.55358462933E+03 -0.48181565561E+03  0.44625566261E+03  0.85892164033E+03  0.00000000000E+00 0. -1.
         22    1    1    2    0    0 -0.75877179255E+03  0.70168250792E+03 -0.38683079012E+03  0.11035085116E+04  0.00000000000E+00 0. -1.
<mgrwt>
<rscale>  0 0.23295964E+04</rscale>
<asrwt>0</asrwt>
<pdfrwt beam="1">  1        2 0.15743030E+00 0.23295964E+04</pdfrwt>
<pdfrwt beam="2">  1       -2 0.20397942E+00 0.23295964E+04</pdfrwt>
<totfact> 0.27566782E+00</totfact>
</mgrwt>
</event>
<event>
 6    1  0.2236204E-005  0.2335430E+04  0.7818608E-02  0.8464081E-01
          2   -1    0    0  501    0  0.00000000000E+00  0.00000000000E+00  0.19290634966E+04  0.19290634966E+04  0.00000000000E+00 0.  1.
         -2   -1    0    0    0  501 -0.00000000000E+00 -0.00000000000E+00 -0.70684986743E+03  0.70684986743E+03  0.00000000000E+00 0. -1.
         23    2    1    2    0    0  0.40833489513E+03  0.86443534197E+02 -0.61664062657E+03  0.75028486269E+03  0.92042607903E+02 0.  0.
         13    1    3    3    0    0  0.24588435516E+03  0.67805571294E+02 -0.44711124884E+03  0.51474768620E+03  0.00000000000E+00 0.  1.
        -13    1    3    3    0    0  0.16245053997E+03  0.18637962903E+02 -0.16952937773E+03  0.23553717649E+03  0.00000000000E+00 0. -1.
         22    1    1    2    0    0 -0.40833489513E+03 -0.86443534197E+02  0.18388542558E+04  0.18856285014E+04  0.00000000000E+00 0.  1.
<mgrwt>
<rscale>  0 0.23354300E+04</rscale>
<asrwt>0</asrwt>
<pdfrwt beam="1">  1        2 0.29677900E+00 0.23354300E+04</pdfrwt>
<pdfrwt beam="2">  1       -2 0.10874613E+00 0.23354300E+04</pdfrwt>
<totfact> 0.44677792E+00</totfact>
</mgrwt>
</event>
<event>
 6    1  0.2236204E-005  0.4885480E+04  0.7818608E-02  0.7846420E-01
         -2   -1    0    0    0  501 -0.00000000000E+00  0.00000000000E+00  0.21641775992E+04  0.21641775992E+04  0.00000000000E+00 0.  1.
          2   -1    0    0  501    0  0.00000000000E+00 -0.00000000000E+00 -0.27571573745E+04  0.27571573745E+04  0.00000000000E+00 0. -1.
         23    2    1    2    0    0  0.41606431785E+03 -0.21710621847E+04 -0.13415938456E+04  0.25874447551E+04  0.91519330568E+02 0.  0.
         13    1    3    3    0    0  0.15225197696E+03 -0.94078417099E+03 -0.53621133354E+03  0.10935163991E+04  0.00000000000E+00 0. -1.
        -13    1    3    3    0    0  0.26381234089E+03 -0.12302780137E+04 -0.80538251209E+03  0.14939283560E+04  0.00000000000E+00 0.  1.
         22    1    1    2    0    0 -0.41606431785E+03  0.21710621847E+04  0.74861407026E+03  0.23338902186E+04  0.00000000000E+00 0.  1.
<mgrwt>
<rscale>  0 0.48854798E+04</rscale>
<asrwt>0</asrwt>
<pdfrwt beam="1">  1        2 0.42417806E+00 0.48854798E+04</pdfrwt>
<pdfrwt beam="2">  1       -2 0.33295040E+00 0.48854798E+04</pdfrwt>
<totfact> 0.35875081E-02</totfact>
</mgrwt>
</event>
<event>
 6    1  0.2236204E-005  0.4083242E+03  0.7818608E-02  0.1040935E+00
          2   -1    0    0  501    0  0.00000000000E+00  0.00000000000E+00  0.36910281582E+03  0.36910281582E+03  0.00000000000E+00 0. -1.
         -2   -1    0    0    0  501 -0.00000000000E+00 -0.00000000000E+00 -0.11292831497E+03  0.11292831497E+03  0.00000000000E+00 0.  1.
         23    2    1    2    0    0  0.20112770016E+02  0.12122525961E+03  0.31179727481E+03  0.34714606835E+03  0.90513894551E+02 0.  0.
         13    1    3    3    0    0  0.24494957721E+02  0.61869521990E+02  0.64083299074E+02  0.92382411341E+02  0.00000000000E+00 0. -1.
        -13    1    3    3    0    0 -0.43821877050E+01  0.59355737620E+02  0.24771397574E+03  0.25476365701E+03  0.00000000000E+00 0.  1.
         22    1    1    2    0    0 -0.20112770016E+02 -0.12122525961E+03 -0.55622773963E+02  0.13488506244E+03  0.00000000000E+00 0.  1.
<mgrwt>
<rscale>  0 0.40832418E+03</rscale>
<asrwt>0</asrwt>
<pdfrwt beam="1">  1        2 0.56785048E-01 0.40832418E+03</pdfrwt>
<pdfrwt beam="2">  1       -2 0.17373587E-01 0.40832418E+03</pdfrwt>
<totfact> 0.23469158E+03</totfact>
</mgrwt>
</event>
<event>
 6    1  0.2236204E-005  0.4182684E+04  0.7818608E-02  0.7968674E-01
          2   -1    0    0  501    0  0.00000000000E+00  0.00000000000E+00  0.39527347559E+04  0.39527347559E+04  0.00000000000E+00 0. -1.
         -2   -1    0    0    0  501 -0.00000000000E+00 -0.00000000000E+00 -0.11065026955E+04  0.11065026955E+04  0.00000000000E+00 0.  1.
         23    2    1    2    0    0 -0.46306903704E+03 -0.14746435395E+04 -0.27840195749E+03  0.15732161882E+04  0.92168450746E+02 0.  0.
         13    1    3    3    0    0 -0.38773840223E+03 -0.12694112128E+04 -0.26964425786E+03  0.13544201422E+04  0.00000000000E+00 0. -1.
        -13    1    3    3    0    0 -0.75330634811E+02 -0.20523232661E+03 -0.87576996350E+01  0.21879604596E+03  0.00000000000E+00 0.  1.
         22    1    1    2    0    0  0.46306903704E+03  0.14746435395E+04  0.31246340180E+04  0.34860212632E+04  0.00000000000E+00 0. -1.
<mgrwt>
<rscale>  0 0.41826841E+04</rscale>
<asrwt>0</asrwt>
<pdfrwt beam="1">  1        2 0.60811303E+00 0.41826841E+04</pdfrwt>
<pdfrwt beam="2">  1       -2 0.17023119E+00 0.41826841E+04</pdfrwt>
<totfact> 0.61407994E-02</totfact>
</mgrwt>
</event>
<event>
 6    1  0.2236204E-005  0.3499890E+04  0.7818608E-02  0.8113816E-01
          2   -1    0    0  501    0  0.00000000000E+00  0.00000000000E+00  0.17619407097E+04  0.17619407097E+04  0.00000000000E+00 0. -1.
         -2   -1    0    0    0  501 -0.00000000000E+00 -0.00000000000E+00 -0.17380312495E+04  0.17380312495E+04  0.00000000000E+00 0.  1.
         23    2    1    2    0    0 -0.11884529408E+04 -0.91399551804E+02  0.12916226857E+04  0.17598940607E+04  0.90353041651E+02 0.  0.
         11    1    3    3    0    0 -0.66315685793E+03 -0.19588648204E+02  0.76505631001E+03  0.10126558600E+04  0.00000000000E+00 0. -1.
        -11    1    3    3    0    0 -0.52529608287E+03 -0.71810903599E+02  0.52656637574E+03  0.74723820072E+03  0.00000000000E+00 0.  1.
         22    1    1    2    0    0  0.11884529408E+04  0.91399551804E+02 -0.12677132255E+04  0.17400778985E+04  0.00000000000E+00 0.  1.
<mgrwt>
<rscale>  0 0.34998903E+04</rscale>
<asrwt>0</asrwt>
<pdfrwt beam="1">  1        2 0.27106780E+00 0.34998903E+04</pdfrwt>
<pdfrwt beam="2">  1       -2 0.26738942E+00 0.34998903E+04</pdfrwt>
<totfact> 0.37429915E-01</totfact>
</mgrwt>
</event>
<event>
 6    1  0.2236204E-005  0.4264129E+04  0.7818608E-02  0.7953284E-01
          2   -1    0    0  501    0  0.00000000000E+00  0.00000000000E+00  0.31557415228E+04  0.31557415228E+04  0.00000000000E+00 0. -1.
         -2   -1    0    0    0  501 -0.00000000000E+00 -0.00000000000E+00 -0.14404535990E+04  0.14404535990E+04  0.00000000000E+00 0.  1.
         23    2    1    2    0    0  0.27999797188E+03  0.74224631131E+03 -0.12738995832E+04  0.15035311564E+04  0.91963793175E+02 0.  0.
         11    1    3    3    0    0  0.15808764369E+03  0.41375768491E+03 -0.62436076224E+03  0.76551517707E+03  0.00000000000E+00 0. -1.
        -11    1    3    3    0    0  0.12191032819E+03  0.32848862640E+03 -0.64953882092E+03  0.73801597928E+03  0.00000000000E+00 0.  1.
         22    1    1    2    0    0 -0.27999797188E+03 -0.74224631131E+03  0.29891875070E+04  0.30926639654E+04  0.00000000000E+00 0. -1.
<mgrwt>
<rscale>  0 0.42641291E+04</rscale>
<asrwt>0</asrwt>
<pdfrwt beam="1">  1        2 0.48549870E+00 0.42641291E+04</pdfrwt>
<pdfrwt beam="2">  1       -2 0.22160825E+00 0.42641291E+04</pdfrwt>
<totfact> 0.10321459E-01</totfact>
</mgrwt>
</event>
<event>
 6    1  0.2236204E-005  0.3759587E+04  0.7818608E-02  0.8054883E-01
         -2   -1    0    0    0  501 -0.00000000000E+00  0.00000000000E+00  0.10789577272E+04  0.10789577272E+04  0.00000000000E+00 0.  1.
          2   -1    0    0  501    0  0.00000000000E+00 -0.00000000000E+00 -0.32750349600E+04  0.32750349600E+04  0.00000000000E+00 0. -1.
         23    2    1    2    0    0 -0.91091203557E+03  0.10394376533E+04  0.37504479220E+03  0.14349414991E+04  0.90593255830E+02 0.  0.
         11    1    3    3    0    0 -0.63959848639E+03  0.79049649661E+03  0.27674511163E+03  0.10538305328E+04  0.00000000000E+00 0. -1.
        -11    1    3    3    0    0 -0.27131354918E+03  0.24894115669E+03  0.98299680564E+02  0.38111096634E+03  0.00000000000E+00 0.  1.
         22    1    1    2    0    0  0.91091203557E+03 -0.10394376533E+04 -0.25711220250E+04  0.29190511881E+04  0.00000000000E+00 0. -1.
<mgrwt>
<rscale>  0 0.37595874E+04</rscale>
<asrwt>0</asrwt>
<pdfrwt beam="1">  1        2 0.50385153E+00 0.37595874E+04</pdfrwt>
<pdfrwt beam="2">  1       -2 0.16599350E+00 0.37595874E+04</pdfrwt>
<totfact> 0.21175132E-01</totfact>
</mgrwt>
</event>
<event>
 6    1  0.2236204E-005  0.2647964E+04  0.7818608E-02  0.8352089E-01
          2   -1    0    0  501    0  0.00000000000E+00  0.00000000000E+00  0.90111822720E+03  0.90111822720E+03  0.00000000000E+00 0.  1.
         -2   -1    0    0    0  501 -0.00000000000E+00 -0.00000000000E+00 -0.19452807634E+04  0.19452807634E+04  0.00000000000E+00 0. -1.
         23    2    1    2    0    0 -0.10769123962E+04  0.55129871953E+03 -0.10967762672E+04  0.16354329333E+04  0.89733560483E+02 0.  0.
         13    1    3    3    0    0 -0.83350068356E+03  0.39724475913E+03 -0.79766146440E+03  0.12201600714E+04  0.00000000000E+00 0.  1.
        -13    1    3    3    0    0 -0.24341171261E+03  0.15405396040E+03 -0.29911480277E+03  0.41527286185E+03  0.00000000000E+00 0. -1.
         22    1    1    2    0    0  0.10769123962E+04 -0.55129871953E+03  0.52613731019E+02  0.12109660573E+04  0.00000000000E+00 0.  1.
<mgrwt>
<rscale>  0 0.26479637E+04</rscale>
<asrwt>0</asrwt>
<pdfrwt beam="1">  1        2 0.13863357E+00 0.26479637E+04</pdfrwt>
<pdfrwt beam="2">  1       -2 0.29927396E+00 0.26479637E+04</pdfrwt>
<totfact> 0.82815208E-01</totfact>
</mgrwt>
</event>
<event>
 6    1  0.2236204E-005  0.3023333E+04  0.7818608E-02  0.8237099E-01
          2   -1    0    0  501    0  0.00000000000E+00  0.00000000000E+00  0.35883808688E+04  0.35883808688E+04  0.00000000000E+00 0.  1.
         -2   -1    0    0    0  501 -0.00000000000E+00 -0.00000000000E+00 -0.63681503548E+03  0.63681503548E+03  0.00000000000E+00 0. -1.
         23    2    1    2    0    0  0.10761959556E+03  0.62298702703E+03  0.33939511883E+04  0.34535744844E+04  0.92613377145E+02 0.  0.
         11    1    3    3    0    0  0.20516784277E+02  0.85135249417E+02  0.66689537096E+03  0.67262053562E+03  0.00000000000E+00 0.  1.
        -11    1    3    3    0    0  0.87102811280E+02  0.53785177761E+03  0.27270558173E+04  0.27809539488E+04  0.00000000000E+00 0. -1.
         22    1    1    2    0    0 -0.10761959556E+03 -0.62298702703E+03 -0.44238535503E+03  0.77162141983E+03  0.00000000000E+00 0. -1.
<mgrwt>
<rscale>  0 0.30233325E+04</rscale>
<asrwt>0</asrwt>
<pdfrwt beam="1">  1        2 0.55205858E+00 0.30233325E+04</pdfrwt>
<pdfrwt beam="2">  1       -2 0.97971546E-01 0.30233325E+04</pdfrwt>
<totfact> 0.52087370E-01</totfact>
</mgrwt>
</event>
<event>
 6    1  0.2236204E-005  0.1342502E+04  0.7818608E-02  0.8996523E-01
         -2   -1    0    0    0  501 -0.00000000000E+00  0.00000000000E+00  0.23312738393E+04  0.23312738393E+04  0.00000000000E+00 0.  1.
          2   -1    0    0  501    0  0.00000000000E+00 -0.00000000000E+00 -0.19327552561E+03  0.19327552561E+03  0.00000000000E+00 0. -1.
         23    2    1    2    0    0  0.18955017193E+03 -0.92021764496E+02  0.22659909292E+04  0.22780146160E+04  0.10118510987E+03 0.  0.
         13    1    3    3    0    0  0.78178693994E+02  0.26459844962E+01  0.11219697528E+04  0.11246933074E+04  0.00000000000E+00 0. -1.
        -13    1    3    3    0    0  0.11137147793E+03 -0.94667748992E+02  0.11440211764E+04  0.11533213086E+04  0.00000000000E+00 0.  1.
         22    1    1    2    0    0 -0.18955017193E+03  0.92021764496E+02 -0.12799261550E+03  0.24653474896E+03  0.00000000000E+00 0. -1.
<mgrwt>
<rscale>  0 0.13425024E+04</rscale>
<asrwt>0</asrwt>
<pdfrwt beam="1">  1        2 0.29734698E-01 0.13425024E+04</pdfrwt>
<pdfrwt beam="2">  1       -2 0.35865749E+00 0.13425024E+04</pdfrwt>
<totfact> 0.24378003E+00</totfact>
</mgrwt>
</event>
<event>
 6    1  0.2236204E-005  0.2167964E+04  0.7818608E-02  0.8531882E-01
          2   -1    0    0  501    0  0.00000000000E+00  0.00000000000E+00  0.25633632466E+04  0.25633632466E+04  0.00000000000E+00 0. -1.
         -2   -1    0    0    0  501 -0.00000000000E+00 -0.00000000000E+00 -0.45838895937E+03  0.45838895937E+03  0.00000000000E+00 0.  1.
         23    2    1    2    0    0  0.85248180670E+03  0.64422799356E+03  0.81432544341E+03  0.13461838318E+04  0.85615669336E+02 0.  0.
         11    1    3    3    0    0  0.46923674689E+03  0.36802431178E+03  0.40241965658E+03  0.71942101630E+03  0.00000000000E+00 0. -1.
        -11    1    3    3    0    0  0.38324505982E+03  0.27620368178E+03  0.41190578683E+03  0.62676281552E+03  0.00000000000E+00 0.  1.
         22    1    1    2    0    0 -0.85248180670E+03 -0.64422799356E+03  0.12906488438E+04  0.16755683742E+04  0.00000000000E+00 0.  1.
<mgrwt>
<rscale>  0 0.21679644E+04</rscale>
<asrwt>0</asrwt>
<pdfrwt beam="1">  1        2 0.39436357E+00 0.21679644E+04</pdfrwt>
<pdfrwt beam="2">  1       -2 0.70521380E-01 0.21679644E+04</pdfrwt>
<totfact> 0.53609408E+00</totfact>
</mgrwt>
</event>
<event>
 6    1  0.2236204E-005  0.3582714E+04  0.7818608E-02  0.8094463E-01
          1   -1    0    0  501    0  0.00000000000E+00  0.00000000000E+00  0.17921545493E+04  0.17921545493E+04  0.00000000000E+00 0. -1.
         -1   -1    0    0    0  501 -0.00000000000E+00 -0.00000000000E+00 -0.17905599789E+04  0.17905599789E+04  0.00000000000E+00 0.  1.
         23    2    1    2    0    0 -0.79411278019E+03  0.16036575195E+04 -0.50701438479E+02  0.17924443195E+04  0.89182144859E+02 0.  0.
         13    1    3    3    0    0 -0.43986926776E+03  0.89753114343E+03  0.15800812257E+02  0.99964833407E+03  0.00000000000E+00 0. -1.
        -13    1    3    3    0    0 -0.35424351244E+03  0.70612637609E+03 -0.66502250736E+02  0.79279598540E+03  0.00000000000E+00 0.  1.
         22    1    1    2    0    0  0.79411278019E+03 -0.16036575195E+04  0.52296008862E+02  0.17902702087E+04  0.00000000000E+00 0. -1.
<mgrwt>
<rscale>  0 0.35827142E+04</rscale>
<asrwt>0</asrwt>
<pdfrwt beam="1">  1        1 0.27571609E+00 0.35827142E+04</pdfrwt>
<pdfrwt beam="2">  1       -1 0.27547077E+00 0.35827142E+04</pdfrwt>
<totfact> 0.15911960E-01</totfact>
</mgrwt>
</event>
<event>
 6    1  0.2236204E-005  0.2245801E+04  0.7818608E-02  0.8499603E-01
          2   -1    0    0  501    0  0.00000000000E+00  0.00000000000E+00  0.16502267708E+04  0.16502267708E+04  0.00000000000E+00 0. -1.
         -2   -1    0    0    0  501 -0.00000000000E+00 -0.00000000000E+00 -0.76408006277E+03  0.76408006277E+03  0.00000000000E+00 0.  1.
         23    2    1    2    0    0 -0.18923725731E+03  0.10762722670E+04  0.17528003094E+03  0.11106565105E+04  0.93070203900E+02 0.  0.
         11    1    3    3    0    0 -0.19800643461E+03  0.10556262795E+04  0.17515816823E+03  0.10882250567E+04  0.00000000000E+00 0. -1.
        -11    1    3    3    0    0  0.87691772975E+01  0.20645987441E+02  0.12186271537E+00  0.22431453774E+02  0.00000000000E+00 0.  1.
         22    1    1    2    0    0  0.18923725731E+03 -0.10762722670E+04  0.71086667707E+03  0.13036503230E+04  0.00000000000E+00 0. -1.
<mgrwt>
<rscale>  0 0.22458009E+04</rscale>
<asrwt>0</asrwt>
<pdfrwt beam="1">  1        2 0.25388104E+00 0.22458009E+04</pdfrwt>
<pdfrwt beam="2">  1       -2 0.11755078E+00 0.22458009E+04</pdfrwt>
<totfact> 0.53201716E+00</totfact>
</mgrwt>
</event>
<event>
 6    1  0.2236204E-005  0.2227521E+04  0.7818608E-02  0.8507060E-01
          2   -1    0    0  501    0  0.00000000000E+00  0.00000000000E+00  0.24913705729E+04  0.24913705729E+04  0.00000000000E+00 0. -1.
         -2   -1    0    0    0  501 -0.00000000000E+00 -0.00000000000E+00 -0.49790362837E+03  0.49790362837E+03  0.00000000000E+00 0.  1.
         23    2    1    2    0    0 -0.94425460140E+03 -0.16573724520E+02  0.21079433058E+03  0.97189642576E+03  0.90867881983E+02 0.  0.
         13    1    3    3    0    0 -0.42112074598E+03 -0.13619656346E+02  0.13997042117E+03  0.44398186510E+03  0.00000000000E+00 0. -1.
        -13    1    3    3    0    0 -0.52313385543E+03 -0.29540681737E+01  0.70823909404E+02  0.52791456066E+03  0.00000000000E+00 0.  1.
         22    1    1    2    0    0  0.94425460140E+03  0.16573724520E+02  0.17826726140E+04  0.20173777755E+04  0.00000000000E+00 0. -1.
<mgrwt>
<rscale>  0 0.22275210E+04</rscale>
<asrwt>0</asrwt>
<pdfrwt beam="1">  1        2 0.38328777E+00 0.22275210E+04</pdfrwt>
<pdfrwt beam="2">  1       -2 0.76600560E-01 0.22275210E+04</pdfrwt>
<totfact> 0.48930363E+00</totfact>
</mgrwt>
</event>
<event>
 6    1  0.2236204E-005  0.5992573E+04  0.7818608E-02  0.7691323E-01
          2   -1    0    0  501    0  0.00000000000E+00  0.00000000000E+00  0.25545102542E+04  0.25545102542E+04  0.00000000000E+00 0. -1.
         -2   -1    0    0    0  501 -0.00000000000E+00 -0.00000000000E+00 -0.35144631617E+04  0.35144631617E+04  0.00000000000E+00 0.  1.
         23    2    1    2    0    0  0.92981866692E+03  0.26691658093E+04  0.52490341943E+03  0.28761992019E+04  0.89383321379E+02 0.  0.
         13    1    3    3    0    0  0.44656045520E+03  0.11978598630E+04  0.20193206511E+03  0.12942414962E+04  0.00000000000E+00 0.  1.
        -13    1    3    3    0    0  0.48325821172E+03  0.14713059462E+04  0.32297135433E+03  0.15819577056E+04  0.00000000000E+00 0. -1.
         22    1    1    2    0    0 -0.92981866692E+03 -0.26691658093E+04 -0.14848563269E+04  0.31927742141E+04  0.00000000000E+00 0.  1.
<mgrwt>
<rscale>  0 0.59925728E+04</rscale>
<asrwt>0</asrwt>
<pdfrwt beam="1">  1        2 0.39300158E+00 0.59925728E+04</pdfrwt>
<pdfrwt beam="2">  1       -2 0.54068664E+00 0.59925728E+04</pdfrwt>
<totfact> 0.21189032E-03</totfact>
</mgrwt>
</event>
<event>
 6    1  0.2236204E-005  0.2739891E+04  0.7818608E-02  0.8322177E-01
          2   -1    0    0  501    0  0.00000000000E+00  0.00000000000E+00  0.18411565630E+04  0.18411565630E+04  0.00000000000E+00 0. -1.
         -2   -1    0    0    0  501 -0.00000000000E+00 -0.00000000000E+00 -0.10193322216E+04  0.10193322216E+04  0.00000000000E+00 0.  1.
         23    2    1    2    0    0  0.24527222209E+03 -0.13410057862E+04  0.28699471841E+03  0.13960784231E+04  0.90631194963E+02 0.  0.
         11    1    3    3    0    0  0.44536889401E+02 -0.15549676423E+03  0.59606728646E+02  0.17238254060E+03  0.00000000000E+00 0. -1.
        -11    1    3    3    0    0  0.20073533269E+03 -0.11855090219E+04  0.22738798976E+03  0.12236958825E+04  0.00000000000E+00 0.  1.
         22    1    1    2    0    0 -0.24527222209E+03  0.13410057862E+04  0.53482962292E+03  0.14644103615E+04  0.00000000000E+00 0.  1.
<mgrwt>
<rscale>  0 0.27398907E+04</rscale>
<asrwt>0</asrwt>
<pdfrwt beam="1">  1        2 0.28325486E+00 0.27398907E+04</pdfrwt>
<pdfrwt beam="2">  1       -2 0.15682034E+00 0.27398907E+04</pdfrwt>
<totfact> 0.19045121E+00</totfact>
</mgrwt>
</event>
<event>
 6    1  0.2236204E-005  0.3283263E+04  0.7818608E-02  0.8167167E-01
          2   -1    0    0  501    0  0.00000000000E+00  0.00000000000E+00  0.29697187959E+04  0.29697187959E+04  0.00000000000E+00 0. -1.
         -2   -1    0    0    0  501 -0.00000000000E+00 -0.00000000000E+00 -0.90747796141E+03  0.90747796141E+03  0.00000000000E+00 0.  1.
         23    2    1    2    0    0 -0.50619465231E+03  0.14336588631E+03  0.28666803193E+04  0.29159945475E+04  0.91549681818E+02 0.  0.
         13    1    3    3    0    0 -0.30922403041E+03  0.63132472153E+02  0.19155257752E+04  0.19413511289E+04  0.00000000000E+00 0.  1.
        -13    1    3    3    0    0 -0.19697062190E+03  0.80233414156E+02  0.95115454412E+03  0.97464341861E+03  0.00000000000E+00 0. -1.
         22    1    1    2    0    0  0.50619465231E+03 -0.14336588631E+03 -0.80443948486E+03  0.96120220983E+03  0.00000000000E+00 0.  1.
<mgrwt>
<rscale>  0 0.32832632E+04</rscale>
<asrwt>0</asrwt>
<pdfrwt beam="1">  1        2 0.45687981E+00 0.32832632E+04</pdfrwt>
<pdfrwt beam="2">  1       -2 0.13961200E+00 0.32832632E+04</pdfrwt>
<totfact> 0.54990728E-01</totfact>
</mgrwt>
</event>
<event>
 6    1  0.2236204E-005  0.1393745E+04  0.7818608E-02  0.8958358E-01
          2   -1    0    0  501    0  0.00000000000E+00  0.00000000000E+00  0.52414426631E+03  0.52414426631E+03  0.00000000000E+00 0. -1.
         -2   -1    0    0    0  501 -0.00000000000E+00 -0.00000000000E+00 -0.92652282203E+03  0.92652282203E+03  0.00000000000E+00 0.  1.
         23    2    1    2    0    0 -0.21398445659E+03  0.46912594968E+03  0.28112606267E+03  0.59448540921E+03  0.92263396464E+02 0.  0.
         13    1    3    3    0    0 -0.19510874660E+03  0.43685327038E+03  0.22922634837E+03  0.53052136774E+03  0.00000000000E+00 0. -1.
        -13    1    3    3    0    0 -0.18875709989E+02  0.32272679297E+02  0.51899714300E+02  0.63964041469E+02  0.00000000000E+00 0.  1.
         22    1    1    2    0    0  0.21398445659E+03 -0.46912594968E+03 -0.68350461839E+03  0.85618167913E+03  0.00000000000E+00 0.  1.
<mgrwt>
<rscale>  0 0.13937455E+04</rscale>
<asrwt>0</asrwt>
<pdfrwt beam="1">  1        2 0.80637580E-01 0.13937455E+04</pdfrwt>
<pdfrwt beam="2">  1       -2 0.14254197E+00 0.13937455E+04</pdfrwt>
<totfact> 0.19431377E+01</totfact>
</mgrwt>
</event>
<event>
 6    1  0.2236204E-005  0.2071212E+04  0.7818608E-02  0.8574032E-01
          2   -1    0    0  501    0  0.00000000000E+00  0.00000000000E+00  0.17916070125E+04  0.17916070125E+04  0.00000000000E+00 0. -1.
         -2   -1    0    0    0  501 -0.00000000000E+00 -0.00000000000E+00 -0.59861353926E+03  0.59861353926E+03  0.00000000000E+00 0.  1.
         23    2    1    2    0    0 -0.89890999250E+02  0.85479679801E+03  0.12601104749E+04  0.15280937342E+04  0.91837323973E+02 0.  0.
         13    1    3    3    0    0  0.57027617389E+01  0.18267151435E+03  0.31947827319E+03  0.36805946624E+03  0.00000000000E+00 0. -1.
        -13    1    3    3    0    0 -0.95593760988E+02  0.67212528366E+03  0.94063220168E+03  0.11600342680E+04  0.00000000000E+00 0.  1.
         22    1    1    2    0    0  0.89890999250E+02 -0.85479679801E+03 -0.67117001612E+02  0.86212681755E+03  0.00000000000E+00 0.  1.
<mgrwt>
<rscale>  0 0.20712124E+04</rscale>
<asrwt>0</asrwt>
<pdfrwt beam="1">  1        2 0.27563185E+00 0.20712124E+04</pdfrwt>
<pdfrwt beam="2">  1       -2 0.92094391E-01 0.20712124E+04</pdfrwt>
<totfact> 0.80722917E+00</totfact>
</mgrwt>
</event>
<event>
 6    1  0.2236204E-005  0.3171749E+04  0.7818608E-02  0.8196318E-01
          2   -1    0    0  501    0  0.00000000000E+00  0.00000000000E+00  0.12959703238E+04  0.12959703238E+04  0.00000000000E+00 0.  1.
         -2   -1    0    0    0  501 -0.00000000000E+00 -0.00000000000E+00 -0.19406288547E+04  0.19406288547E+04  0.00000000000E+00 0. -1.
         23    2    1    2    0    0 -0.20251706380E+02  0.15725285853E+04 -0.12536504184E+03  0.15804222523E+04  0.93604586305E+02 0.  0.
         11    1    3    3    0    0  0.10235926783E+02  0.21629979582E+02 -0.58018582801E+01  0.24622992777E+02  0.00000000000E+00 0. -1.
        -11    1    3    3    0    0 -0.30487633162E+02  0.15508986057E+04 -0.11956318356E+03  0.15557992595E+04  0.00000000000E+00 0.  1.
         22    1    1    2    0    0  0.20251706380E+02 -0.15725285853E+04 -0.51929348899E+03  0.16561769262E+04  0.00000000000E+00 0. -1.
<mgrwt>
<rscale>  0 0.31717487E+04</rscale>
<asrwt>0</asrwt>
<pdfrwt beam="1">  1        2 0.19938005E+00 0.31717487E+04</pdfrwt>
<pdfrwt beam="2">  1       -2 0.29855828E+00 0.31717487E+04</pdfrwt>
<totfact> 0.45499165E-01</totfact>
</mgrwt>
</event>
<event>
 6    1  0.2236204E-005  0.2198321E+04  0.7818608E-02  0.8519127E-01
         -2   -1    0    0    0  501 -0.00000000000E+00  0.00000000000E+00  0.74877013962E+03  0.74877013962E+03  0.00000000000E+00 0.  1.
          2   -1    0    0  501    0  0.00000000000E+00 -0.00000000000E+00 -0.16135179475E+04  0.16135179475E+04  0.00000000000E+00 0. -1.
         23    2    1    2    0    0  0.71830093805E+03 -0.44476405005E+03  0.31929808025E+03  0.90773112260E+03  0.90847284348E+02 0.  0.
         11    1    3    3    0    0  0.63837997221E+03 -0.42605615644E+03  0.29329588867E+03  0.82162967064E+03  0.00000000000E+00 0.  1.
        -11    1    3    3    0    0  0.79920965836E+02 -0.18707893608E+02  0.26002191584E+02  0.86101451966E+02  0.00000000000E+00 0. -1.
         22    1    1    2    0    0 -0.71830093805E+03  0.44476405005E+03 -0.11840458881E+04  0.14545569645E+04  0.00000000000E+00 0. -1.
<mgrwt>
<rscale>  0 0.21983212E+04</rscale>
<asrwt>0</asrwt>
<pdfrwt beam="1">  1        2 0.24823353E+00 0.21983212E+04</pdfrwt>
<pdfrwt beam="2">  1       -2 0.11519541E+00 0.21983212E+04</pdfrwt>
<totfact> 0.58837665E+00</totfact>
</mgrwt>
</event>
<event>
 6    1  0.2236204E-005  0.3880695E+04  0.7818608E-02  0.8029056E-01
          2   -1    0    0  501    0  0.00000000000E+00  0.00000000000E+00  0.34579813604E+04  0.34579813604E+04  0.00000000000E+00 0. -1.
         -2   -1    0    0    0  501 -0.00000000000E+00 -0.00000000000E+00 -0.10887707620E+04  0.10887707620E+04  0.00000000000E+00 0.  1.
         23    2    1    2    0    0 -0.58096522278E+03 -0.57044360001E+03  0.32473827023E+04  0.33492076619E+04  0.93653917954E+02 0.  0.
         13    1    3    3    0    0 -0.27030815353E+03 -0.20085090905E+03  0.13339650498E+04  0.13758162449E+04  0.00000000000E+00 0. -1.
        -13    1    3    3    0    0 -0.31065706926E+03 -0.36959269096E+03  0.19134176525E+04  0.19733914170E+04  0.00000000000E+00 0.  1.
         22    1    1    2    0    0  0.58096522278E+03  0.57044360001E+03 -0.87817210390E+03  0.11975444605E+04  0.00000000000E+00 0.  1.
<mgrwt>
<rscale>  0 0.38806953E+04</rscale>
<asrwt>0</asrwt>
<pdfrwt beam="1">  1        2 0.53199713E+00 0.38806953E+04</pdfrwt>
<pdfrwt beam="2">  1       -2 0.16750320E+00 0.38806953E+04</pdfrwt>
<totfact> 0.15358399E-01</totfact>
</mgrwt>
</event>
<event>
 6    1  0.2236204E-005  0.1403499E+04  0.7818608E-02  0.8951289E-01
          2   -1    0    0  501    0  0.00000000000E+00  0.00000000000E+00  0.84178984603E+03  0.84178984603E+03  0.00000000000E+00 0.  1.
         -2   -1    0    0    0  501 -0.00000000000E+00 -0.00000000000E+00 -0.58500659718E+03  0.58500659718E+03  0.00000000000E+00 0. -1.
         23    2    1    2    0    0 -0.25028105208E+03  0.39088669721E+03  0.66007701196E+03  0.81191525594E+03  0.89842673677E+02 0.  0.
         13    1    3    3    0    0 -0.11556150833E+03  0.11032255270E+03  0.19151055793E+03  0.24940293030E+03  0.00000000000E+00 0.  1.
        -13    1    3    3    0    0 -0.13471954376E+03  0.28056414451E+03  0.46856645403E+03  0.56251232564E+03  0.00000000000E+00 0. -1.
         22    1    1    2    0    0  0.25028105208E+03 -0.39088669721E+03 -0.40329376311E+03  0.61488118727E+03  0.00000000000E+00 0. -1.
<mgrwt>
<rscale>  0 0.14034994E+04</rscale>
<asrwt>0</asrwt>
<pdfrwt beam="1">  1        2 0.12950613E+00 0.14034994E+04</pdfrwt>
<pdfrwt beam="2">  1       -2 0.90001016E-01 0.14034994E+04</pdfrwt>
<totfact> 0.33083129E+01</totfact>
</mgrwt>
</event>
<event>
 6    1  0.2236204E-005  0.3061379E+04  0.7818608E-02  0.8226418E-01
          2   -1    0    0  501    0  0.00000000000E+00  0.00000000000E+00  0.20632180377E+04  0.20632180377E+04  0.00000000000E+00 0. -1.
         -2   -1    0    0    0  501 -0.00000000000E+00 -0.00000000000E+00 -0.11356100208E+04  0.11356100208E+04  0.00000000000E+00 0.  1.
         23    2    1    2    0    0 -0.29409073402E+03 -0.11819278613E+04 -0.50213689633E+03  0.13206338870E+04  0.92138872702E+02 0.  0.
         13    1    3    3    0    0 -0.24454169294E+03 -0.96645442351E+03 -0.37185416497E+03  0.10640067257E+04  0.00000000000E+00 0. -1.
        -13    1    3    3    0    0 -0.49549041084E+02 -0.21547343775E+03 -0.13028273137E+03  0.25662716135E+03  0.00000000000E+00 0.  1.
         22    1    1    2    0    0  0.29409073402E+03  0.11819278613E+04  0.14297449131E+04  0.18781941715E+04  0.00000000000E+00 0. -1.
<mgrwt>
<rscale>  0 0.30613795E+04</rscale>
<asrwt>0</asrwt>
<pdfrwt beam="1">  1        2 0.31741816E+00 0.30613795E+04</pdfrwt>
<pdfrwt beam="2">  1       -2 0.17470923E+00 0.30613795E+04</pdfrwt>
<totfact> 0.10358596E+00</totfact>
</mgrwt>
</event>
<event>
 6    1  0.3002630E-005  0.4152839E+04  0.7818608E-02  0.7974404E-01
          2   -1    0    0  501    0  0.00000000000E+00  0.00000000000E+00  0.24728299395E+04  0.24728299395E+04  0.00000000000E+00 0. -1.
         -2   -1    0    0    0  501 -0.00000000000E+00 -0.00000000000E+00 -0.17435558629E+04  0.17435558629E+04  0.00000000000E+00 0.  1.
         23    2    1    2    0    0  0.84313764459E+03  0.35977537150E+03  0.22551163413E+04  0.24363537739E+04  0.99752660829E+02 0.  0.
         13    1    3    3    0    0  0.47769837655E+03  0.15012565264E+03  0.12387278039E+04  0.13361062917E+04  0.00000000000E+00 0. -1.
        -13    1    3    3    0    0  0.36543926804E+03  0.20964971887E+03  0.10163885374E+04  0.11002474823E+04  0.00000000000E+00 0.  1.
         22    1    1    2    0    0 -0.84313764459E+03 -0.35977537150E+03 -0.15258422647E+04  0.17800320285E+04  0.00000000000E+00 0.  1.
<mgrwt>
<rscale>  0 0.41528386E+04</rscale>
<asrwt>0</asrwt>
<pdfrwt beam="1">  1        2 0.38043538E+00 0.41528386E+04</pdfrwt>
<pdfrwt beam="2">  1       -2 0.26823936E+00 0.41528386E+04</pdfrwt>
<totfact> 0.13974270E-01</totfact>
</mgrwt>
</event>
<event>
 6    1  0.2236204E-005  0.2004455E+04  0.7818608E-02  0.8604540E-01
         -1   -1    0    0    0  501 -0.00000000000E+00  0.00000000000E+00  0.93642060416E+03  0.93642060416E+03  0.00000000000E+00 0.  1.
          1   -1    0    0  501    0  0.00000000000E+00 -0.00000000000E+00 -0.10726593005E+04  0.10726593005E+04  0.00000000000E+00 0. -1.
         23    2    1    2    0    0 -0.19735510600E+03 -0.36073583321E+02 -0.10503736393E+04  0.10731883323E+04  0.90543211953E+02 0.  0.
         11    1    3    3    0    0 -0.14969501846E+03 -0.21372772673E+02 -0.55237950735E+03  0.57270281482E+03  0.00000000000E+00 0. -1.
        -11    1    3    3    0    0 -0.47660087543E+02 -0.14700810647E+02 -0.49799413195E+03  0.50048551750E+03  0.00000000000E+00 0.  1.
         22    1    1    2    0    0  0.19735510600E+03  0.36073583321E+02  0.91413494295E+03  0.93589157235E+03  0.00000000000E+00 0.  1.
<mgrwt>
<rscale>  0 0.20044553E+04</rscale>
<asrwt>0</asrwt>
<pdfrwt beam="1">  1        1 0.16502451E+00 0.20044553E+04</pdfrwt>
<pdfrwt beam="2">  1       -1 0.14406471E+00 0.20044553E+04</pdfrwt>
<totfact> 0.47936730E+00</totfact>
</mgrwt>
</event>
<event>
 6    1  0.4391197E-005  0.3145679E+04  0.7818608E-02  0.8203312E-01
          2   -1    0    0  501    0  0.00000000000E+00  0.00000000000E+00  0.23653164326E+04  0.23653164326E+04  0.00000000000E+00 0. -1.
         -2   -1    0    0    0  501 -0.00000000000E+00 -0.00000000000E+00 -0.10458746934E+04  0.10458746934E+04  0.00000000000E+00 0.  1.
         23    2    1    2    0    0 -0.12101172513E+04 -0.36811610829E+03 -0.35117449198E+03  0.13157551754E+04  0.89414352792E+02 0.  0.
         11    1    3    3    0    0 -0.73346904524E+03 -0.19355098255E+03 -0.24501498773E+03  0.79716445441E+03  0.00000000000E+00 0. -1.
        -11    1    3    3    0    0 -0.47664820611E+03 -0.17456512574E+03 -0.10615950425E+03  0.51859072095E+03  0.00000000000E+00 0.  1.
         22    1    1    2    0    0  0.12101172513E+04  0.36811610829E+03  0.16706162312E+04  0.20954359506E+04  0.00000000000E+00 0. -1.
<mgrwt>
<rscale>  0 0.31456793E+04</rscale>
<asrwt>0</asrwt>
<pdfrwt beam="1">  1        2 0.36389483E+00 0.31456793E+04</pdfrwt>
<pdfrwt beam="2">  1       -2 0.16090380E+00 0.31456793E+04</pdfrwt>
<totfact> 0.87302238E-01</totfact>
</mgrwt>
</event>
<event>
 6    1  0.2236204E-005  0.1708121E+04  0.7818608E-02  0.8756746E-01
         -1   -1    0    0    0  501 -0.00000000000E+00  0.00000000000E+00  0.11406213282E+04  0.11406213282E+04  0.00000000000E+00 0.  1.
          1   -1    0    0  501    0  0.00000000000E+00 -0.00000000000E+00 -0.63949334930E+03  0.63949334930E+03  0.00000000000E+00 0. -1.
         23    2    1    2    0    0  0.20262330353E+03  0.77703281269E+03  0.54710759407E+03  0.97578245755E+03  0.89378352226E+02 0.  0.
         13    1    3    3    0    0  0.17758189525E+03  0.62205029955E+03  0.39963618545E+03  0.76038870679E+03  0.00000000000E+00 0. -1.
        -13    1    3    3    0    0  0.25041408287E+02  0.15498251314E+03  0.14747140862E+03  0.21539375076E+03  0.00000000000E+00 0.  1.
         22    1    1    2    0    0 -0.20262330353E+03 -0.77703281269E+03 -0.45979615123E+02  0.80433222000E+03  0.00000000000E+00 0. -1.
<mgrwt>
<rscale>  0 0.17081215E+04</rscale>
<asrwt>0</asrwt>
<pdfrwt beam="1">  1        1 0.98383592E-01 0.17081215E+04</pdfrwt>
<pdfrwt beam="2">  1       -1 0.17548020E+00 0.17081215E+04</pdfrwt>
<totfact> 0.66566693E+00</totfact>
</mgrwt>
</event>
<event>
 6    1  0.2236204E-005  0.3149545E+04  0.7818608E-02  0.8202271E-01
         -2   -1    0    0    0  501 -0.00000000000E+00  0.00000000000E+00  0.13634136535E+04  0.13634136535E+04  0.00000000000E+00 0.  1.
          2   -1    0    0  501    0  0.00000000000E+00 -0.00000000000E+00 -0.18188961436E+04  0.18188961436E+04  0.00000000000E+00 0. -1.
         23    2    1    2    0    0  0.45713420459E+03 -0.14786000751E+04 -0.51480260096E+03  0.16335203541E+04  0.90206242760E+02 0.  0.
         13    1    3    3    0    0  0.15876795908E+03 -0.65591953506E+03 -0.24019051397E+03  0.71633035975E+03  0.00000000000E+00 0. -1.
        -13    1    3    3    0    0  0.29836624551E+03 -0.82268054004E+03 -0.27461208699E+03  0.91718999435E+03  0.00000000000E+00 0.  1.
         22    1    1    2    0    0 -0.45713420459E+03  0.14786000751E+04  0.59320110881E+02  0.15487894430E+04  0.00000000000E+00 0. -1.
<mgrwt>
<rscale>  0 0.31495446E+04</rscale>
<asrwt>0</asrwt>
<pdfrwt beam="1">  1        2 0.27983017E+00 0.31495446E+04</pdfrwt>
<pdfrwt beam="2">  1       -2 0.20975595E+00 0.31495446E+04</pdfrwt>
<totfact> 0.81857964E-01</totfact>
</mgrwt>
</event>
<event>
 6    1  0.2236204E-005  0.2829014E+04  0.7818608E-02  0.8294317E-01
         -2   -1    0    0    0  501 -0.00000000000E+00  0.00000000000E+00  0.85528684381E+03  0.85528684381E+03  0.00000000000E+00 0. -1.
          2   -1    0    0  501    0  0.00000000000E+00 -0.00000000000E+00 -0.23393678285E+04  0.23393678285E+04  0.00000000000E+00 0.  1.
         23    2    1    2    0    0  0.41282574236E+03  0.66376478211E+03  0.58646483100E+03  0.98147398507E+03  0.91331297199E+02 0.  0.
         13    1    3    3    0    0  0.30140552099E+03  0.40680833664E+03  0.39605239187E+03  0.64280308645E+03  0.00000000000E+00 0.  1.
        -13    1    3    3    0    0  0.11142022137E+03  0.25695644547E+03  0.19041243913E+03  0.33867089862E+03  0.00000000000E+00 0. -1.
         22    1    1    2    0    0 -0.41282574236E+03 -0.66376478211E+03 -0.20705458157E+04  0.22131806873E+04  0.00000000000E+00 0.  1.
<mgrwt>
<rscale>  0 0.28290143E+04</rscale>
<asrwt>0</asrwt>
<pdfrwt beam="1">  1        2 0.35990274E+00 0.28290143E+04</pdfrwt>
<pdfrwt beam="2">  1       -2 0.13158259E+00 0.28290143E+04</pdfrwt>
<totfact> 0.15740333E+00</totfact>
</mgrwt>
</event>
<event>
 6    1  0.2236204E-005  0.2249485E+04  0.7818608E-02  0.8498109E-01
         -2   -1    0    0    0  501 -0.00000000000E+00  0.00000000000E+00  0.54157825471E+03  0.54157825471E+03  0.00000000000E+00 0.  1.
          2   -1    0    0  501    0  0.00000000000E+00 -0.00000000000E+00 -0.23358509310E+04  0.23358509310E+04  0.00000000000E+00 0. -1.
         23    2    1    2    0    0 -0.14585093550E+03 -0.10244560350E+04 -0.34177524992E+03  0.10940247345E+04  0.96421652529E+02 0.  0.
         11    1    3    3    0    0 -0.37897243899E+02 -0.58229218113E+03 -0.21032310360E+03  0.62027106430E+03  0.00000000000E+00 0. -1.
        -11    1    3    3    0    0 -0.10795369160E+03 -0.44216385390E+03 -0.13145214631E+03  0.47375367017E+03  0.00000000000E+00 0.  1.
         22    1    1    2    0    0  0.14585093550E+03  0.10244560350E+04 -0.14524974264E+04  0.17834044512E+04  0.00000000000E+00 0. -1.
<mgrwt>
<rscale>  0 0.22494853E+04</rscale>
<asrwt>0</asrwt>
<pdfrwt beam="1">  1        2 0.35936168E+00 0.22494853E+04</pdfrwt>
<pdfrwt beam="2">  1       -2 0.83319731E-01 0.22494853E+04</pdfrwt>
<totfact> 0.49647723E+00</totfact>
</mgrwt>
</event>
<event>
 6    1  0.6176278E-005  0.2757725E+04  0.7818608E-02  0.8316515E-01
          1   -1    0    0  501    0  0.00000000000E+00  0.00000000000E+00  0.17222836297E+04  0.17222836297E+04  0.00000000000E+00 0. -1.
         -1   -1    0    0    0  501 -0.00000000000E+00 -0.00000000000E+00 -0.11039187901E+04  0.11039187901E+04  0.00000000000E+00 0.  1.
         23    2    1    2    0    0 -0.15135296769E+03  0.13689991505E+04  0.30470336496E+03  0.14135984712E+04  0.91378893832E+02 0.  0.
         13    1    3    3    0    0 -0.36098786525E+02  0.65873763443E+03  0.11769305388E+03  0.67014181211E+03  0.00000000000E+00 0.  1.
        -13    1    3    3    0    0 -0.11525418117E+03  0.71026151609E+03  0.18701031108E+03  0.74345665910E+03  0.00000000000E+00 0. -1.
         22    1    1    2    0    0  0.15135296769E+03 -0.13689991505E+04  0.31366147460E+03  0.14126039486E+04  0.00000000000E+00 0. -1.
<mgrwt>
<rscale>  0 0.27577246E+04</rscale>
<asrwt>0</asrwt>
<pdfrwt beam="1">  1        1 0.26496671E+00 0.27577246E+04</pdfrwt>
<pdfrwt beam="2">  1       -1 0.16983366E+00 0.27577246E+04</pdfrwt>
<totfact> 0.98668234E-01</totfact>
</mgrwt>
</event>
<event>
 6    1  0.2236204E-005  0.8233426E+03  0.7818608E-02  0.9526831E-01
          4   -1    0    0  501    0  0.00000000000E+00  0.00000000000E+00  0.81267818395E+03  0.81267818395E+03  0.00000000000E+00 0. -1.
         -4   -1    0    0    0  501 -0.00000000000E+00 -0.00000000000E+00 -0.20853673040E+03  0.20853673040E+03  0.00000000000E+00 0.  1.
         23    2    1    2    0    0 -0.13137056507E+03 -0.13175987624E+03 -0.14256837824E+03  0.25167319148E+03  0.91622936433E+02 0.  0.
         11    1    3    3    0    0 -0.75151223455E+01 -0.65845113907E+02 -0.56393764905E+02  0.87019037052E+02  0.00000000000E+00 0.  1.
        -11    1    3    3    0    0 -0.12385544273E+03 -0.65914762335E+02 -0.86174613337E+02  0.16465415443E+03  0.00000000000E+00 0. -1.
         22    1    1    2    0    0  0.13137056507E+03  0.13175987624E+03  0.74670983179E+03  0.76954172288E+03  0.00000000000E+00 0. -1.
<mgrwt>
<rscale>  0 0.82334258E+03</rscale>
<asrwt>0</asrwt>
<pdfrwt beam="1">  1        4 0.12502741E+00 0.82334258E+03</pdfrwt>
<pdfrwt beam="2">  1       -4 0.32082574E-01 0.82334258E+03</pdfrwt>
<totfact> 0.89786188E+00</totfact>
</mgrwt>
</event>
<event>
 6    1  0.2236204E-005  0.1653495E+04  0.7818608E-02  0.8788342E-01
          2   -1    0    0  501    0  0.00000000000E+00  0.00000000000E+00  0.10574475446E+04  0.10574475446E+04  0.00000000000E+00 0. -1.
         -2   -1    0    0    0  501 -0.00000000000E+00 -0.00000000000E+00 -0.64637819071E+03  0.64637819071E+03  0.00000000000E+00 0.  1.
         23    2    1    2    0    0 -0.64249548595E+03  0.35491786135E+03  0.59227453699E+03  0.94778178413E+03  0.93456114807E+02 0.  0.
         11    1    3    3    0    0 -0.38643961142E+03  0.16120655459E+03  0.32597573566E+03  0.53064423747E+03  0.00000000000E+00 0.  1.
        -11    1    3    3    0    0 -0.25605587452E+03  0.19371130676E+03  0.26629880133E+03  0.41713754666E+03  0.00000000000E+00 0. -1.
         22    1    1    2    0    0  0.64249548595E+03 -0.35491786135E+03 -0.18120518308E+03  0.75604395120E+03  0.00000000000E+00 0.  1.
<mgrwt>
<rscale>  0 0.16534945E+04</rscale>
<asrwt>0</asrwt>
<pdfrwt beam="1">  1        2 0.16268424E+00 0.16534945E+04</pdfrwt>
<pdfrwt beam="2">  1       -2 0.99442799E-01 0.16534945E+04</pdfrwt>
<totfact> 0.18514125E+01</totfact>
</mgrwt>
</event>
<event>
 6    1  0.2236204E-005  0.2023158E+04  0.7818608E-02  0.8595869E-01
          1   -1    0    0  501    0  0.00000000000E+00  0.00000000000E+00  0.14289696071E+04  0.14289696071E+04  0.00000000000E+00 0.  1.
         -1   -1    0    0    0  501 -0.00000000000E+00 -0.00000000000E+00 -0.71610505143E+03  0.71610505143E+03  0.00000000000E+00 0. -1.
         23    2    1    2    0    0  0.16868798198E+03 -0.30640723923E+02  0.14119659136E+04  0.14252571831E+04  0.91191048632E+02 0.  0.
         13    1    3    3    0    0  0.54371728174E+02 -0.54627664145E+02  0.60124870313E+03  0.60616868076E+03  0.00000000000E+00 0.  1.
        -13    1    3    3    0    0  0.11431625381E+03  0.23986940222E+02  0.81071721051E+03  0.81908850230E+03  0.00000000000E+00 0. -1.
         22    1    1    2    0    0 -0.16868798198E+03  0.30640723923E+02 -0.69910135799E+03  0.71981747546E+03  0.00000000000E+00 0. -1.
<mgrwt>
<rscale>  0 0.20231583E+04</rscale>
<asrwt>0</asrwt>
<pdfrwt beam="1">  1        1 0.21984148E+00 0.20231583E+04</pdfrwt>
<pdfrwt beam="2">  1       -1 0.11017001E+00 0.20231583E+04</pdfrwt>
<totfact> 0.51612282E+00</totfact>
</mgrwt>
</event>
<event>
 6    1  0.2236204E-005  0.4569166E+04  0.7818608E-02  0.7898638E-01
          2   -1    0    0  501    0  0.00000000000E+00  0.00000000000E+00  0.23182578646E+04  0.23182578646E+04  0.00000000000E+00 0.  1.
         -2   -1    0    0    0  501 -0.00000000000E+00 -0.00000000000E+00 -0.22513975132E+04  0.22513975132E+04  0.00000000000E+00 0. -1.
         23    2    1    2    0    0 -0.77454233505E+03  0.20357896297E+04  0.71937672217E+03  0.22958627621E+04  0.95539044902E+02 0.  0.
         13    1    3    3    0    0 -0.26403455842E+03  0.57579637730E+03  0.22031089441E+03  0.67066579333E+03  0.00000000000E+00 0. -1.
        -13    1    3    3    0    0 -0.51050777664E+03  0.14599932523E+04  0.49906582777E+03  0.16251969688E+04  0.00000000000E+00 0.  1.
         22    1    1    2    0    0  0.77454233505E+03 -0.20357896297E+04 -0.65251637082E+03  0.22737926157E+04  0.00000000000E+00 0. -1.
<mgrwt>
<rscale>  0 0.45691662E+04</rscale>
<asrwt>0</asrwt>
<pdfrwt beam="1">  1        2 0.35665506E+00 0.45691662E+04</pdfrwt>
<pdfrwt beam="2">  1       -2 0.34636885E+00 0.45691662E+04</pdfrwt>
<totfact> 0.54699506E-02</totfact>
</mgrwt>
</event>
<event>
 6    1  0.2236204E-005  0.3290170E+04  0.7818608E-02  0.8165401E-01
         -2   -1    0    0    0  501 -0.00000000000E+00  0.00000000000E+00  0.99449138708E+03  0.99449138708E+03  0.00000000000E+00 0.  1.
          2   -1    0    0  501    0  0.00000000000E+00 -0.00000000000E+00 -0.27212951950E+04  0.27212951950E+04  0.00000000000E+00 0. -1.
         23    2    1    2    0    0 -0.34409013036E+03  0.52414985075E+03  0.85206157444E+03  0.10617937893E+04  0.90917767843E+02 0.  0.
         13    1    3    3    0    0 -0.25837244831E+03  0.39220728881E+03  0.70014824541E+03  0.84308388965E+03  0.00000000000E+00 0. -1.
        -13    1    3    3    0    0 -0.85717682048E+02  0.13194256194E+03  0.15191332903E+03  0.21870989964E+03  0.00000000000E+00 0.  1.
         22    1    1    2    0    0  0.34409013036E+03 -0.52414985075E+03 -0.25788653824E+04  0.26539927928E+04  0.00000000000E+00 0. -1.
<mgrwt>
<rscale>  0 0.32901700E+04</rscale>
<asrwt>0</asrwt>
<pdfrwt beam="1">  1        2 0.41866079E+00 0.32901700E+04</pdfrwt>
<pdfrwt beam="2">  1       -2 0.15299868E+00 0.32901700E+04</pdfrwt>
<totfact> 0.61247753E-01</totfact>
</mgrwt>
</event>
<event>
 6    1  0.2236204E-005  0.1503938E+04  0.7818608E-02  0.8881838E-01
          1   -1    0    0  501    0  0.00000000000E+00  0.00000000000E+00  0.27422177215E+03  0.27422177215E+03  0.00000000000E+00 0. -1.
         -1   -1    0    0    0  501 -0.00000000000E+00 -0.00000000000E+00 -0.20620448929E+04  0.20620448929E+04  0.00000000000E+00 0.  1.
         23    2    1    2    0    0 -0.67902244635E+03 -0.31356212727E+03 -0.81169954572E+03  0.11065472157E+04  0.78726728516E+02 0.  0.
         13    1    3    3    0    0 -0.54861378102E+03 -0.27885022728E+03 -0.69310302479E+03  0.92689068015E+03  0.00000000000E+00 0. -1.
        -13    1    3    3    0    0 -0.13040866534E+03 -0.34711899985E+02 -0.11859652093E+03  0.17965653557E+03  0.00000000000E+00 0.  1.
         22    1    1    2    0    0  0.67902244635E+03  0.31356212727E+03 -0.97612357498E+03  0.12297194493E+04  0.00000000000E+00 0.  1.
<mgrwt>
<rscale>  0 0.15039383E+04</rscale>
<asrwt>0</asrwt>
<pdfrwt beam="1">  1        1 0.42187963E-01 0.15039383E+04</pdfrwt>
<pdfrwt beam="2">  1       -1 0.31723769E+00 0.15039383E+04</pdfrwt>
<totfact> 0.24404897E+00</totfact>
</mgrwt>
</event>
<event>
 6    1  0.2236204E-005  0.4748209E+03  0.7818608E-02  0.1020568E+00
         -2   -1    0    0    0  501 -0.00000000000E+00  0.00000000000E+00  0.49401668411E+02  0.49401668411E+02  0.00000000000E+00 0.  1.
          2   -1    0    0  501    0  0.00000000000E+00 -0.00000000000E+00 -0.11409275625E+04  0.11409275625E+04  0.00000000000E+00 0. -1.
         23    2    1    2    0    0  0.48043623057E+02 -0.75343334039E+02 -0.10937046361E+04  0.11009449224E+04  0.88910535184E+02 0.  0.
         11    1    3    3    0    0  0.67841568615E+02 -0.63349520883E+02 -0.64510672616E+03  0.65175020396E+03  0.00000000000E+00 0. -1.
        -11    1    3    3    0    0 -0.19797945558E+02 -0.11993813156E+02 -0.44859790997E+03  0.44919471840E+03  0.00000000000E+00 0.  1.
         22    1    1    2    0    0 -0.48043623057E+02  0.75343334039E+02  0.21787420328E+01  0.89384308563E+02  0.00000000000E+00 0.  1.
<mgrwt>
<rscale>  0 0.47482091E+03</rscale>
<asrwt>0</asrwt>
<pdfrwt beam="1">  1        2 0.17552731E+00 0.47482091E+03</pdfrwt>
<pdfrwt beam="2">  1       -2 0.76002568E-02 0.47482091E+03</pdfrwt>
<totfact> 0.22144744E+03</totfact>
</mgrwt>
</event>
<event>
 6    1  0.2236204E-005  0.1145373E+04  0.7818608E-02  0.9162063E-01
          2   -1    0    0  501    0  0.00000000000E+00  0.00000000000E+00  0.57780621610E+03  0.57780621610E+03  0.00000000000E+00 0. -1.
         -2   -1    0    0    0  501 -0.00000000000E+00 -0.00000000000E+00 -0.56761215291E+03  0.56761215291E+03  0.00000000000E+00 0.  1.
         23    2    1    2    0    0 -0.50329192861E+02 -0.55212531610E+03 -0.12112087940E+03  0.57566490787E+03  0.96666573343E+02 0.  0.
         11    1    3    3    0    0  0.15551562380E+02 -0.27889049718E+03 -0.86871761371E+02  0.29252087692E+03  0.00000000000E+00 0. -1.
        -11    1    3    3    0    0 -0.65880755242E+02 -0.27323481892E+03 -0.34249118029E+02  0.28314403096E+03  0.00000000000E+00 0.  1.
         22    1    1    2    0    0  0.50329192861E+02  0.55212531610E+03  0.13131494260E+03  0.56975346114E+03  0.00000000000E+00 0. -1.
<mgrwt>
<rscale>  0 0.11453730E+04</rscale>
<asrwt>0</asrwt>
<pdfrwt beam="1">  1        2 0.88893264E-01 0.11453730E+04</pdfrwt>
<pdfrwt beam="2">  1       -2 0.87324947E-01 0.11453730E+04</pdfrwt>
<totfact> 0.58247242E+01</totfact>
</mgrwt>
</event>
<event>
 6    1  0.2236204E-005  0.4175442E+04  0.7818608E-02  0.7970060E-01
         -2   -1    0    0    0  501 -0.00000000000E+00  0.00000000000E+00  0.90989439770E+03  0.90989439770E+03  0.00000000000E+00 0.  1.
          2   -1    0    0  501    0  0.00000000000E+00 -0.00000000000E+00 -0.47902025145E+04  0.47902025145E+04  0.00000000000E+00 0. -1.
         23    2    1    2    0    0 -0.14617458680E+04 -0.98445507443E+03 -0.34665493473E+04  0.38898347501E+04  0.89427232187E+02 0.  0.
         11    1    3    3    0    0 -0.11676370067E+04 -0.78365811802E+03 -0.26843689179E+04  0.30304014112E+04  0.00000000000E+00 0.  1.
        -11    1    3    3    0    0 -0.29410886127E+03 -0.20079695641E+03 -0.78218042939E+03  0.85943333896E+03  0.00000000000E+00 0. -1.
         22    1    1    2    0    0  0.14617458680E+04  0.98445507443E+03 -0.41375876949E+03  0.18102621621E+04  0.00000000000E+00 0. -1.
<mgrwt>
<rscale>  0 0.41754417E+04</rscale>
<asrwt>0</asrwt>
<pdfrwt beam="1">  1        2 0.73695423E+00 0.41754417E+04</pdfrwt>
<pdfrwt beam="2">  1       -2 0.13998375E+00 0.41754417E+04</pdfrwt>
<totfact> 0.16883057E-02</totfact>
</mgrwt>
</event>
<event>
 6    1  0.2236204E-005  0.3180948E+04  0.7818608E-02  0.8193867E-01
          2   -1    0    0  501    0  0.00000000000E+00  0.00000000000E+00  0.17243411559E+04  0.17243411559E+04  0.00000000000E+00 0. -1.
         -2   -1    0    0    0  501 -0.00000000000E+00 -0.00000000000E+00 -0.14669991402E+04  0.14669991402E+04  0.00000000000E+00 0.  1.
         23    2    1    2    0    0  0.10254900758E+04  0.39382732089E+03  0.12808775492E+04  0.16898893836E+04  0.91372744142E+02 0.  0.
         11    1    3    3    0    0  0.95959114828E+03  0.34906515871E+03  0.11634745209E+04  0.15480098894E+04  0.00000000000E+00 0.  1.
        -11    1    3    3    0    0  0.65898927546E+02  0.44762162183E+02  0.11740302827E+03  0.14187949415E+03  0.00000000000E+00 0. -1.
         22    1    1    2    0    0 -0.10254900758E+04 -0.39382732089E+03 -0.10235355335E+04  0.15014509125E+04  0.00000000000E+00 0.  1.
<mgrwt>
<rscale>  0 0.31809477E+04</rscale>
<asrwt>0</asrwt>
<pdfrwt beam="1">  1        2 0.26528325E+00 0.31809477E+04</pdfrwt>
<pdfrwt beam="2">  1       -2 0.22569218E+00 0.31809477E+04</pdfrwt>
<totfact> 0.72950242E-01</totfact>
</mgrwt>
</event>
<event>
 6    1  0.2236204E-005  0.2414218E+04  0.7818608E-02  0.8434200E-01
         -2   -1    0    0    0  501 -0.00000000000E+00  0.00000000000E+00  0.80752025216E+03  0.80752025216E+03  0.00000000000E+00 0.  1.
          2   -1    0    0  501    0  0.00000000000E+00 -0.00000000000E+00 -0.18044284046E+04  0.18044284046E+04  0.00000000000E+00 0. -1.
         23    2    1    2    0    0 -0.56394645161E+03  0.62315818634E+03 -0.14340174982E+04  0.16646227860E+04  0.90559974272E+02 0.  0.
         13    1    3    3    0    0 -0.26692367106E+03  0.23751412458E+03 -0.56259841934E+03  0.66646694366E+03  0.00000000000E+00 0. -1.
        -13    1    3    3    0    0 -0.29702278054E+03  0.38564406176E+03 -0.87141907884E+03  0.99815584229E+03  0.00000000000E+00 0.  1.
         22    1    1    2    0    0  0.56394645161E+03 -0.62315818634E+03  0.43710934570E+03  0.94732587085E+03  0.00000000000E+00 0.  1.
<mgrwt>
<rscale>  0 0.24142183E+04</rscale>
<asrwt>0</asrwt>
<pdfrwt beam="1">  1        2 0.27760437E+00 0.24142183E+04</pdfrwt>
<pdfrwt beam="2">  1       -2 0.12423389E+00 0.24142183E+04</pdfrwt>
<totfact> 0.37529258E+00</totfact>
</mgrwt>
</event>
<event>
 6    1  0.2236204E-005  0.1050000E+04  0.7818608E-02  0.9255345E-01
          2   -1    0    0  501    0  0.00000000000E+00  0.00000000000E+00  0.18512686710E+03  0.18512686710E+03  0.00000000000E+00 0. -1.
         -2   -1    0    0    0  501 -0.00000000000E+00 -0.00000000000E+00 -0.14888425242E+04  0.14888425242E+04  0.00000000000E+00 0.  1.
         23    2    1    2    0    0 -0.34021059002E+02  0.15998248299E+03 -0.14454308686E+04  0.14575553702E+04  0.91899042614E+02 0.  0.
         11    1    3    3    0    0 -0.24381405922E+02  0.33440063294E+02 -0.71384050759E+03  0.71503913254E+03  0.00000000000E+00 0. -1.
        -11    1    3    3    0    0 -0.96396530793E+01  0.12654241969E+03 -0.73159036102E+03  0.74251623769E+03  0.00000000000E+00 0.  1.
         22    1    1    2    0    0  0.34021059002E+02 -0.15998248299E+03  0.14171521155E+03  0.21641402104E+03  0.00000000000E+00 0. -1.
<mgrwt>
<rscale>  0 0.10499995E+04</rscale>
<asrwt>0</asrwt>
<pdfrwt beam="1">  1        2 0.28481057E-01 0.10499995E+04</pdfrwt>
<pdfrwt beam="2">  1       -2 0.22905269E+00 0.10499995E+04</pdfrwt>
<totfact> 0.16353139E+01</totfact>
</mgrwt>
</event>
<event>
 6    1  0.2236204E-005  0.2157611E+04  0.7818608E-02  0.8536281E-01
         -2   -1    0    0    0  501 -0.00000000000E+00  0.00000000000E+00  0.42387051078E+03  0.42387051078E+03  0.00000000000E+00 0.  1.
          2   -1    0    0  501    0  0.00000000000E+00 -0.00000000000E+00 -0.27456999017E+04  0.27456999017E+04  0.00000000000E+00 0. -1.
         23    2    1    2    0    0 -0.98312266241E+03  0.14084588307E+03 -0.17745021965E+04  0.20355797644E+04  0.91428659411E+02 0.  0.
         13    1    3    3    0    0 -0.40649615956E+03  0.10143049357E+03 -0.77529334075E+03  0.88125310608E+03  0.00000000000E+00 0.  1.
        -13    1    3    3    0    0 -0.57662650285E+03  0.39415389494E+02 -0.99920885575E+03  0.11543266583E+04  0.00000000000E+00 0. -1.
         22    1    1    2    0    0  0.98312266241E+03 -0.14084588307E+03 -0.54732719438E+03  0.11339906480E+04  0.00000000000E+00 0.  1.
<mgrwt>
<rscale>  0 0.21576109E+04</rscale>
<asrwt>0</asrwt>
<pdfrwt beam="1">  1        2 0.42241538E+00 0.21576109E+04</pdfrwt>
<pdfrwt beam="2">  1       -2 0.65210846E-01 0.21576109E+04</pdfrwt>
<totfact> 0.49616955E+00</totfact>
</mgrwt>
</event>
<event>
 6    1  0.2236204E-005  0.2416875E+04  0.7818608E-02  0.8433213E-01
          2   -1    0    0  501    0  0.00000000000E+00  0.00000000000E+00  0.14551071227E+04  0.14551071227E+04  0.00000000000E+00 0. -1.
         -2   -1    0    0    0  501 -0.00000000000E+00 -0.00000000000E+00 -0.10035835256E+04  0.10035835256E+04  0.00000000000E+00 0.  1.
         23    2    1    2    0    0  0.41417366383E+03  0.10582904081E+04 -0.18696139828E+03  0.11551640851E+04  0.89056653472E+02 0.  0.
         13    1    3    3    0    0  0.83901748643E+02  0.19201407206E+03 -0.68877644784E+02  0.22057433496E+03  0.00000000000E+00 0. -1.
        -13    1    3    3    0    0  0.33027191519E+03  0.86627633600E+03 -0.11808375350E+03  0.93458975017E+03  0.00000000000E+00 0.  1.
         22    1    1    2    0    0 -0.41417366383E+03 -0.10582904081E+04  0.63848499541E+03  0.13035265632E+04  0.00000000000E+00 0. -1.
<mgrwt>
<rscale>  0 0.24168753E+04</rscale>
<asrwt>0</asrwt>
<pdfrwt beam="1">  1        2 0.22386263E+00 0.24168753E+04</pdfrwt>
<pdfrwt beam="2">  1       -2 0.15439747E+00 0.24168753E+04</pdfrwt>
<totfact> 0.33534614E+00</totfact>
</mgrwt>
</event>
<event>
 6    1  0.2236204E-005  0.2555698E+04  0.7818608E-02  0.8383407E-01
         -2   -1    0    0    0  501 -0.00000000000E+00  0.00000000000E+00  0.92489137203E+03  0.92489137203E+03  0.00000000000E+00 0.  1.
          2   -1    0    0  501    0  0.00000000000E+00 -0.00000000000E+00 -0.17655031149E+04  0.17655031149E+04  0.00000000000E+00 0. -1.
         23    2    1    2    0    0  0.23189681266E+02 -0.12727170176E+04 -0.51647249153E+03  0.13768448600E+04  0.92798521953E+02 0.  0.
         13    1    3    3    0    0 -0.13373873160E+02 -0.81127525569E+03 -0.29127291579E+03  0.86208254387E+03  0.00000000000E+00 0.  1.
        -13    1    3    3    0    0  0.36563554427E+02 -0.46144176194E+03 -0.22519957574E+03  0.51476231611E+03  0.00000000000E+00 0. -1.
         22    1    1    2    0    0 -0.23189681266E+02  0.12727170176E+04 -0.32413925138E+03  0.13135496270E+04  0.00000000000E+00 0. -1.
<mgrwt>
<rscale>  0 0.25556984E+04</rscale>
<asrwt>0</asrwt>
<pdfrwt beam="1">  1        2 0.27161586E+00 0.25556984E+04</pdfrwt>
<pdfrwt beam="2">  1       -2 0.14229098E+00 0.25556984E+04</pdfrwt>
<totfact> 0.27567196E+00</totfact>
</mgrwt>
</event>
<event>
 6    1  0.2236204E-005  0.2302304E+04  0.7818608E-02  0.8477013E-01
          2   -1    0    0  501    0  0.00000000000E+00  0.00000000000E+00  0.19942791805E+04  0.19942791805E+04  0.00000000000E+00 0. -1.
         -2   -1    0    0    0  501 -0.00000000000E+00 -0.00000000000E+00 -0.66447604926E+03  0.66447604926E+03  0.00000000000E+00 0.  1.
         23    2    1    2    0    0  0.20032857381E+03 -0.87738900773E+03 -0.16028295347E+03  0.91797967035E+03  0.83982388789E+02 0.  0.
         11    1    3    3    0    0  0.12438166455E+03 -0.40697488791E+03 -0.10466170702E+03  0.43823901102E+03  0.00000000000E+00 0. -1.
        -11    1    3    3    0    0  0.75946909264E+02 -0.47041411982E+03 -0.55621246444E+02  0.47974065933E+03  0.00000000000E+00 0.  1.
         22    1    1    2    0    0 -0.20032857381E+03  0.87738900773E+03  0.14900860847E+04  0.17407755594E+04  0.00000000000E+00 0. -1.
<mgrwt>
<rscale>  0 0.23023038E+04</rscale>
<asrwt>0</asrwt>
<pdfrwt beam="1">  1        2 0.30681218E+00 0.23023038E+04</pdfrwt>
<pdfrwt beam="2">  1       -2 0.10222709E+00 0.23023038E+04</pdfrwt>
<totfact> 0.47812701E+00</totfact>
</mgrwt>
</event>
<event>
 6    1  0.2236204E-005  0.3850899E+04  0.7818608E-02  0.8035320E-01
         -2   -1    0    0    0  501 -0.00000000000E+00  0.00000000000E+00  0.16682600234E+04  0.16682600234E+04  0.00000000000E+00 0. -1.
          2   -1    0    0  501    0  0.00000000000E+00 -0.00000000000E+00 -0.22222884890E+04  0.22222884890E+04  0.00000000000E+00 0.  1.
         23    2    1    2    0    0  0.14922060911E+04 -0.67838334924E+03  0.74122454244E+03  0.18013947742E+04  0.93414791095E+02 0.  0.
         13    1    3    3    0    0  0.37822544833E+03 -0.12959234856E+03  0.16858081295E+03  0.43389878666E+03  0.00000000000E+00 0. -1.
        -13    1    3    3    0    0  0.11139806428E+04 -0.54879100067E+03  0.57264372950E+03  0.13674959875E+04  0.00000000000E+00 0.  1.
         22    1    1    2    0    0 -0.14922060911E+04  0.67838334924E+03 -0.12952530081E+04  0.20891537382E+04  0.00000000000E+00 0.  1.
<mgrwt>
<rscale>  0 0.38508986E+04</rscale>
<asrwt>0</asrwt>
<pdfrwt beam="1">  1        2 0.34189054E+00 0.38508986E+04</pdfrwt>
<pdfrwt beam="2">  1       -2 0.25665539E+00 0.38508986E+04</pdfrwt>
<totfact> 0.23430118E-01</totfact>
</mgrwt>
</event>
<event>
 6    1  0.2236204E-005  0.2657719E+04  0.7818608E-02  0.8348855E-01
         -2   -1    0    0    0  501 -0.00000000000E+00  0.00000000000E+00  0.10941015865E+04  0.10941015865E+04  0.00000000000E+00 0.  1.
          2   -1    0    0  501    0  0.00000000000E+00 -0.00000000000E+00 -0.16139887263E+04  0.16139887263E+04  0.00000000000E+00 0. -1.
         23    2    1    2    0    0 -0.66123072523E+03  0.72021198151E+03 -0.11752732369E+04  0.15310336844E+04  0.82858862538E+02 0.  0.
         13    1    3    3    0    0 -0.56933465631E+03  0.57355373932E+03 -0.96904743746E+03  0.12618077424E+04  0.00000000000E+00 0.  1.
        -13    1    3    3    0    0 -0.91896068919E+02  0.14665824220E+03 -0.20622579944E+03  0.26922594199E+03  0.00000000000E+00 0. -1.
         22    1    1    2    0    0  0.66123072523E+03 -0.72021198151E+03  0.65538609705E+03  0.11770566284E+04  0.00000000000E+00 0.  1.
<mgrwt>
<rscale>  0 0.26577190E+04</rscale>
<asrwt>0</asrwt>
<pdfrwt beam="1">  1        2 0.24830596E+00 0.26577190E+04</pdfrwt>
<pdfrwt beam="2">  1       -2 0.16832332E+00 0.26577190E+04</pdfrwt>
<totfact> 0.21128869E+00</totfact>
</mgrwt>
</event>
<event>
 6    1  0.2236204E-005  0.3165048E+04  0.7818608E-02  0.8198109E-01
         -2   -1    0    0    0  501 -0.00000000000E+00  0.00000000000E+00  0.13488397289E+04  0.13488397289E+04  0.00000000000E+00 0.  1.
          2   -1    0    0  501    0  0.00000000000E+00 -0.00000000000E+00 -0.18566935644E+04  0.18566935644E+04  0.00000000000E+00 0. -1.
         23    2    1    2    0    0  0.57854050803E+03 -0.13480413489E+04  0.34359998429E+03  0.15093911398E+04  0.90972886480E+02 0.  0.
         11    1    3    3    0    0  0.44149369445E+03 -0.96623027785E+03  0.28171212812E+03  0.10990356478E+04  0.00000000000E+00 0.  1.
        -11    1    3    3    0    0  0.13704681358E+03 -0.38181107102E+03  0.61887856169E+02  0.41035549199E+03  0.00000000000E+00 0. -1.
         22    1    1    2    0    0 -0.57854050803E+03  0.13480413489E+04 -0.85145381976E+03  0.16961421535E+04  0.00000000000E+00 0. -1.
<mgrwt>
<rscale>  0 0.31650479E+04</rscale>
<asrwt>0</asrwt>
<pdfrwt beam="1">  1        2 0.28564516E+00 0.31650479E+04</pdfrwt>
<pdfrwt beam="2">  1       -2 0.20751381E+00 0.31650479E+04</pdfrwt>
<totfact> 0.80536305E-01</totfact>
</mgrwt>
</event>
<event>
 6    1  0.2236204E-005  0.2160858E+04  0.7818608E-02  0.8534899E-01
         -1   -1    0    0    0  501 -0.00000000000E+00  0.00000000000E+00  0.72059826361E+03  0.72059826361E+03  0.00000000000E+00 0.  1.
          1   -1    0    0  501    0  0.00000000000E+00 -0.00000000000E+00 -0.16199407841E+04  0.16199407841E+04  0.00000000000E+00 0. -1.
         23    2    1    2    0    0 -0.84699192630E+03 -0.59474792877E+03 -0.77978069759E+03  0.12987063109E+04  0.86369691446E+02 0.  0.
         11    1    3    3    0    0 -0.26864073277E+03 -0.15351096273E+03 -0.26711512965E+03  0.40875903840E+03  0.00000000000E+00 0. -1.
        -11    1    3    3    0    0 -0.57835119353E+03 -0.44123696604E+03 -0.51266556794E+03  0.88994727248E+03  0.00000000000E+00 0.  1.
         22    1    1    2    0    0  0.84699192630E+03  0.59474792877E+03 -0.11956182288E+03  0.10418327368E+04  0.00000000000E+00 0.  1.
<mgrwt>
<rscale>  0 0.21608577E+04</rscale>
<asrwt>0</asrwt>
<pdfrwt beam="1">  1        1 0.24922165E+00 0.21608577E+04</pdfrwt>
<pdfrwt beam="2">  1       -1 0.11086127E+00 0.21608577E+04</pdfrwt>
<totfact> 0.37056006E+00</totfact>
</mgrwt>
</event>
<event>
 6    1  0.2236204E-005  0.1772491E+04  0.7818608E-02  0.8721067E-01
         -2   -1    0    0    0  501 -0.00000000000E+00  0.00000000000E+00  0.43023686383E+03  0.43023686383E+03  0.00000000000E+00 0.  1.
          2   -1    0    0  501    0  0.00000000000E+00 -0.00000000000E+00 -0.18255776127E+04  0.18255776127E+04  0.00000000000E+00 0. -1.
         23    2    1    2    0    0 -0.10322002930E+03  0.82503126801E+03 -0.10816218139E+04  0.13671353793E+04  0.88444499627E+02 0.  0.
         13    1    3    3    0    0 -0.45350906021E+02  0.59719374999E+03 -0.81982729214E+03  0.10152900416E+04  0.00000000000E+00 0. -1.
        -13    1    3    3    0    0 -0.57869123279E+02  0.22783751802E+03 -0.26179452176E+03  0.35184533771E+03  0.00000000000E+00 0.  1.
         22    1    1    2    0    0  0.10322002930E+03 -0.82503126801E+03 -0.31371893499E+03  0.88867909721E+03  0.00000000000E+00 0.  1.
<mgrwt>
<rscale>  0 0.17724907E+04</rscale>
<asrwt>0</asrwt>
<pdfrwt beam="1">  1        2 0.28085809E+00 0.17724907E+04</pdfrwt>
<pdfrwt beam="2">  1       -2 0.66190287E-01 0.17724907E+04</pdfrwt>
<totfact> 0.16586300E+01</totfact>
</mgrwt>
</event>
<event>
 6    1  0.2236204E-005  0.2311981E+04  0.7818608E-02  0.8473212E-01
         -1   -1    0    0    0  501 -0.00000000000E+00  0.00000000000E+00  0.52333928066E+03  0.52333928066E+03  0.00000000000E+00 0.  1.
          1   -1    0    0  501    0  0.00000000000E+00 -0.00000000000E+00 -0.25534370535E+04  0.25534370535E+04  0.00000000000E+00 0. -1.
         23    2    1    2    0    0  0.82662557922E+03 -0.78851145834E+03 -0.12358400641E+04  0.16854081312E+04  0.90772995537E+02 0.  0.
         13    1    3    3    0    0  0.42710834290E+03 -0.37035758053E+03 -0.66476797627E+03  0.87264124147E+03  0.00000000000E+00 0. -1.
        -13    1    3    3    0    0  0.39951723631E+03 -0.41815387781E+03 -0.57107208781E+03  0.81276688977E+03  0.00000000000E+00 0.  1.
         22    1    1    2    0    0 -0.82662557922E+03  0.78851145834E+03 -0.79425770873E+03  0.13913682029E+04  0.00000000000E+00 0.  1.
<mgrwt>
<rscale>  0 0.23119809E+04</rscale>
<asrwt>0</asrwt>
<pdfrwt beam="1">  1        1 0.39283647E+00 0.23119809E+04</pdfrwt>
<pdfrwt beam="2">  1       -1 0.80513736E-01 0.23119809E+04</pdfrwt>
<totfact> 0.17276812E+00</totfact>
</mgrwt>
</event>
<event>
 6    1  0.2236204E-005  0.1616950E+04  0.7818608E-02  0.8810202E-01
         -2   -1    0    0    0  501 -0.00000000000E+00  0.00000000000E+00  0.52866155968E+03  0.52866155968E+03  0.00000000000E+00 0.  1.
          2   -1    0    0  501    0  0.00000000000E+00 -0.00000000000E+00 -0.12363904957E+04  0.12363904957E+04  0.00000000000E+00 0. -1.
         23    2    1    2    0    0 -0.13403509283E+03  0.19825808278E+03  0.48501185182E+03  0.54853972068E+03  0.91584143061E+02 0.  0.
         11    1    3    3    0    0 -0.11225006002E+03  0.16855125907E+03  0.31424276530E+03  0.37384237113E+03  0.00000000000E+00 0. -1.
        -11    1    3    3    0    0 -0.21785032809E+02  0.29706823713E+02  0.17076908652E+03  0.17469734955E+03  0.00000000000E+00 0.  1.
         22    1    1    2    0    0  0.13403509283E+03 -0.19825808278E+03 -0.11927407878E+04  0.12165123347E+04  0.00000000000E+00 0. -1.
<mgrwt>
<rscale>  0 0.16169504E+04</rscale>
<asrwt>0</asrwt>
<pdfrwt beam="1">  1        2 0.19021392E+00 0.16169504E+04</pdfrwt>
<pdfrwt beam="2">  1       -2 0.81332548E-01 0.16169504E+04</pdfrwt>
<totfact> 0.22983779E+01</totfact>
</mgrwt>
</event>
<event>
 6    1  0.2236204E-005  0.9256223E+03  0.7818608E-02  0.9394107E-01
          2   -1    0    0  501    0  0.00000000000E+00  0.00000000000E+00  0.14292334345E+04  0.14292334345E+04  0.00000000000E+00 0. -1.
         -2   -1    0    0    0  501 -0.00000000000E+00 -0.00000000000E+00 -0.14986645936E+03  0.14986645936E+03  0.00000000000E+00 0.  1.
         23    2    1    2    0    0  0.14691447885E+03  0.42828996076E+03  0.52580389907E+03  0.69996767162E+03  0.92026335631E+02 0.  0.
         13    1    3    3    0    0 -0.18600820446E-01  0.11796560746E+03  0.11772922833E+03  0.16666150153E+03  0.00000000000E+00 0. -1.
        -13    1    3    3    0    0  0.14693307967E+03  0.31032435329E+03  0.40807467075E+03  0.53330617009E+03  0.00000000000E+00 0.  1.
         22    1    1    2    0    0 -0.14691447885E+03 -0.42828996076E+03  0.75356307612E+03  0.87913222229E+03  0.00000000000E+00 0.  1.
<mgrwt>
<rscale>  0 0.92562229E+03</rscale>
<asrwt>0</asrwt>
<pdfrwt beam="1">  1        2 0.21988206E+00 0.92562229E+03</pdfrwt>
<pdfrwt beam="2">  1       -2 0.23056379E-01 0.92562229E+03</pdfrwt>
<totfact> 0.23138452E+02</totfact>
</mgrwt>
</event>
<event>
 6    1  0.2236204E-005  0.2849176E+04  0.7818608E-02  0.8288162E-01
          2   -1    0    0  501    0  0.00000000000E+00  0.00000000000E+00  0.10530251080E+04  0.10530251080E+04  0.00000000000E+00 0. -1.
         -2   -1    0    0    0  501 -0.00000000000E+00 -0.00000000000E+00 -0.19272583462E+04  0.19272583462E+04  0.00000000000E+00 0.  1.
         23    2    1    2    0    0  0.80484339925E+02 -0.59092266477E+03  0.91417044288E+03  0.10950632943E+04  0.88253585149E+02 0.  0.
         13    1    3    3    0    0  0.33251450400E+02 -0.22798416198E+03  0.43337669694E+03  0.49081340499E+03  0.00000000000E+00 0. -1.
        -13    1    3    3    0    0  0.47232889525E+02 -0.36293850279E+03  0.48079374594E+03  0.60424988936E+03  0.00000000000E+00 0.  1.
         22    1    1    2    0    0 -0.80484339925E+02  0.59092266477E+03 -0.17884036811E+04  0.18852201599E+04  0.00000000000E+00 0.  1.
<mgrwt>
<rscale>  0 0.28491763E+04</rscale>
<asrwt>0</asrwt>
<pdfrwt beam="1">  1        2 0.16200387E+00 0.28491763E+04</pdfrwt>
<pdfrwt beam="2">  1       -2 0.29650128E+00 0.28491763E+04</pdfrwt>
<totfact> 0.67440218E-01</totfact>
</mgrwt>
</event>
<event>
 6    1  0.2236204E-005  0.2280071E+04  0.7818608E-02  0.8485821E-01
          2   -1    0    0  501    0  0.00000000000E+00  0.00000000000E+00  0.15689994918E+04  0.15689994918E+04  0.00000000000E+00 0. -1.
         -2   -1    0    0    0  501 -0.00000000000E+00 -0.00000000000E+00 -0.82835001743E+03  0.82835001743E+03  0.00000000000E+00 0.  1.
         23    2    1    2    0    0 -0.74929812226E+03 -0.97265692585E+02  0.12661201716E+04  0.14770084069E+04  0.87093364836E+02 0.  0.
         13    1    3    3    0    0 -0.13004501596E+03  0.14814489379E+02  0.23621428860E+03  0.27005252343E+03  0.00000000000E+00 0.  1.
        -13    1    3    3    0    0 -0.61925310629E+03 -0.11208018196E+03  0.10299058830E+04  0.12069558835E+04  0.00000000000E+00 0. -1.
         22    1    1    2    0    0  0.74929812226E+03  0.97265692585E+02 -0.52547069723E+03  0.92034110232E+03  0.00000000000E+00 0.  1.
<mgrwt>
<rscale>  0 0.22800708E+04</rscale>
<asrwt>0</asrwt>
<pdfrwt beam="1">  1        2 0.24138454E+00 0.22800708E+04</pdfrwt>
<pdfrwt beam="2">  1       -2 0.12743846E+00 0.22800708E+04</pdfrwt>
<totfact> 0.48147765E+00</totfact>
</mgrwt>
</event>
<event>
 6    1  0.2236204E-005  0.3641968E+04  0.7818608E-02  0.8080945E-01
         -2   -1    0    0    0  501 -0.00000000000E+00  0.00000000000E+00  0.12156585308E+04  0.12156585308E+04  0.00000000000E+00 0. -1.
          2   -1    0    0  501    0  0.00000000000E+00 -0.00000000000E+00 -0.27277259785E+04  0.27277259785E+04  0.00000000000E+00 0.  1.
         23    2    1    2    0    0  0.11776937867E+04  0.37960694187E+03  0.68846047189E+03  0.14188276747E+04  0.89610622169E+02 0.  0.
         11    1    3    3    0    0  0.76778649586E+03  0.21686624902E+03  0.47911195223E+03  0.93063168652E+03  0.00000000000E+00 0.  1.
        -11    1    3    3    0    0  0.40990729088E+03  0.16274069285E+03  0.20934851966E+03  0.48819598822E+03  0.00000000000E+00 0. -1.
         22    1    1    2    0    0 -0.11776937867E+04 -0.37960694187E+03 -0.22005279196E+04  0.25245568345E+04  0.00000000000E+00 0.  1.
<mgrwt>
<rscale>  0 0.36419683E+04</rscale>
<asrwt>0</asrwt>
<pdfrwt beam="1">  1        2 0.41965015E+00 0.36419683E+04</pdfrwt>
<pdfrwt beam="2">  1       -2 0.18702439E+00 0.36419683E+04</pdfrwt>
<totfact> 0.33693276E-01</totfact>
</mgrwt>
</event>
<event>
 6    1  0.2236204E-005  0.1844930E+04  0.7818608E-02  0.8682764E-01
         -2   -1    0    0    0  501 -0.00000000000E+00  0.00000000000E+00  0.22089055702E+03  0.22089055702E+03  0.00000000000E+00 0.  1.
          2   -1    0    0  501    0  0.00000000000E+00 -0.00000000000E+00 -0.38523230868E+04  0.38523230868E+04  0.00000000000E+00 0. -1.
         23    2    1    2    0    0 -0.74747723600E+03 -0.10114033071E+03 -0.65660760504E+03  0.10042504773E+04  0.91836208850E+02 0.  0.
         11    1    3    3    0    0 -0.32054954394E+03 -0.30587462810E+02 -0.33844849266E+03  0.46715627491E+03  0.00000000000E+00 0.  1.
        -11    1    3    3    0    0 -0.42692769206E+03 -0.70552867897E+02 -0.31815911238E+03  0.53709420236E+03  0.00000000000E+00 0. -1.
         22    1    1    2    0    0  0.74747723600E+03  0.10114033071E+03 -0.29748249247E+04  0.30689631665E+04  0.00000000000E+00 0. -1.
<mgrwt>
<rscale>  0 0.18449301E+04</rscale>
<asrwt>0</asrwt>
<pdfrwt beam="1">  1        2 0.59266501E+00 0.18449301E+04</pdfrwt>
<pdfrwt beam="2">  1       -2 0.33983167E-01 0.18449301E+04</pdfrwt>
<totfact> 0.34536099E+00</totfact>
</mgrwt>
</event>
<event>
 6    1  0.2236204E-005  0.1652530E+04  0.7818608E-02  0.8788911E-01
         -2   -1    0    0    0  501 -0.00000000000E+00  0.00000000000E+00  0.37817373532E+03  0.37817373532E+03  0.00000000000E+00 0. -1.
          2   -1    0    0  501    0  0.00000000000E+00 -0.00000000000E+00 -0.18052911463E+04  0.18052911463E+04  0.00000000000E+00 0.  1.
         23    2    1    2    0    0 -0.24065255059E+03 -0.23681286230E+03 -0.17085704774E+04  0.17439085024E+04  0.89497523743E+02 0.  0.
         13    1    3    3    0    0 -0.16354239642E+03 -0.10644663715E+03 -0.10674898022E+04  0.10851780867E+04  0.00000000000E+00 0.  1.
        -13    1    3    3    0    0 -0.77110154171E+02 -0.13036622515E+03 -0.64108067518E+03  0.65873041575E+03  0.00000000000E+00 0. -1.
         22    1    1    2    0    0  0.24065255059E+03  0.23681286230E+03  0.28145306644E+03  0.43955637917E+03  0.00000000000E+00 0. -1.
<mgrwt>
<rscale>  0 0.16525298E+04</rscale>
<asrwt>0</asrwt>
<pdfrwt beam="1">  1        2 0.27773710E+00 0.16525298E+04</pdfrwt>
<pdfrwt beam="2">  1       -2 0.58180575E-01 0.16525298E+04</pdfrwt>
<totfact> 0.22622048E+01</totfact>
</mgrwt>
</event>
<event>
 6    1  0.2236204E-005  0.2384700E+04  0.7818608E-02  0.8445254E-01
         -2   -1    0    0    0  501 -0.00000000000E+00  0.00000000000E+00  0.15017039021E+04  0.15017039021E+04  0.00000000000E+00 0.  1.
          2   -1    0    0  501    0  0.00000000000E+00 -0.00000000000E+00 -0.94672323702E+03  0.94672323702E+03  0.00000000000E+00 0. -1.
         23    2    1    2    0    0 -0.56926030127E+03  0.78332876019E+03  0.98912166784E+03  0.13872298685E+04  0.91563076588E+02 0.  0.
         13    1    3    3    0    0 -0.10177350336E+03  0.90778298895E+02  0.15767524515E+03  0.20847068971E+03  0.00000000000E+00 0. -1.
        -13    1    3    3    0    0 -0.46748679792E+03  0.69255046129E+03  0.83144642269E+03  0.11787591787E+04  0.00000000000E+00 0.  1.
         22    1    1    2    0    0  0.56926030127E+03 -0.78332876019E+03 -0.43414100271E+03  0.10611972707E+04  0.00000000000E+00 0. -1.
<mgrwt>
<rscale>  0 0.23846995E+04</rscale>
<asrwt>0</asrwt>
<pdfrwt beam="1">  1        2 0.14564973E+00 0.23846995E+04</pdfrwt>
<pdfrwt beam="2">  1       -2 0.23103137E+00 0.23846995E+04</pdfrwt>
<totfact> 0.20689886E+00</totfact>
</mgrwt>
</event>
<event>
 6    1  0.2236204E-005  0.2021679E+04  0.7818608E-02  0.8596551E-01
         -2   -1    0    0    0  501 -0.00000000000E+00  0.00000000000E+00  0.81910097841E+03  0.81910097841E+03  0.00000000000E+00 0.  1.
          2   -1    0    0  501    0  0.00000000000E+00 -0.00000000000E+00 -0.12474614936E+04  0.12474614936E+04  0.00000000000E+00 0. -1.
         23    2    1    2    0    0 -0.51176481003E+03  0.27180254146E+03 -0.10586733956E+04  0.12103649659E+04  0.91728674499E+02 0.  0.
         11    1    3    3    0    0 -0.22314974439E+02  0.32934501492E+00 -0.78912767752E+02  0.82007874418E+02  0.00000000000E+00 0.  1.
        -11    1    3    3    0    0 -0.48944983559E+03  0.27147319645E+03 -0.97976062785E+03  0.11283570914E+04  0.00000000000E+00 0. -1.
         22    1    1    2    0    0  0.51176481003E+03 -0.27180254146E+03  0.63031288040E+03  0.85619750615E+03  0.00000000000E+00 0.  1.
<mgrwt>
<rscale>  0 0.20216794E+04</rscale>
<asrwt>0</asrwt>
<pdfrwt beam="1">  1        2 0.19191715E+00 0.20216794E+04</pdfrwt>
<pdfrwt beam="2">  1       -2 0.12601554E+00 0.20216794E+04</pdfrwt>
<totfact> 0.77349982E+00</totfact>
</mgrwt>
</event>
<event>
 6    1  0.2236204E-005  0.1028746E+04  0.7818608E-02  0.9277566E-01
          2   -1    0    0  501    0  0.00000000000E+00  0.00000000000E+00  0.46949482079E+03  0.46949482079E+03  0.00000000000E+00 0. -1.
         -2   -1    0    0    0  501 -0.00000000000E+00 -0.00000000000E+00 -0.56354140735E+03  0.56354140735E+03  0.00000000000E+00 0.  1.
         23    2    1    2    0    0  0.24389380595E+03  0.43387703927E+03  0.65270290033E+02  0.51043184531E+03  0.92449900807E+02 0.  0.
         11    1    3    3    0    0  0.14590957802E+03  0.20358709710E+03  0.70162217071E+02  0.26011545084E+03  0.00000000000E+00 0. -1.
        -11    1    3    3    0    0  0.97984227923E+02  0.23028994218E+03 -0.48919270372E+01  0.25031639447E+03  0.00000000000E+00 0.  1.
         22    1    1    2    0    0 -0.24389380595E+03 -0.43387703927E+03 -0.15931687659E+03  0.52260438283E+03  0.00000000000E+00 0. -1.
<mgrwt>
<rscale>  0 0.10287464E+04</rscale>
<asrwt>0</asrwt>
<pdfrwt beam="1">  1        2 0.72229973E-01 0.10287464E+04</pdfrwt>
<pdfrwt beam="2">  1       -2 0.86698678E-01 0.10287464E+04</pdfrwt>
<totfact> 0.76092434E+01</totfact>
</mgrwt>
</event>
<event>
 6    1  0.2236204E-005  0.2622696E+04  0.7818608E-02  0.8360533E-01
         -2   -1    0    0    0  501 -0.00000000000E+00  0.00000000000E+00  0.10178286321E+04  0.10178286321E+04  0.00000000000E+00 0. -1.
          2   -1    0    0  501    0  0.00000000000E+00 -0.00000000000E+00 -0.16895113428E+04  0.16895113428E+04  0.00000000000E+00 0.  1.
         23    2    1    2    0    0  0.86144053566E+02  0.47924045161E+03  0.91894117027E+03  0.10438567201E+04  0.89954261601E+02 0.  0.
         13    1    3    3    0    0  0.59470248957E+02  0.17478630454E+03  0.27718963524E+03  0.33304812963E+03  0.00000000000E+00 0.  1.
        -13    1    3    3    0    0  0.26673804610E+02  0.30445414707E+03  0.64175153503E+03  0.71080859043E+03  0.00000000000E+00 0. -1.
         22    1    1    2    0    0 -0.86144053566E+02 -0.47924045161E+03 -0.15906238809E+04  0.16634832548E+04  0.00000000000E+00 0.  1.
<mgrwt>
<rscale>  0 0.26226956E+04</rscale>
<asrwt>0</asrwt>
<pdfrwt beam="1">  1        2 0.25992482E+00 0.26226956E+04</pdfrwt>
<pdfrwt beam="2">  1       -2 0.15658902E+00 0.26226956E+04</pdfrwt>
<totfact> 0.23441404E+00</totfact>
</mgrwt>
</event>
<event>
 6    1  0.2236204E-005  0.1809776E+04  0.7818608E-02  0.8701118E-01
          2   -1    0    0  501    0  0.00000000000E+00  0.00000000000E+00  0.22480758320E+04  0.22480758320E+04  0.00000000000E+00 0. -1.
         -2   -1    0    0    0  501 -0.00000000000E+00 -0.00000000000E+00 -0.36423258261E+03  0.36423258261E+03  0.00000000000E+00 0.  1.
         23    2    1    2    0    0 -0.46947086903E+03 -0.77059252861E+03  0.91752427372E+03  0.12901934027E+04  0.92371431873E+02 0.  0.
         13    1    3    3    0    0 -0.44128996925E+03 -0.66786097963E+03  0.80565100649E+03  0.11357150476E+04  0.00000000000E+00 0.  1.
        -13    1    3    3    0    0 -0.28180899781E+02 -0.10273154898E+03  0.11187326723E+03  0.15447835508E+03  0.00000000000E+00 0. -1.
         22    1    1    2    0    0  0.46947086903E+03  0.77059252861E+03  0.96631897562E+03  0.13221150119E+04  0.00000000000E+00 0.  1.
<mgrwt>
<rscale>  0 0.18097762E+04</rscale>
<asrwt>0</asrwt>
<pdfrwt beam="1">  1        2 0.34585781E+00 0.18097762E+04</pdfrwt>
<pdfrwt beam="2">  1       -2 0.56035783E-01 0.18097762E+04</pdfrwt>
<totfact> 0.13689964E+01</totfact>
</mgrwt>
</event>
<event>
 6    1  0.2236204E-005  0.1115814E+04  0.7818608E-02  0.9189914E-01
         -2   -1    0    0    0  501 -0.00000000000E+00  0.00000000000E+00  0.42917999787E+03  0.42917999787E+03  0.00000000000E+00 0.  1.
          2   -1    0    0  501    0  0.00000000000E+00 -0.00000000000E+00 -0.72524442367E+03  0.72524442367E+03  0.00000000000E+00 0. -1.
         23    2    1    2    0    0 -0.51814304694E+02 -0.46408623817E+03 -0.45799365349E+03  0.66017566493E+03  0.89515156850E+02 0.  0.
         13    1    3    3    0    0 -0.52553150962E+02 -0.15335457771E+03 -0.19074699467E+03  0.25032753775E+03  0.00000000000E+00 0. -1.
        -13    1    3    3    0    0  0.73884626733E+00 -0.31073166046E+03 -0.26724665881E+03  0.40984812718E+03  0.00000000000E+00 0.  1.
         22    1    1    2    0    0  0.51814304694E+02  0.46408623817E+03  0.16192922769E+03  0.49424875661E+03  0.00000000000E+00 0. -1.
<mgrwt>
<rscale>  0 0.11158143E+04</rscale>
<asrwt>0</asrwt>
<pdfrwt beam="1">  1        2 0.11157606E+00 0.11158143E+04</pdfrwt>
<pdfrwt beam="2">  1       -2 0.66027693E-01 0.11158143E+04</pdfrwt>
<totfact> 0.82028408E+01</totfact>
</mgrwt>
</event>
<event>
 6    1  0.2236204E-005  0.2360127E+04  0.7818608E-02  0.8454584E-01
          2   -1    0    0  501    0  0.00000000000E+00  0.00000000000E+00  0.94864846141E+03  0.94864846141E+03  0.00000000000E+00 0. -1.
         -2   -1    0    0    0  501 -0.00000000000E+00 -0.00000000000E+00 -0.14679304422E+04  0.14679304422E+04  0.00000000000E+00 0.  1.
         23    2    1    2    0    0 -0.11061802304E+04  0.73949540756E+02  0.14834117532E+03  0.11224290223E+04  0.93480313084E+02 0.  0.
         11    1    3    3    0    0 -0.42072848563E+03  0.38401078430E+02  0.10126172825E+03  0.43444336691E+03  0.00000000000E+00 0.  1.
        -11    1    3    3    0    0 -0.68545174481E+03  0.35548462325E+02  0.47079447070E+02  0.68798565535E+03  0.00000000000E+00 0. -1.
         22    1    1    2    0    0  0.11061802304E+04 -0.73949540756E+02 -0.66762315612E+03  0.12941498813E+04  0.00000000000E+00 0. -1.
<mgrwt>
<rscale>  0 0.23601271E+04</rscale>
<asrwt>0</asrwt>
<pdfrwt beam="1">  1        2 0.14594592E+00 0.23601271E+04</pdfrwt>
<pdfrwt beam="2">  1       -2 0.22583545E+00 0.23601271E+04</pdfrwt>
<totfact> 0.22280684E+00</totfact>
</mgrwt>
</event>
<event>
 6    1  0.2236204E-005  0.1046319E+04  0.7818608E-02  0.9259153E-01
         -2   -1    0    0    0  501 -0.00000000000E+00  0.00000000000E+00  0.18289746015E+03  0.18289746015E+03  0.00000000000E+00 0. -1.
          2   -1    0    0  501    0  0.00000000000E+00 -0.00000000000E+00 -0.14964439639E+04  0.14964439639E+04  0.00000000000E+00 0.  1.
         23    2    1    2    0    0 -0.47774948661E+03  0.30756405179E+02 -0.98500846671E+03  0.10987143749E+04  0.87983349086E+02 0.  0.
         11    1    3    3    0    0 -0.83786367380E+02 -0.25707041524E+02 -0.20798924442E+03  0.22570009556E+03  0.00000000000E+00 0. -1.
        -11    1    3    3    0    0 -0.39396311923E+03  0.56463446704E+02 -0.77701922230E+03  0.87301427935E+03  0.00000000000E+00 0.  1.
         22    1    1    2    0    0  0.47774948661E+03 -0.30756405179E+02 -0.32853803702E+03  0.58062704913E+03  0.00000000000E+00 0. -1.
<mgrwt>
<rscale>  0 0.10463189E+04</rscale>
<asrwt>0</asrwt>
<pdfrwt beam="1">  1        2 0.23022215E+00 0.10463189E+04</pdfrwt>
<pdfrwt beam="2">  1       -2 0.28138071E-01 0.10463189E+04</pdfrwt>
<totfact> 0.14658519E+02</totfact>
</mgrwt>
</event>
<event>
 6    1  0.2236204E-005  0.3912656E+04  0.7818608E-02  0.8022402E-01
         -2   -1    0    0    0  501 -0.00000000000E+00  0.00000000000E+00  0.10655644006E+04  0.10655644006E+04  0.00000000000E+00 0.  1.
          2   -1    0    0  501    0  0.00000000000E+00 -0.00000000000E+00 -0.35917295472E+04  0.35917295472E+04  0.00000000000E+00 0. -1.
         23    2    1    2    0    0  0.16346489322E+04 -0.28044443694E+03 -0.24963940269E+04  0.29984954269E+04  0.90914651615E+02 0.  0.
         11    1    3    3    0    0  0.82078678452E+03 -0.17135145747E+03 -0.11997231686E+04  0.14636898404E+04  0.00000000000E+00 0.  1.
        -11    1    3    3    0    0  0.81386214763E+03 -0.10909297946E+03 -0.12966708583E+04  0.15348055865E+04  0.00000000000E+00 0. -1.
         22    1    1    2    0    0 -0.16346489322E+04  0.28044443694E+03 -0.29771119700E+02  0.16587985210E+04  0.00000000000E+00 0.  1.
<mgrwt>
<rscale>  0 0.39126559E+04</rscale>
<asrwt>0</asrwt>
<pdfrwt beam="1">  1        2 0.55257377E+00 0.39126559E+04</pdfrwt>
<pdfrwt beam="2">  1       -2 0.16393299E+00 0.39126559E+04</pdfrwt>
<totfact> 0.13078019E-01</totfact>
</mgrwt>
</event>
<event>
 6    1  0.2236204E-005  0.5106766E+04  0.7818608E-02  0.7812245E-01
         -2   -1    0    0    0  501 -0.00000000000E+00  0.00000000000E+00  0.18054915045E+04  0.18054915045E+04  0.00000000000E+00 0.  1.
          2   -1    0    0  501    0  0.00000000000E+00 -0.00000000000E+00 -0.36110751414E+04  0.36110751414E+04  0.00000000000E+00 0. -1.
         23    2    1    2    0    0  0.12329170878E+04  0.20727333706E+04 -0.16130836264E+02  0.24134933041E+04  0.91550827256E+02 0.  0.
         13    1    3    3    0    0  0.82793486588E+03  0.13216819863E+04 -0.35474198060E+02  0.15599928954E+04  0.00000000000E+00 0. -1.
        -13    1    3    3    0    0  0.40498222196E+03  0.75105138429E+03  0.19343361795E+02  0.85350040867E+03  0.00000000000E+00 0.  1.
         22    1    1    2    0    0 -0.12329170878E+04 -0.20727333706E+04 -0.17894528006E+04  0.30030733419E+04  0.00000000000E+00 0. -1.
<mgrwt>
<rscale>  0 0.51067663E+04</rscale>
<asrwt>0</asrwt>
<pdfrwt beam="1">  1        2 0.55555001E+00 0.51067663E+04</pdfrwt>
<pdfrwt beam="2">  1       -2 0.27776793E+00 0.51067663E+04</pdfrwt>
<totfact> 0.21209906E-02</totfact>
</mgrwt>
</event>
<event>
 6    1  0.2236204E-005  0.3392789E+04  0.7818608E-02  0.8139678E-01
         -2   -1    0    0    0  501 -0.00000000000E+00  0.00000000000E+00  0.10977497056E+04  0.10977497056E+04  0.00000000000E+00 0.  1.
          2   -1    0    0  501    0  0.00000000000E+00 -0.00000000000E+00 -0.26215035622E+04  0.26215035622E+04  0.00000000000E+00 0. -1.
         23    2    1    2    0    0  0.67206896509E+03 -0.65745943131E+03 -0.23087038378E+04  0.24944773411E+04  0.91510638309E+02 0.  0.
         11    1    3    3    0    0  0.12311524705E+03 -0.17370590766E+03 -0.52702823709E+03  0.56840994810E+03  0.00000000000E+00 0. -1.
        -11    1    3    3    0    0  0.54895371804E+03 -0.48375352365E+03 -0.17816756007E+04  0.19260673930E+04  0.00000000000E+00 0.  1.
         22    1    1    2    0    0 -0.67206896509E+03  0.65745943131E+03  0.78494998115E+03  0.12247759267E+04  0.00000000000E+00 0.  1.
<mgrwt>
<rscale>  0 0.33927893E+04</rscale>
<asrwt>0</asrwt>
<pdfrwt beam="1">  1        2 0.40330823E+00 0.33927893E+04</pdfrwt>
<pdfrwt beam="2">  1       -2 0.16888457E+00 0.33927893E+04</pdfrwt>
<totfact> 0.53173241E-01</totfact>
</mgrwt>
</event>
<event>
 6    1  0.2236204E-005  0.1956086E+04  0.7818608E-02  0.8627432E-01
          2   -1    0    0  501    0  0.00000000000E+00  0.00000000000E+00  0.17541521880E+04  0.17541521880E+04  0.00000000000E+00 0. -1.
         -2   -1    0    0    0  501 -0.00000000000E+00 -0.00000000000E+00 -0.54531639067E+03  0.54531639067E+03  0.00000000000E+00 0.  1.
         23    2    1    2    0    0  0.38473423362E+03  0.59119480548E+03  0.13985966728E+04  0.15690297253E+04  0.90828944044E+02 0.  0.
         13    1    3    3    0    0  0.19096401716E+03  0.34568434254E+03  0.70253949550E+03  0.80593217038E+03  0.00000000000E+00 0. -1.
        -13    1    3    3    0    0  0.19377021646E+03  0.24551046294E+03  0.69605717734E+03  0.76309755492E+03  0.00000000000E+00 0.  1.
         22    1    1    2    0    0 -0.38473423362E+03 -0.59119480548E+03 -0.18976087556E+03  0.73043885332E+03  0.00000000000E+00 0.  1.
<mgrwt>
<rscale>  0 0.19560858E+04</rscale>
<asrwt>0</asrwt>
<pdfrwt beam="1">  1        2 0.26986956E+00 0.19560858E+04</pdfrwt>
<pdfrwt beam="2">  1       -2 0.83894830E-01 0.19560858E+04</pdfrwt>
<totfact> 0.10589265E+01</totfact>
</mgrwt>
</event>
<event>
 6    1  0.2236204E-005  0.1040867E+04  0.7818608E-02  0.9264825E-01
         -4   -1    0    0    0  501 -0.00000000000E+00  0.00000000000E+00  0.36230986823E+03  0.36230986823E+03  0.00000000000E+00 0. -1.
          4   -1    0    0  501    0  0.00000000000E+00 -0.00000000000E+00 -0.74756673641E+03  0.74756673641E+03  0.00000000000E+00 0.  1.
         23    2    1    2    0    0  0.20831324426E+03  0.11749334702E+02 -0.69783055424E+03  0.73406446564E+03  0.91382179184E+02 0.  0.
         13    1    3    3    0    0  0.11868727555E+02  0.25657313836E+02 -0.56495523229E+02  0.63173638426E+02  0.00000000000E+00 0.  1.
        -13    1    3    3    0    0  0.19644451671E+03 -0.13907979134E+02 -0.64133503101E+03  0.67089082721E+03  0.00000000000E+00 0. -1.
         22    1    1    2    0    0 -0.20831324426E+03 -0.11749334702E+02  0.31257368606E+03  0.37581213900E+03  0.00000000000E+00 0. -1.
<mgrwt>
<rscale>  0 0.10408666E+04</rscale>
<asrwt>0</asrwt>
<pdfrwt beam="1">  1        4 0.11501026E+00 0.10408666E+04</pdfrwt>
<pdfrwt beam="2">  1       -4 0.55739981E-01 0.10408666E+04</pdfrwt>
<totfact> 0.35765924E+00</totfact>
</mgrwt>
</event>
<event>
 6    1  0.2236204E-005  0.1532109E+04  0.7818608E-02  0.8863377E-01
          2   -1    0    0  501    0  0.00000000000E+00  0.00000000000E+00  0.12872777646E+04  0.12872777646E+04  0.00000000000E+00 0. -1.
         -2   -1    0    0    0  501 -0.00000000000E+00 -0.00000000000E+00 -0.45587635376E+03  0.45587635376E+03  0.00000000000E+00 0.  1.
         23    2    1    2    0    0 -0.43449627650E+03  0.59483647748E+03  0.18924517855E+03  0.76592227487E+03  0.90585563425E+02 0.  0.
         13    1    3    3    0    0 -0.31858125068E+02  0.25297183851E+02  0.29833377227E+02  0.50447180698E+02  0.00000000000E+00 0. -1.
        -13    1    3    3    0    0 -0.40263815143E+03  0.56953929363E+03  0.15941180132E+03  0.71547509417E+03  0.00000000000E+00 0.  1.
         22    1    1    2    0    0  0.43449627650E+03 -0.59483647748E+03  0.64215623226E+03  0.97723184346E+03  0.00000000000E+00 0.  1.
<mgrwt>
<rscale>  0 0.15321090E+04</rscale>
<asrwt>0</asrwt>
<pdfrwt beam="1">  1        2 0.19804273E+00 0.15321090E+04</pdfrwt>
<pdfrwt beam="2">  1       -2 0.70134824E-01 0.15321090E+04</pdfrwt>
<totfact> 0.30006366E+01</totfact>
</mgrwt>
</event>
<event>
 6    1  0.2236204E-005  0.2961279E+04  0.7818608E-02  0.8254875E-01
         -2   -1    0    0    0  501 -0.00000000000E+00  0.00000000000E+00  0.17958817850E+04  0.17958817850E+04  0.00000000000E+00 0.  1.
          2   -1    0    0  501    0  0.00000000000E+00 -0.00000000000E+00 -0.12207336045E+04  0.12207336045E+04  0.00000000000E+00 0. -1.
         23    2    1    2    0    0 -0.58279796769E+03  0.98615142354E+03  0.12415472360E+04  0.16913849181E+04  0.84825118548E+02 0.  0.
         11    1    3    3    0    0 -0.31616261431E+03  0.46005659852E+03  0.57638369073E+03  0.80238957588E+03  0.00000000000E+00 0.  1.
        -11    1    3    3    0    0 -0.26663535337E+03  0.52609482501E+03  0.66516354524E+03  0.88899534222E+03  0.00000000000E+00 0. -1.
         22    1    1    2    0    0  0.58279796769E+03 -0.98615142354E+03 -0.66639905552E+03  0.13252304715E+04  0.00000000000E+00 0. -1.
<mgrwt>
<rscale>  0 0.29612789E+04</rscale>
<asrwt>0</asrwt>
<pdfrwt beam="1">  1        2 0.18780517E+00 0.29612789E+04</pdfrwt>
<pdfrwt beam="2">  1       -2 0.27628951E+00 0.29612789E+04</pdfrwt>
<totfact> 0.70132786E-01</totfact>
</mgrwt>
</event>
<event>
 6    1  0.2236204E-005  0.2988098E+04  0.7818608E-02  0.8247138E-01
         -2   -1    0    0    0  501 -0.00000000000E+00  0.00000000000E+00  0.91682810006E+03  0.91682810006E+03  0.00000000000E+00 0.  1.
          2   -1    0    0  501    0  0.00000000000E+00 -0.00000000000E+00 -0.24346797869E+04  0.24346797869E+04  0.00000000000E+00 0. -1.
         23    2    1    2    0    0  0.11253540433E+03 -0.51445884169E+03 -0.23261445486E+04  0.23867957706E+04  0.92268480648E+02 0.  0.
         11    1    3    3    0    0  0.32941485600E+01 -0.63066513347E+02 -0.42951456814E+03  0.43413246914E+03  0.00000000000E+00 0.  1.
        -11    1    3    3    0    0  0.10924125577E+03 -0.45139232835E+03 -0.18966299805E+04  0.19526633015E+04  0.00000000000E+00 0. -1.
         22    1    1    2    0    0 -0.11253540433E+03  0.51445884169E+03  0.80829286177E+03  0.96471211634E+03  0.00000000000E+00 0.  1.
<mgrwt>
<rscale>  0 0.29880983E+04</rscale>
<asrwt>0</asrwt>
<pdfrwt beam="1">  1        2 0.37456612E+00 0.29880983E+04</pdfrwt>
<pdfrwt beam="2">  1       -2 0.14105048E+00 0.29880983E+04</pdfrwt>
<totfact> 0.11458653E+00</totfact>
</mgrwt>
</event>
<event>
 6    1  0.2236204E-005  0.4344760E+04  0.7818608E-02  0.7938393E-01
          1   -1    0    0  501    0  0.00000000000E+00  0.00000000000E+00  0.33515411333E+04  0.33515411333E+04  0.00000000000E+00 0. -1.
         -1   -1    0    0    0  501 -0.00000000000E+00 -0.00000000000E+00 -0.14080792602E+04  0.14080792602E+04  0.00000000000E+00 0.  1.
         23    2    1    2    0    0 -0.17828923988E+04  0.42119305531E+03 -0.30486895367E+03  0.18594306752E+04  0.91806652590E+02 0.  0.
         11    1    3    3    0    0 -0.87036259902E+03  0.25030825708E+03 -0.16540629009E+03  0.92062181059E+03  0.00000000000E+00 0.  1.
        -11    1    3    3    0    0 -0.91252979982E+03  0.17088479823E+03 -0.13946266358E+03  0.93880886466E+03  0.00000000000E+00 0. -1.
         22    1    1    2    0    0  0.17828923988E+04 -0.42119305531E+03  0.22483308267E+04  0.29001897183E+04  0.00000000000E+00 0. -1.
<mgrwt>
<rscale>  0 0.43447603E+04</rscale>
<asrwt>0</asrwt>
<pdfrwt beam="1">  1        1 0.51562171E+00 0.43447603E+04</pdfrwt>
<pdfrwt beam="2">  1       -1 0.21662758E+00 0.43447603E+04</pdfrwt>
<totfact> 0.28743501E-02</totfact>
</mgrwt>
</event>
<event>
 6    1  0.2236204E-005  0.3264624E+04  0.7818608E-02  0.8171956E-01
         -2   -1    0    0    0  501 -0.00000000000E+00  0.00000000000E+00  0.16257234712E+04  0.16257234712E+04  0.00000000000E+00 0. -1.
          2   -1    0    0  501    0  0.00000000000E+00 -0.00000000000E+00 -0.16389268076E+04  0.16389268076E+04  0.00000000000E+00 0.  1.
         23    2    1    2    0    0 -0.61306609565E+02 -0.33667782133E+03 -0.16013200180E+04  0.16400810896E+04  0.92356509774E+02 0.  0.
         13    1    3    3    0    0 -0.54057626553E+02 -0.27677832094E+03 -0.14501209517E+04  0.14772877988E+04  0.00000000000E+00 0.  1.
        -13    1    3    3    0    0 -0.72489830115E+01 -0.59899500393E+02 -0.15119906629E+03  0.16279329086E+03  0.00000000000E+00 0. -1.
         22    1    1    2    0    0  0.61306609565E+02  0.33667782133E+03  0.15881166816E+04  0.16245691891E+04  0.00000000000E+00 0. -1.
<mgrwt>
<rscale>  0 0.32646236E+04</rscale>
<asrwt>0</asrwt>
<pdfrwt beam="1">  1        2 0.25214259E+00 0.32646236E+04</pdfrwt>
<pdfrwt beam="2">  1       -2 0.25011130E+00 0.32646236E+04</pdfrwt>
<totfact> 0.57004617E-01</totfact>
</mgrwt>
</event>
<event>
 6    1  0.2236204E-005  0.2897968E+04  0.7818608E-02  0.8273482E-01
          2   -1    0    0  501    0  0.00000000000E+00  0.00000000000E+00  0.12160533794E+04  0.12160533794E+04  0.00000000000E+00 0. -1.
         -2   -1    0    0    0  501 -0.00000000000E+00 -0.00000000000E+00 -0.17265311184E+04  0.17265311184E+04  0.00000000000E+00 0.  1.
         23    2    1    2    0    0 -0.11545816580E+04  0.21223933870E+03 -0.11154413159E+04  0.16219462917E+04  0.91630246067E+02 0.  0.
         13    1    3    3    0    0 -0.78530298207E+03  0.12919630332E+03 -0.81019338506E+03  0.11356961652E+04  0.00000000000E+00 0. -1.
        -13    1    3    3    0    0 -0.36927867598E+03  0.83043035380E+02 -0.30524793080E+03  0.48625012649E+03  0.00000000000E+00 0.  1.
         22    1    1    2    0    0  0.11545816580E+04 -0.21223933870E+03  0.60496357695E+03  0.13206382061E+04  0.00000000000E+00 0. -1.
<mgrwt>
<rscale>  0 0.28979676E+04</rscale>
<asrwt>0</asrwt>
<pdfrwt beam="1">  1        2 0.18708514E+00 0.28979676E+04</pdfrwt>
<pdfrwt beam="2">  1       -2 0.26562017E+00 0.28979676E+04</pdfrwt>
<totfact> 0.82438956E-01</totfact>
</mgrwt>
</event>
<event>
 6    1  0.2236204E-005  0.4553966E+03  0.7818608E-02  0.1026125E+00
          1   -1    0    0  501    0  0.00000000000E+00  0.00000000000E+00  0.11046635716E+03  0.11046635716E+03  0.00000000000E+00 0. -1.
         -1   -1    0    0    0  501 -0.00000000000E+00 -0.00000000000E+00 -0.46934210159E+03  0.46934210159E+03  0.00000000000E+00 0.  1.
         23    2    1    2    0    0 -0.81532179656E+02  0.72902970302E+02 -0.42759531712E+03  0.45063911615E+03  0.90969876258E+02 0.  0.
         11    1    3    3    0    0  0.52739392786E+01  0.44590945835E+02 -0.20848663141E+03  0.21326706816E+03  0.00000000000E+00 0. -1.
        -11    1    3    3    0    0 -0.86806118935E+02  0.28312024467E+02 -0.21910868571E+03  0.23737204799E+03  0.00000000000E+00 0.  1.
         22    1    1    2    0    0  0.81532179656E+02 -0.72902970302E+02  0.68719572684E+02  0.12916934260E+03  0.00000000000E+00 0. -1.
<mgrwt>
<rscale>  0 0.45539658E+03</rscale>
<asrwt>0</asrwt>
<pdfrwt beam="1">  1        1 0.16994825E-01 0.45539658E+03</pdfrwt>
<pdfrwt beam="2">  1       -1 0.72206475E-01 0.45539658E+03</pdfrwt>
<totfact> 0.63721720E+02</totfact>
</mgrwt>
</event>
<event>
 6    1  0.2236204E-005  0.1451057E+04  0.7818608E-02  0.8917668E-01
          2   -1    0    0  501    0  0.00000000000E+00  0.00000000000E+00  0.71830826171E+03  0.71830826171E+03  0.00000000000E+00 0. -1.
         -2   -1    0    0    0  501 -0.00000000000E+00 -0.00000000000E+00 -0.73282110734E+03  0.73282110734E+03  0.00000000000E+00 0.  1.
         23    2    1    2    0    0 -0.52045955944E+03  0.11112940451E+03  0.48178388467E+03  0.72343551717E+03  0.89528422369E+02 0.  0.
         13    1    3    3    0    0 -0.24320686728E+03  0.97641347775E+02  0.23138823903E+03  0.34960539219E+03  0.00000000000E+00 0.  1.
        -13    1    3    3    0    0 -0.27725269216E+03  0.13488056737E+02  0.25039564564E+03  0.37383012498E+03  0.00000000000E+00 0. -1.
         22    1    1    2    0    0  0.52045955944E+03 -0.11112940451E+03 -0.49629673029E+03  0.72769385188E+03  0.00000000000E+00 0.  1.
<mgrwt>
<rscale>  0 0.14510568E+04</rscale>
<asrwt>0</asrwt>
<pdfrwt beam="1">  1        2 0.11050896E+00 0.14510568E+04</pdfrwt>
<pdfrwt beam="2">  1       -2 0.11274171E+00 0.14510568E+04</pdfrwt>
<totfact> 0.23793632E+01</totfact>
</mgrwt>
</event>
<event>
 6    1  0.2236204E-005  0.2107036E+04  0.7818608E-02  0.8558150E-01
         -2   -1    0    0    0  501 -0.00000000000E+00  0.00000000000E+00  0.44120570580E+03  0.44120570580E+03  0.00000000000E+00 0.  1.
          2   -1    0    0  501    0  0.00000000000E+00 -0.00000000000E+00 -0.25156058490E+04  0.25156058490E+04  0.00000000000E+00 0. -1.
         23    2    1    2    0    0 -0.67338498813E+03  0.65498814624E+03 -0.17024973586E+04  0.19464806708E+04  0.88503852554E+02 0.  0.
         11    1    3    3    0    0 -0.19079084801E+02  0.21813204809E+02 -0.27209663029E+02  0.39751643274E+02  0.00000000000E+00 0.  1.
        -11    1    3    3    0    0 -0.65430590333E+03  0.63317494143E+03 -0.16752876955E+04  0.19067290275E+04  0.00000000000E+00 0. -1.
         22    1    1    2    0    0  0.67338498813E+03 -0.65498814624E+03 -0.37190278464E+03  0.10103308840E+04  0.00000000000E+00 0.  1.
<mgrwt>
<rscale>  0 0.21070355E+04</rscale>
<asrwt>0</asrwt>
<pdfrwt beam="1">  1        2 0.38701628E+00 0.21070355E+04</pdfrwt>
<pdfrwt beam="2">  1       -2 0.67877801E-01 0.21070355E+04</pdfrwt>
<totfact> 0.62440276E+00</totfact>
</mgrwt>
</event>
<event>
 6    1  0.2236204E-005  0.3425684E+04  0.7818608E-02  0.8131631E-01
         -2   -1    0    0    0  501 -0.00000000000E+00  0.00000000000E+00  0.13432267060E+04  0.13432267060E+04  0.00000000000E+00 0.  1.
          2   -1    0    0  501    0  0.00000000000E+00 -0.00000000000E+00 -0.21841641549E+04  0.21841641549E+04  0.00000000000E+00 0. -1.
         23    2    1    2    0    0  0.11227008635E+04  0.64905740687E+03  0.72948052943E+03  0.14907403329E+04  0.91826744624E+02 0.  0.
         13    1    3    3    0    0  0.30834839372E+03  0.15350587315E+03  0.15475153183E+03  0.37761199876E+03  0.00000000000E+00 0. -1.
        -13    1    3    3    0    0  0.81435246975E+03  0.49555153372E+03  0.57472899760E+03  0.11131283341E+04  0.00000000000E+00 0.  1.
         22    1    1    2    0    0 -0.11227008635E+04 -0.64905740687E+03 -0.15704179784E+04  0.20366505280E+04  0.00000000000E+00 0. -1.
<mgrwt>
<rscale>  0 0.34256839E+04</rscale>
<asrwt>0</asrwt>
<pdfrwt beam="1">  1        2 0.33602525E+00 0.34256839E+04</pdfrwt>
<pdfrwt beam="2">  1       -2 0.20665026E+00 0.34256839E+04</pdfrwt>
<totfact> 0.52445807E-01</totfact>
</mgrwt>
</event>
<event>
 6    1  0.2236204E-005  0.2897430E+04  0.7818608E-02  0.8273642E-01
         -2   -1    0    0    0  501 -0.00000000000E+00  0.00000000000E+00  0.86872524079E+03  0.86872524079E+03  0.00000000000E+00 0.  1.
          2   -1    0    0  501    0  0.00000000000E+00 -0.00000000000E+00 -0.24159253818E+04  0.24159253818E+04  0.00000000000E+00 0. -1.
         23    2    1    2    0    0 -0.55907581412E+02 -0.35586768626E+03 -0.23634107886E+04  0.23924806337E+04  0.92117095272E+02 0.  0.
         13    1    3    3    0    0 -0.58094969920E+01 -0.22215162871E+03 -0.12070090595E+04  0.12272962014E+04  0.00000000000E+00 0. -1.
        -13    1    3    3    0    0 -0.50098084420E+02 -0.13371605755E+03 -0.11564017291E+04  0.11651844323E+04  0.00000000000E+00 0.  1.
         22    1    1    2    0    0  0.55907581412E+02  0.35586768626E+03  0.81621064760E+03  0.89216998887E+03  0.00000000000E+00 0.  1.
<mgrwt>
<rscale>  0 0.28974301E+04</rscale>
<asrwt>0</asrwt>
<pdfrwt beam="1">  1        2 0.37168083E+00 0.28974301E+04</pdfrwt>
<pdfrwt beam="2">  1       -2 0.13365003E+00 0.28974301E+04</pdfrwt>
<totfact> 0.13599532E+00</totfact>
</mgrwt>
</event>
<event>
 6    1  0.2236204E-005  0.3474711E+04  0.7818608E-02  0.8119809E-01
          2   -1    0    0  501    0  0.00000000000E+00  0.00000000000E+00  0.14786896179E+04  0.14786896179E+04  0.00000000000E+00 0. -1.
         -2   -1    0    0    0  501 -0.00000000000E+00 -0.00000000000E+00 -0.20412690527E+04  0.20412690527E+04  0.00000000000E+00 0.  1.
         23    2    1    2    0    0  0.68363115379E+03 -0.36785263199E+03 -0.18546656139E+04  0.20125921566E+04  0.89863986242E+02 0.  0.
         13    1    3    3    0    0  0.57505412114E+03 -0.27091990559E+03 -0.14879947900E+04  0.16180894081E+04  0.00000000000E+00 0. -1.
        -13    1    3    3    0    0  0.10857703264E+03 -0.96932726399E+02 -0.36667082388E+03  0.39450274847E+03  0.00000000000E+00 0.  1.
         22    1    1    2    0    0 -0.68363115379E+03  0.36785263199E+03  0.12920861791E+04  0.15073665140E+04  0.00000000000E+00 0. -1.
<mgrwt>
<rscale>  0 0.34747106E+04</rscale>
<asrwt>0</asrwt>
<pdfrwt beam="1">  1        2 0.22749071E+00 0.34747106E+04</pdfrwt>
<pdfrwt beam="2">  1       -2 0.31404139E+00 0.34747106E+04</pdfrwt>
<totfact> 0.27999607E-01</totfact>
</mgrwt>
</event>
<event>
 6    1  0.2236204E-005  0.3175189E+04  0.7818608E-02  0.8195401E-01
         -2   -1    0    0    0  501 -0.00000000000E+00  0.00000000000E+00  0.27981879476E+04  0.27981879476E+04  0.00000000000E+00 0.  1.
          2   -1    0    0  501    0  0.00000000000E+00 -0.00000000000E+00 -0.90074579336E+03  0.90074579336E+03  0.00000000000E+00 0. -1.
         23    2    1    2    0    0 -0.14333030264E+04 -0.50020064699E+03  0.14856235072E+04  0.21259897334E+04  0.90536670298E+02 0.  0.
         11    1    3    3    0    0 -0.43212656909E+03 -0.13007629147E+03  0.49325948836E+03  0.66854927730E+03  0.00000000000E+00 0.  1.
        -11    1    3    3    0    0 -0.10011764573E+04 -0.37012435552E+03  0.99236401887E+03  0.14574404561E+04  0.00000000000E+00 0. -1.
         22    1    1    2    0    0  0.14333030264E+04  0.50020064699E+03  0.41181864698E+03  0.15729440075E+04  0.00000000000E+00 0.  1.
<mgrwt>
<rscale>  0 0.31751888E+04</rscale>
<asrwt>0</asrwt>
<pdfrwt beam="1">  1        2 0.13857628E+00 0.31751888E+04</pdfrwt>
<pdfrwt beam="2">  1       -2 0.43049045E+00 0.31751888E+04</pdfrwt>
<totfact> 0.11535027E-01</totfact>
</mgrwt>
</event>
<event>
 6    1  0.2515034E-005  0.3135518E+04  0.7818608E-02  0.8206057E-01
          2   -1    0    0  501    0  0.00000000000E+00  0.00000000000E+00  0.32577630206E+04  0.32577630206E+04  0.00000000000E+00 0. -1.
         -2   -1    0    0    0  501 -0.00000000000E+00 -0.00000000000E+00 -0.75446502074E+03  0.75446502074E+03  0.00000000000E+00 0.  1.
         23    2    1    2    0    0  0.36883882308E+03  0.49280480571E+02  0.31998042106E+04  0.32225499140E+04  0.87237143120E+02 0.  0.
         11    1    3    3    0    0  0.15760533805E+03 -0.11691828023E+02  0.15821577777E+04  0.15900312497E+04  0.00000000000E+00 0.  1.
        -11    1    3    3    0    0  0.21123348503E+03  0.60972308594E+02  0.16176464329E+04  0.16325186643E+04  0.00000000000E+00 0. -1.
         22    1    1    2    0    0 -0.36883882308E+03 -0.49280480571E+02 -0.69650621072E+03  0.78967812731E+03  0.00000000000E+00 0.  1.
<mgrwt>
<rscale>  0 0.31355180E+04</rscale>
<asrwt>0</asrwt>
<pdfrwt beam="1">  1        2 0.50119430E+00 0.31355180E+04</pdfrwt>
<pdfrwt beam="2">  1       -2 0.11607154E+00 0.31355180E+04</pdfrwt>
<totfact> 0.57926863E-01</totfact>
</mgrwt>
</event>
<event>
 6    1  0.2236204E-005  0.1898680E+04  0.7818608E-02  0.8655514E-01
          1   -1    0    0  501    0  0.00000000000E+00  0.00000000000E+00  0.30564158089E+04  0.30564158089E+04  0.00000000000E+00 0. -1.
         -1   -1    0    0    0  501 -0.00000000000E+00 -0.00000000000E+00 -0.29487035772E+03  0.29487035772E+03  0.00000000000E+00 0.  1.
         23    2    1    2    0    0  0.77861271105E+03  0.30790842493E+03  0.21657529380E+04  0.23236607141E+04  0.88701598719E+02 0.  0.
         11    1    3    3    0    0  0.42859702680E+03  0.14623529480E+03  0.12754856465E+04  0.13534931870E+04  0.00000000000E+00 0. -1.
        -11    1    3    3    0    0  0.35001568425E+03  0.16167313014E+03  0.89026729148E+03  0.97016752703E+03  0.00000000000E+00 0.  1.
         22    1    1    2    0    0 -0.77861271105E+03 -0.30790842493E+03  0.59579251311E+03  0.10276254525E+04  0.00000000000E+00 0.  1.
<mgrwt>
<rscale>  0 0.18986800E+04</rscale>
<asrwt>0</asrwt>
<pdfrwt beam="1">  1        1 0.47021779E+00 0.18986800E+04</pdfrwt>
<pdfrwt beam="2">  1       -1 0.45364673E-01 0.18986800E+04</pdfrwt>
<totfact> 0.24598227E+00</totfact>
</mgrwt>
</event>
<event>
 6    1  0.2236204E-005  0.1073155E+04  0.7818608E-02  0.9231759E-01
          2   -1    0    0  501    0  0.00000000000E+00  0.00000000000E+00  0.93068789088E+03  0.93068789088E+03  0.00000000000E+00 0. -1.
         -2   -1    0    0    0  501 -0.00000000000E+00 -0.00000000000E+00 -0.30935778390E+03  0.30935778390E+03  0.00000000000E+00 0.  1.
         23    2    1    2    0    0 -0.42162426030E+03 -0.30219424856E+03  0.17363884384E+03  0.55483340998E+03  0.92743107597E+02 0.  0.
         11    1    3    3    0    0 -0.74825543318E+02 -0.89161135623E+02  0.12409556624E+02  0.11705796485E+03  0.00000000000E+00 0. -1.
        -11    1    3    3    0    0 -0.34679871698E+03 -0.21303311294E+03  0.16122928722E+03  0.43777544513E+03  0.00000000000E+00 0.  1.
         22    1    1    2    0    0  0.42162426030E+03  0.30219424856E+03  0.44769126314E+03  0.68521226479E+03  0.00000000000E+00 0.  1.
<mgrwt>
<rscale>  0 0.10731552E+04</rscale>
<asrwt>0</asrwt>
<pdfrwt beam="1">  1        2 0.14318275E+00 0.10731552E+04</pdfrwt>
<pdfrwt beam="2">  1       -2 0.47593506E-01 0.10731552E+04</pdfrwt>
<totfact> 0.11629500E+02</totfact>
</mgrwt>
</event>
<event>
 6    1  0.2236204E-005  0.1541565E+04  0.7818608E-02  0.8857273E-01
          1   -1    0    0  501    0  0.00000000000E+00  0.00000000000E+00  0.48728038368E+03  0.48728038368E+03  0.00000000000E+00 0. -1.
         -1   -1    0    0    0  501 -0.00000000000E+00 -0.00000000000E+00 -0.12192279239E+04  0.12192279239E+04  0.00000000000E+00 0.  1.
         23    2    1    2    0    0 -0.67416060451E+03 -0.32035050410E+03 -0.16702254057E+03  0.77042218900E+03  0.92395097708E+02 0.  0.
         11    1    3    3    0    0 -0.14801163530E+03 -0.11241802916E+03 -0.53356078147E+02  0.19337044381E+03  0.00000000000E+00 0. -1.
        -11    1    3    3    0    0 -0.52614896922E+03 -0.20793247495E+03 -0.11366646243E+03  0.57705174519E+03  0.00000000000E+00 0.  1.
         22    1    1    2    0    0  0.67416060451E+03  0.32035050410E+03 -0.56492499961E+03  0.93608611855E+03  0.00000000000E+00 0.  1.
<mgrwt>
<rscale>  0 0.15415652E+04</rscale>
<asrwt>0</asrwt>
<pdfrwt beam="1">  1        1 0.74966213E-01 0.15415652E+04</pdfrwt>
<pdfrwt beam="2">  1       -1 0.18757353E+00 0.15415652E+04</pdfrwt>
<totfact> 0.81366175E+00</totfact>
</mgrwt>
</event>
<event>
 6    1  0.2236204E-005  0.2678875E+04  0.7818608E-02  0.8341892E-01
         -2   -1    0    0    0  501 -0.00000000000E+00  0.00000000000E+00  0.50882276511E+03  0.50882276511E+03  0.00000000000E+00 0.  1.
          2   -1    0    0  501    0  0.00000000000E+00 -0.00000000000E+00 -0.35259674848E+04  0.35259674848E+04  0.00000000000E+00 0. -1.
         23    2    1    2    0    0 -0.45839447472E+02  0.13251351470E+04 -0.17795522485E+04  0.22210318488E+04  0.89954741323E+02 0.  0.
         11    1    3    3    0    0 -0.57270980196E+02  0.77309660718E+03 -0.98517135906E+03  0.12536031812E+04  0.00000000000E+00 0.  1.
        -11    1    3    3    0    0  0.11431532724E+02  0.55203853983E+03 -0.79438088943E+03  0.96742866760E+03  0.00000000000E+00 0. -1.
         22    1    1    2    0    0  0.45839447472E+02 -0.13251351470E+04 -0.12375924712E+04  0.18137584011E+04  0.00000000000E+00 0.  1.
<mgrwt>
<rscale>  0 0.26788748E+04</rscale>
<asrwt>0</asrwt>
<pdfrwt beam="1">  1        2 0.54245654E+00 0.26788748E+04</pdfrwt>
<pdfrwt beam="2">  1       -2 0.78280426E-01 0.26788748E+04</pdfrwt>
<totfact> 0.99464215E-01</totfact>
</mgrwt>
</event>
<event>
 6    1  0.2236204E-005  0.4820141E+04  0.7818608E-02  0.7856867E-01
          2   -1    0    0  501    0  0.00000000000E+00  0.00000000000E+00  0.29229453080E+04  0.29229453080E+04  0.00000000000E+00 0. -1.
         -2   -1    0    0    0  501 -0.00000000000E+00 -0.00000000000E+00 -0.19871877122E+04  0.19871877122E+04  0.00000000000E+00 0.  1.
         23    2    1    2    0    0  0.20605940308E+04  0.92908417234E+03 -0.38114085828E+03  0.22941309757E+04  0.92322374607E+02 0.  0.
         13    1    3    3    0    0  0.15493190298E+04  0.68546270452E+03 -0.24677599470E+03  0.17120592767E+04  0.00000000000E+00 0. -1.
        -13    1    3    3    0    0  0.51127500093E+03  0.24362146783E+03 -0.13436486358E+03  0.58207169896E+03  0.00000000000E+00 0.  1.
         22    1    1    2    0    0 -0.20605940308E+04 -0.92908417234E+03  0.13168984540E+04  0.26160020446E+04  0.00000000000E+00 0. -1.
<mgrwt>
<rscale>  0 0.48201415E+04</rscale>
<asrwt>0</asrwt>
<pdfrwt beam="1">  1        2 0.44968389E+00 0.48201415E+04</pdfrwt>
<pdfrwt beam="2">  1       -2 0.30572119E+00 0.48201415E+04</pdfrwt>
<totfact> 0.42085870E-02</totfact>
</mgrwt>
</event>
<event>
 6    1  0.2236204E-005  0.7129588E+03  0.7818608E-02  0.9695324E-01
          2   -1    0    0  501    0  0.00000000000E+00  0.00000000000E+00  0.99669881113E+03  0.99669881113E+03  0.00000000000E+00 0.  1.
         -2   -1    0    0    0  501 -0.00000000000E+00 -0.00000000000E+00 -0.12749845606E+03  0.12749845606E+03  0.00000000000E+00 0. -1.
         23    2    1    2    0    0  0.91730874751E+02 -0.98837127083E+01  0.97513228781E+03  0.98372016752E+03  0.91160013731E+02 0.  0.
         13    1    3    3    0    0  0.47846644053E+02  0.40527833413E+02  0.44761647749E+03  0.45198707675E+03  0.00000000000E+00 0. -1.
        -13    1    3    3    0    0  0.43884230698E+02 -0.50411546121E+02  0.52751581032E+03  0.53173309077E+03  0.00000000000E+00 0.  1.
         22    1    1    2    0    0 -0.91730874751E+02  0.98837127083E+01 -0.10593193274E+03  0.14047709967E+03  0.00000000000E+00 0. -1.
<mgrwt>
<rscale>  0 0.71295879E+03</rscale>
<asrwt>0</asrwt>
<pdfrwt beam="1">  1        2 0.15333827E+00 0.71295879E+03</pdfrwt>
<pdfrwt beam="2">  1       -2 0.19615148E-01 0.71295879E+03</pdfrwt>
<totfact> 0.56264946E+02</totfact>
</mgrwt>
</event>
<event>
 6    1  0.2236204E-005  0.8213949E+03  0.7818608E-02  0.9529555E-01
          1   -1    0    0  501    0  0.00000000000E+00  0.00000000000E+00  0.45728309369E+03  0.45728309369E+03  0.00000000000E+00 0. -1.
         -1   -1    0    0    0  501 -0.00000000000E+00 -0.00000000000E+00 -0.36885773209E+03  0.36885773209E+03  0.00000000000E+00 0.  1.
         23    2    1    2    0    0  0.29750633586E+03 -0.15916271383E+02  0.32157255748E+03  0.44782751314E+03  0.91527177510E+02 0.  0.
         13    1    3    3    0    0  0.15857843056E+03  0.32910024459E+02  0.19634573479E+03  0.25452276110E+03  0.00000000000E+00 0. -1.
        -13    1    3    3    0    0  0.13892790531E+03 -0.48826295842E+02  0.12522682270E+03  0.19330475204E+03  0.00000000000E+00 0.  1.
         22    1    1    2    0    0 -0.29750633586E+03  0.15916271383E+02 -0.23314719588E+03  0.37831331264E+03  0.00000000000E+00 0.  1.
<mgrwt>
<rscale>  0 0.82139492E+03</rscale>
<asrwt>0</asrwt>
<pdfrwt beam="1">  1        1 0.70351245E-01 0.82139492E+03</pdfrwt>
<pdfrwt beam="2">  1       -1 0.56747344E-01 0.82139492E+03</pdfrwt>
<totfact> 0.15924842E+02</totfact>
</mgrwt>
</event>
<event>
 6    1  0.2236204E-005  0.3850428E+04  0.7818608E-02  0.8035419E-01
          2   -1    0    0  501    0  0.00000000000E+00  0.00000000000E+00  0.11824036542E+04  0.11824036542E+04  0.00000000000E+00 0.  1.
         -2   -1    0    0    0  501 -0.00000000000E+00 -0.00000000000E+00 -0.31346735284E+04  0.31346735284E+04  0.00000000000E+00 0. -1.
         23    2    1    2    0    0  0.14746324261E+04 -0.67289632628E+02 -0.23605111054E+04  0.27854996986E+04  0.89034854565E+02 0.  0.
         13    1    3    3    0    0  0.67284580307E+03 -0.18818752379E+02 -0.99608889847E+03  0.12021932930E+04  0.00000000000E+00 0. -1.
        -13    1    3    3    0    0  0.80178662299E+03 -0.48470880248E+02 -0.13644222069E+04  0.15833064055E+04  0.00000000000E+00 0.  1.
         22    1    1    2    0    0 -0.14746324261E+04  0.67289632628E+02  0.40824123125E+03  0.15315774840E+04  0.00000000000E+00 0.  1.
<mgrwt>
<rscale>  0 0.38504283E+04</rscale>
<asrwt>0</asrwt>
<pdfrwt beam="1">  1        2 0.18190825E+00 0.38504283E+04</pdfrwt>
<pdfrwt beam="2">  1       -2 0.48225747E+00 0.38504283E+04</pdfrwt>
<totfact> 0.33099584E-02</totfact>
</mgrwt>
</event>
<event>
 6    1  0.2236204E-005  0.2345217E+04  0.7818608E-02  0.8460303E-01
         -2   -1    0    0    0  501 -0.00000000000E+00  0.00000000000E+00  0.41223787115E+03  0.41223787115E+03  0.00000000000E+00 0.  1.
          2   -1    0    0  501    0  0.00000000000E+00 -0.00000000000E+00 -0.33354780178E+04  0.33354780178E+04  0.00000000000E+00 0. -1.
         23    2    1    2    0    0  0.28143825854E+03 -0.11246181485E+04 -0.17262190414E+04  0.20813326798E+04  0.90222346121E+02 0.  0.
         11    1    3    3    0    0  0.65307241755E+02 -0.39013401373E+03 -0.64083700140E+03  0.75308807377E+03  0.00000000000E+00 0.  1.
        -11    1    3    3    0    0  0.21613101678E+03 -0.73448413479E+03 -0.10853820400E+04  0.13282446060E+04  0.00000000000E+00 0. -1.
         22    1    1    2    0    0 -0.28143825854E+03  0.11246181485E+04 -0.11970211052E+04  0.16663832091E+04  0.00000000000E+00 0. -1.
<mgrwt>
<rscale>  0 0.23452167E+04</rscale>
<asrwt>0</asrwt>
<pdfrwt beam="1">  1        2 0.51315049E+00 0.23452167E+04</pdfrwt>
<pdfrwt beam="2">  1       -2 0.63421208E-01 0.23452167E+04</pdfrwt>
<totfact> 0.21958191E+00</totfact>
</mgrwt>
</event>
<event>
 6    1  0.2236204E-005  0.5697225E+03  0.7818608E-02  0.9970293E-01
         -2   -1    0    0    0  501 -0.00000000000E+00  0.00000000000E+00  0.20636284489E+02  0.20636284489E+02  0.00000000000E+00 0. -1.
          2   -1    0    0  501    0  0.00000000000E+00 -0.00000000000E+00 -0.39321966913E+04  0.39321966913E+04  0.00000000000E+00 0.  1.
         23    2    1    2    0    0  0.15253709084E+03  0.20119079204E+03 -0.28068020818E+04  0.28195914942E+04  0.90625432233E+02 0.  0.
         11    1    3    3    0    0  0.12662248166E+03  0.17183655214E+03 -0.19014605127E+04  0.19134035473E+04  0.00000000000E+00 0. -1.
        -11    1    3    3    0    0  0.25914609179E+02  0.29354239901E+02 -0.90534156911E+03  0.90618794691E+03  0.00000000000E+00 0.  1.
         22    1    1    2    0    0 -0.15253709084E+03 -0.20119079204E+03 -0.11047583250E+04  0.11332414816E+04  0.00000000000E+00 0. -1.
<mgrwt>
<rscale>  0 0.56972249E+03</rscale>
<asrwt>0</asrwt>
<pdfrwt beam="1">  1        2 0.60495365E+00 0.56972249E+03</pdfrwt>
<pdfrwt beam="2">  1       -2 0.31748114E-02 0.56972249E+03</pdfrwt>
<totfact> 0.18199567E+02</totfact>
</mgrwt>
</event>
<event>
 6    1  0.2236204E-005  0.7786559E+03  0.7818608E-02  0.9591436E-01
         -2   -1    0    0    0  501 -0.00000000000E+00  0.00000000000E+00  0.57897836990E+02  0.57897836990E+02  0.00000000000E+00 0.  1.
          2   -1    0    0  501    0  0.00000000000E+00 -0.00000000000E+00 -0.26179951265E+04  0.26179951265E+04  0.00000000000E+00 0. -1.
         23    2    1    2    0    0  0.33634418592E+03  0.11656111027E+03 -0.17949513567E+04  0.18319959305E+04  0.87434618630E+02 0.  0.
         11    1    3    3    0    0  0.32523557350E+03  0.93481900776E+02 -0.17140745008E+04  0.17471601067E+04  0.00000000000E+00 0. -1.
        -11    1    3    3    0    0  0.11108612421E+02  0.23079209495E+02 -0.80876855876E+02  0.84835823784E+02  0.00000000000E+00 0.  1.
         22    1    1    2    0    0 -0.33634418592E+03 -0.11656111027E+03 -0.76514593278E+03  0.84389703298E+03  0.00000000000E+00 0.  1.
<mgrwt>
<rscale>  0 0.77865591E+03</rscale>
<asrwt>0</asrwt>
<pdfrwt beam="1">  1        2 0.40276847E+00 0.77865591E+03</pdfrwt>
<pdfrwt beam="2">  1       -2 0.89073598E-02 0.77865591E+03</pdfrwt>
<totfact> 0.25545673E+02</totfact>
</mgrwt>
</event>
<event>
 6    1  0.2236204E-005  0.1075022E+04  0.7818608E-02  0.9229885E-01
          2   -1    0    0  501    0  0.00000000000E+00  0.00000000000E+00  0.20755661240E+04  0.20755661240E+04  0.00000000000E+00 0.  1.
         -2   -1    0    0    0  501 -0.00000000000E+00 -0.00000000000E+00 -0.13919973796E+03  0.13919973796E+03  0.00000000000E+00 0. -1.
         23    2    1    2    0    0  0.21062673840E+02 -0.15912114376E+03  0.20236216758E+04  0.20320730591E+04  0.92266224649E+02 0.  0.
         13    1    3    3    0    0  0.48465506330E+02 -0.11578064233E+03  0.16755625305E+04  0.16802570803E+04  0.00000000000E+00 0. -1.
        -13    1    3    3    0    0 -0.27402832490E+02 -0.43340501424E+02  0.34805914531E+03  0.35181597878E+03  0.00000000000E+00 0.  1.
         22    1    1    2    0    0 -0.21062673840E+02  0.15912114376E+03 -0.87255289761E+02  0.18269280285E+03  0.00000000000E+00 0. -1.
<mgrwt>
<rscale>  0 0.10750223E+04</rscale>
<asrwt>0</asrwt>
<pdfrwt beam="1">  1        2 0.31931784E+00 0.10750223E+04</pdfrwt>
<pdfrwt beam="2">  1       -2 0.21415346E-01 0.10750223E+04</pdfrwt>
<totfact> 0.11457829E+02</totfact>
</mgrwt>
</event>
<event>
 6    1  0.2236204E-005  0.2463468E+04  0.7818608E-02  0.8416117E-01
          2   -1    0    0  501    0  0.00000000000E+00  0.00000000000E+00  0.24528572648E+04  0.24528572648E+04  0.00000000000E+00 0. -1.
         -2   -1    0    0    0  501 -0.00000000000E+00 -0.00000000000E+00 -0.61853115365E+03  0.61853115365E+03  0.00000000000E+00 0.  1.
         23    2    1    2    0    0 -0.71953078960E+03 -0.75927346996E+03  0.11156885869E+03  0.10559199096E+04  0.91096025203E+02 0.  0.
         13    1    3    3    0    0 -0.54672316004E+03 -0.63004187739E+03  0.84808249399E+02  0.83848161588E+03  0.00000000000E+00 0. -1.
        -13    1    3    3    0    0 -0.17280762956E+03 -0.12923159257E+03  0.26760609288E+02  0.21743829368E+03  0.00000000000E+00 0.  1.
         22    1    1    2    0    0  0.71953078960E+03  0.75927346996E+03  0.17227572524E+04  0.20154685089E+04  0.00000000000E+00 0. -1.
<mgrwt>
<rscale>  0 0.24634680E+04</rscale>
<asrwt>0</asrwt>
<pdfrwt beam="1">  1        2 0.37736265E+00 0.24634680E+04</pdfrwt>
<pdfrwt beam="2">  1       -2 0.95158640E-01 0.24634680E+04</pdfrwt>
<totfact> 0.30779014E+00</totfact>
</mgrwt>
</event>
<event>
 6    1  0.2236204E-005  0.1450483E+04  0.7818608E-02  0.8918065E-01
          2   -1    0    0  501    0  0.00000000000E+00  0.00000000000E+00  0.14857785502E+04  0.14857785502E+04  0.00000000000E+00 0. -1.
         -2   -1    0    0    0  501 -0.00000000000E+00 -0.00000000000E+00 -0.35400663468E+03  0.35400663468E+03  0.00000000000E+00 0.  1.
         23    2    1    2    0    0  0.58032437779E+03 -0.15115166779E+03  0.56573508124E+02  0.60865772381E+03  0.87409683681E+02 0.  0.
         11    1    3    3    0    0  0.39131311288E+03 -0.13298323681E+03  0.66060029074E+02  0.41853843435E+03  0.00000000000E+00 0. -1.
        -11    1    3    3    0    0  0.18901126490E+03 -0.18168430982E+02 -0.94865209502E+01  0.19011928946E+03  0.00000000000E+00 0.  1.
         22    1    1    2    0    0 -0.58032437779E+03  0.15115166779E+03  0.10751984074E+04  0.12311274611E+04  0.00000000000E+00 0. -1.
<mgrwt>
<rscale>  0 0.14504833E+04</rscale>
<asrwt>0</asrwt>
<pdfrwt beam="1">  1        2 0.22858131E+00 0.14504833E+04</pdfrwt>
<pdfrwt beam="2">  1       -2 0.54462560E-01 0.14504833E+04</pdfrwt>
<totfact> 0.39783612E+01</totfact>
</mgrwt>
</event>
<event>
 6    1  0.2236204E-005  0.2426585E+04  0.7818608E-02  0.8429617E-01
          2   -1    0    0  501    0  0.00000000000E+00  0.00000000000E+00  0.20499604789E+04  0.20499604789E+04  0.00000000000E+00 0. -1.
         -2   -1    0    0    0  501 -0.00000000000E+00 -0.00000000000E+00 -0.71810096357E+03  0.71810096357E+03  0.00000000000E+00 0.  1.
         23    2    1    2    0    0  0.11271558269E+04 -0.34064885271E+03  0.99193190281E+03  0.15424706949E+04  0.93621823596E+02 0.  0.
         11    1    3    3    0    0  0.75481823299E+03 -0.20733696365E+03  0.70974164769E+03  0.10566325699E+04  0.00000000000E+00 0. -1.
        -11    1    3    3    0    0  0.37233759387E+03 -0.13331188905E+03  0.28219025512E+03  0.48583812495E+03  0.00000000000E+00 0.  1.
         22    1    1    2    0    0 -0.11271558269E+04  0.34064885271E+03  0.33992761253E+03  0.12255907476E+04  0.00000000000E+00 0.  1.
<mgrwt>
<rscale>  0 0.24265849E+04</rscale>
<asrwt>0</asrwt>
<pdfrwt beam="1">  1        2 0.31537853E+00 0.24265849E+04</pdfrwt>
<pdfrwt beam="2">  1       -2 0.11047707E+00 0.24265849E+04</pdfrwt>
<totfact> 0.36554424E+00</totfact>
</mgrwt>
</event>
<event>
 6    1  0.2236204E-005  0.2703441E+04  0.7818608E-02  0.8333889E-01
          2   -1    0    0  501    0  0.00000000000E+00  0.00000000000E+00  0.22961885358E+04  0.22961885358E+04  0.00000000000E+00 0. -1.
         -2   -1    0    0    0  501 -0.00000000000E+00 -0.00000000000E+00 -0.79573114652E+03  0.79573114652E+03  0.00000000000E+00 0.  1.
         23    2    1    2    0    0 -0.60527314361E+03 -0.87672559899E+00 -0.62950314147E+03  0.87762787463E+03  0.87178748450E+02 0.  0.
         13    1    3    3    0    0 -0.16030368899E+03 -0.22390395784E+02 -0.21508915629E+03  0.26918756969E+03  0.00000000000E+00 0.  1.
        -13    1    3    3    0    0 -0.44496945463E+03  0.21513670185E+02 -0.41441398519E+03  0.60844030494E+03  0.00000000000E+00 0. -1.
         22    1    1    2    0    0  0.60527314361E+03  0.87672559899E+00  0.21299605308E+04  0.22142918077E+04  0.00000000000E+00 0. -1.
<mgrwt>
<rscale>  0 0.27034413E+04</rscale>
<asrwt>0</asrwt>
<pdfrwt beam="1">  1        2 0.35325977E+00 0.27034413E+04</pdfrwt>
<pdfrwt beam="2">  1       -2 0.12242018E+00 0.27034413E+04</pdfrwt>
<totfact> 0.20185692E+00</totfact>
</mgrwt>
</event>
<event>
 6    1  0.2236204E-005  0.2062959E+04  0.7818608E-02  0.8577738E-01
         -2   -1    0    0    0  501 -0.00000000000E+00  0.00000000000E+00  0.14136255986E+04  0.14136255986E+04  0.00000000000E+00 0.  1.
          2   -1    0    0  501    0  0.00000000000E+00 -0.00000000000E+00 -0.75263884195E+03  0.75263884195E+03  0.00000000000E+00 0. -1.
         23    2    1    2    0    0 -0.22624792669E+03 -0.90216062318E+03 -0.13220686361E+03  0.94387414545E+03  0.91311736988E+02 0.  0.
         13    1    3    3    0    0 -0.13221207403E+03 -0.39586918382E+03 -0.91805631292E+02  0.42734145265E+03  0.00000000000E+00 0.  1.
        -13    1    3    3    0    0 -0.94035852659E+02 -0.50629143935E+03 -0.40401232315E+02  0.51653269279E+03  0.00000000000E+00 0. -1.
         22    1    1    2    0    0  0.22624792669E+03  0.90216062318E+03  0.79319362026E+03  0.12223902951E+04  0.00000000000E+00 0.  1.
<mgrwt>
<rscale>  0 0.20629586E+04</rscale>
<asrwt>0</asrwt>
<pdfrwt beam="1">  1        2 0.11579059E+00 0.20629586E+04</pdfrwt>
<pdfrwt beam="2">  1       -2 0.21748086E+00 0.20629586E+04</pdfrwt>
<totfact> 0.35365333E+00</totfact>
</mgrwt>
</event>
<event>
 6    1  0.2275708E-005  0.3187833E+04  0.7818608E-02  0.8192038E-01
          2   -1    0    0  501    0  0.00000000000E+00  0.00000000000E+00  0.24562624593E+04  0.24562624593E+04  0.00000000000E+00 0. -1.
         -2   -1    0    0    0  501 -0.00000000000E+00 -0.00000000000E+00 -0.10343233704E+04  0.10343233704E+04  0.00000000000E+00 0.  1.
         23    2    1    2    0    0 -0.14528101714E+04 -0.64522210973E+03  0.81941735642E+03  0.17905854169E+04  0.88217720407E+02 0.  0.
         11    1    3    3    0    0 -0.84096708971E+03 -0.34302868078E+03  0.42994287396E+03  0.10048607847E+04  0.00000000000E+00 0.  1.
        -11    1    3    3    0    0 -0.61184308172E+03 -0.30219342896E+03  0.38947448246E+03  0.78572463219E+03  0.00000000000E+00 0. -1.
         22    1    1    2    0    0  0.14528101714E+04  0.64522210973E+03  0.60252173247E+03  0.17000004127E+04  0.00000000000E+00 0.  1.
<mgrwt>
<rscale>  0 0.31878329E+04</rscale>
<asrwt>0</asrwt>
<pdfrwt beam="1">  1        2 0.37788653E+00 0.31878329E+04</pdfrwt>
<pdfrwt beam="2">  1       -2 0.15912667E+00 0.31878329E+04</pdfrwt>
<totfact> 0.79510022E-01</totfact>
</mgrwt>
</event>
<event>
 6    1  0.2236204E-005  0.4321367E+04  0.7818608E-02  0.7942679E-01
         -2   -1    0    0    0  501 -0.00000000000E+00  0.00000000000E+00  0.37528020058E+04  0.37528020058E+04  0.00000000000E+00 0.  1.
          2   -1    0    0  501    0  0.00000000000E+00 -0.00000000000E+00 -0.12440177440E+04  0.12440177440E+04  0.00000000000E+00 0. -1.
         23    2    1    2    0    0  0.46820339461E+03 -0.11335094506E+04  0.33105574573E+04  0.35315899554E+04  0.90988136985E+02 0.  0.
         11    1    3    3    0    0  0.35324049499E+03 -0.88290083734E+03  0.26667056811E+04  0.28311856042E+04  0.00000000000E+00 0.  1.
        -11    1    3    3    0    0  0.11496289962E+03 -0.25060861330E+03  0.64385177623E+03  0.70040435115E+03  0.00000000000E+00 0. -1.
         22    1    1    2    0    0 -0.46820339461E+03  0.11335094506E+04 -0.80177319553E+03  0.14652297944E+04  0.00000000000E+00 0. -1.
<mgrwt>
<rscale>  0 0.43213666E+04</rscale>
<asrwt>0</asrwt>
<pdfrwt beam="1">  1        2 0.19138735E+00 0.43213666E+04</pdfrwt>
<pdfrwt beam="2">  1       -2 0.57735415E+00 0.43213666E+04</pdfrwt>
<totfact> 0.86824330E-03</totfact>
</mgrwt>
</event>
<event>
 6    1  0.2236204E-005  0.4583607E+04  0.7818608E-02  0.7896161E-01
         -2   -1    0    0    0  501 -0.00000000000E+00  0.00000000000E+00  0.22725589959E+04  0.22725589959E+04  0.00000000000E+00 0.  1.
          2   -1    0    0  501    0  0.00000000000E+00 -0.00000000000E+00 -0.23112111362E+04  0.23112111362E+04  0.00000000000E+00 0. -1.
         23    2    1    2    0    0 -0.10451573702E+04 -0.20258994773E+04  0.20833157600E+03  0.22908192872E+04  0.88477909669E+02 0.  0.
         11    1    3    3    0    0 -0.26450207655E+03 -0.59049099064E+03  0.41190927499E+02  0.64833452093E+03  0.00000000000E+00 0.  1.
        -11    1    3    3    0    0 -0.78065529363E+03 -0.14354084867E+04  0.16714064850E+03  0.16424847663E+04  0.00000000000E+00 0. -1.
         22    1    1    2    0    0  0.10451573702E+04  0.20258994773E+04 -0.24698371634E+03  0.22929508448E+04  0.00000000000E+00 0. -1.
<mgrwt>
<rscale>  0 0.45836072E+04</rscale>
<asrwt>0</asrwt>
<pdfrwt beam="1">  1        2 0.35557094E+00 0.45836072E+04</pdfrwt>
<pdfrwt beam="2">  1       -2 0.34962446E+00 0.45836072E+04</pdfrwt>
<totfact> 0.52599316E-02</totfact>
</mgrwt>
</event>
<event>
 6    1  0.2236204E-005  0.1986802E+04  0.7818608E-02  0.8612816E-01
          2   -1    0    0  501    0  0.00000000000E+00  0.00000000000E+00  0.12204242783E+04  0.12204242783E+04  0.00000000000E+00 0. -1.
         -2   -1    0    0    0  501 -0.00000000000E+00 -0.00000000000E+00 -0.80860853002E+03  0.80860853002E+03  0.00000000000E+00 0.  1.
         23    2    1    2    0    0  0.28047596483E+02  0.99094308458E+03  0.20355021035E+03  0.10160523550E+04  0.90414796083E+02 0.  0.
         13    1    3    3    0    0  0.20697269661E+02  0.84621910991E+03  0.14064386095E+03  0.85807683489E+03  0.00000000000E+00 0. -1.
        -13    1    3    3    0    0  0.73503268217E+01  0.14472397467E+03  0.62906349401E+02  0.15797552008E+03  0.00000000000E+00 0.  1.
         22    1    1    2    0    0 -0.28047596483E+02 -0.99094308458E+03  0.20826553790E+03  0.10129804533E+04  0.00000000000E+00 0.  1.
<mgrwt>
<rscale>  0 0.19868019E+04</rscale>
<asrwt>0</asrwt>
<pdfrwt beam="1">  1        2 0.18775758E+00 0.19868019E+04</pdfrwt>
<pdfrwt beam="2">  1       -2 0.12440131E+00 0.19868019E+04</pdfrwt>
<totfact> 0.83136281E+00</totfact>
</mgrwt>
</event>
<event>
 6    1  0.2236204E-005  0.4171957E+04  0.7818608E-02  0.7970728E-01
         -2   -1    0    0    0  501 -0.00000000000E+00  0.00000000000E+00  0.22659127412E+04  0.22659127412E+04  0.00000000000E+00 0.  1.
          2   -1    0    0  501    0  0.00000000000E+00 -0.00000000000E+00 -0.19203326793E+04  0.19203326793E+04  0.00000000000E+00 0. -1.
         23    2    1    2    0    0 -0.17504275724E+04 -0.65022334810E+03  0.11035989333E+04  0.21709589153E+04  0.91350523473E+02 0.  0.
         11    1    3    3    0    0 -0.12784411056E+03 -0.40204827181E+02  0.10651492682E+03  0.17118987812E+03  0.00000000000E+00 0. -1.
        -11    1    3    3    0    0 -0.16225834618E+04 -0.61001852092E+03  0.99708400645E+03  0.19997690372E+04  0.00000000000E+00 0.  1.
         22    1    1    2    0    0  0.17504275724E+04  0.65022334810E+03 -0.75801887134E+03  0.20152865051E+04  0.00000000000E+00 0. -1.
<mgrwt>
<rscale>  0 0.41719570E+04</rscale>
<asrwt>0</asrwt>
<pdfrwt beam="1">  1        2 0.29543580E+00 0.41719570E+04</pdfrwt>
<pdfrwt beam="2">  1       -2 0.34860196E+00 0.41719570E+04</pdfrwt>
<totfact> 0.91378249E-02</totfact>
</mgrwt>
</event>
<event>
 6    1  0.2236204E-005  0.1945029E+04  0.7818608E-02  0.8632762E-01
          2   -1    0    0  501    0  0.00000000000E+00  0.00000000000E+00  0.10472108842E+04  0.10472108842E+04  0.00000000000E+00 0. -1.
         -2   -1    0    0    0  501 -0.00000000000E+00 -0.00000000000E+00 -0.90314628545E+03  0.90314628545E+03  0.00000000000E+00 0.  1.
         23    2    1    2    0    0  0.72893801363E+03  0.53508352074E+03  0.42512515383E+03  0.10034358226E+04  0.92125196088E+02 0.  0.
         11    1    3    3    0    0  0.60945373655E+03  0.41988803742E+03  0.31555531140E+03  0.80455887014E+03  0.00000000000E+00 0.  1.
        -11    1    3    3    0    0  0.11948427708E+03  0.11519548332E+03  0.10956984243E+03  0.19887695246E+03  0.00000000000E+00 0. -1.
         22    1    1    2    0    0 -0.72893801363E+03 -0.53508352074E+03 -0.28106055509E+03  0.94692134705E+03  0.00000000000E+00 0.  1.
<mgrwt>
<rscale>  0 0.19450292E+04</rscale>
<asrwt>0</asrwt>
<pdfrwt beam="1">  1        2 0.16110937E+00 0.19450292E+04</pdfrwt>
<pdfrwt beam="2">  1       -2 0.13894558E+00 0.19450292E+04</pdfrwt>
<totfact> 0.80337153E+00</totfact>
</mgrwt>
</event>
<event>
 6    1  0.2236204E-005  0.5353793E+04  0.7818608E-02  0.7776134E-01
         -2   -1    0    0    0  501 -0.00000000000E+00  0.00000000000E+00  0.16321007018E+04  0.16321007018E+04  0.00000000000E+00 0.  1.
          2   -1    0    0  501    0  0.00000000000E+00 -0.00000000000E+00 -0.43905225175E+04  0.43905225175E+04  0.00000000000E+00 0. -1.
         23    2    1    2    0    0  0.83222638519E+03  0.16738283986E+04  0.77456703115E+03  0.20255852590E+04  0.93484179761E+02 0.  0.
         13    1    3    3    0    0  0.34218555331E+03  0.72910689703E+03  0.28771384529E+03  0.85525848547E+03  0.00000000000E+00 0.  1.
        -13    1    3    3    0    0  0.49004083188E+03  0.94472150153E+03  0.48685318586E+03  0.11703267736E+04  0.00000000000E+00 0. -1.
         22    1    1    2    0    0 -0.83222638519E+03 -0.16738283986E+04 -0.35329888468E+04  0.39970379603E+04  0.00000000000E+00 0. -1.
<mgrwt>
<rscale>  0 0.53537930E+04</rscale>
<asrwt>0</asrwt>
<pdfrwt beam="1">  1        2 0.67546499E+00 0.53537930E+04</pdfrwt>
<pdfrwt beam="2">  1       -2 0.25109242E+00 0.53537930E+04</pdfrwt>
<totfact> 0.69537378E-03</totfact>
</mgrwt>
</event>
<event>
 6    1  0.2236204E-005  0.1596655E+04  0.7818608E-02  0.8822606E-01
         -2   -1    0    0    0  501 -0.00000000000E+00  0.00000000000E+00  0.78787166952E+03  0.78787166952E+03  0.00000000000E+00 0.  1.
          2   -1    0    0  501    0  0.00000000000E+00 -0.00000000000E+00 -0.80892210010E+03  0.80892210010E+03  0.00000000000E+00 0. -1.
         23    2    1    2    0    0 -0.49161491422E+03 -0.41667668436E+03  0.45631075448E+03  0.79480973974E+03  0.90544655079E+02 0.  0.
         11    1    3    3    0    0 -0.41240093985E+03 -0.30604852135E+03  0.34102683181E+03  0.61647346466E+03  0.00000000000E+00 0. -1.
        -11    1    3    3    0    0 -0.79213974373E+02 -0.11062816300E+03  0.11528392267E+03  0.17833627509E+03  0.00000000000E+00 0.  1.
         22    1    1    2    0    0  0.49161491422E+03  0.41667668436E+03 -0.47736118506E+03  0.80198402988E+03  0.00000000000E+00 0. -1.
<mgrwt>
<rscale>  0 0.15966550E+04</rscale>
<asrwt>0</asrwt>
<pdfrwt beam="1">  1        2 0.12444955E+00 0.15966550E+04</pdfrwt>
<pdfrwt beam="2">  1       -2 0.12121103E+00 0.15966550E+04</pdfrwt>
<totfact> 0.16858002E+01</totfact>
</mgrwt>
</event>
<event>
 6    1  0.2236204E-005  0.8902088E+03  0.7818608E-02  0.9437904E-01
         -2   -1    0    0    0  501 -0.00000000000E+00  0.00000000000E+00  0.16865620669E+03  0.16865620669E+03  0.00000000000E+00 0.  1.
          2   -1    0    0  501    0  0.00000000000E+00 -0.00000000000E+00 -0.11746850534E+04  0.11746850534E+04  0.00000000000E+00 0. -1.
         23    2    1    2    0    0  0.22175223410E+02  0.34075388075E+03 -0.88967614243E+02  0.36476767988E+03  0.92386558133E+02 0.  0.
         11    1    3    3    0    0  0.51798970699E+02  0.29307496946E+03 -0.75290343268E+02  0.30699300787E+03  0.00000000000E+00 0. -1.
        -11    1    3    3    0    0 -0.29623747289E+02  0.47678911285E+02 -0.13677270975E+02  0.57774672012E+02  0.00000000000E+00 0.  1.
         22    1    1    2    0    0 -0.22175223410E+02 -0.34075388075E+03 -0.91706123243E+03  0.97857358017E+03  0.00000000000E+00 0. -1.
<mgrwt>
<rscale>  0 0.89020880E+03</rscale>
<asrwt>0</asrwt>
<pdfrwt beam="1">  1        2 0.18072077E+00 0.89020880E+03</pdfrwt>
<pdfrwt beam="2">  1       -2 0.25947110E-01 0.89020880E+03</pdfrwt>
<totfact> 0.26335580E+02</totfact>
</mgrwt>
</event>
<event>
 6    1  0.2236204E-005  0.1030582E+04  0.7818608E-02  0.9275625E-01
         -2   -1    0    0    0  501 -0.00000000000E+00  0.00000000000E+00  0.61150919494E+03  0.61150919494E+03  0.00000000000E+00 0.  1.
          2   -1    0    0  501    0  0.00000000000E+00 -0.00000000000E+00 -0.43421242765E+03  0.43421242765E+03  0.00000000000E+00 0. -1.
         23    2    1    2    0    0  0.15649482274E+03  0.47026421317E+03  0.21781513060E+03  0.54844825964E+03  0.87823702117E+02 0.  0.
         13    1    3    3    0    0  0.77017198039E+02  0.29471784562E+03  0.91585301715E+02  0.31808509052E+03  0.00000000000E+00 0. -1.
        -13    1    3    3    0    0  0.79477624697E+02  0.17554636755E+03  0.12622982889E+03  0.23036316913E+03  0.00000000000E+00 0.  1.
         22    1    1    2    0    0 -0.15649482274E+03 -0.47026421317E+03 -0.40518363307E+02  0.49727336295E+03  0.00000000000E+00 0.  1.
<mgrwt>
<rscale>  0 0.10305822E+04</rscale>
<asrwt>0</asrwt>
<pdfrwt beam="1">  1        2 0.66801912E-01 0.10305822E+04</pdfrwt>
<pdfrwt beam="2">  1       -2 0.94078338E-01 0.10305822E+04</pdfrwt>
<totfact> 0.68882547E+01</totfact>
</mgrwt>
</event>
<event>
 6    1  0.2236204E-005  0.4700454E+04  0.7818608E-02  0.7876453E-01
          2   -1    0    0  501    0  0.00000000000E+00  0.00000000000E+00  0.21431629513E+04  0.21431629513E+04  0.00000000000E+00 0.  1.
         -2   -1    0    0    0  501 -0.00000000000E+00 -0.00000000000E+00 -0.25772970842E+04  0.25772970842E+04  0.00000000000E+00 0. -1.
         23    2    1    2    0    0  0.29577736056E+03 -0.12823948139E+04  0.17373031073E+04  0.21813341242E+04  0.89307158714E+02 0.  0.
         13    1    3    3    0    0  0.20139885224E+03 -0.82214647884E+03  0.10479670468E+04  0.13471159050E+04  0.00000000000E+00 0. -1.
        -13    1    3    3    0    0  0.94378508322E+02 -0.46024833508E+03  0.68933606053E+03  0.83421821913E+03  0.00000000000E+00 0.  1.
         22    1    1    2    0    0 -0.29577736056E+03  0.12823948139E+04 -0.21714372402E+04  0.25391259114E+04  0.00000000000E+00 0. -1.
<mgrwt>
<rscale>  0 0.47004543E+04</rscale>
<asrwt>0</asrwt>
<pdfrwt beam="1">  1        2 0.32971738E+00 0.47004543E+04</pdfrwt>
<pdfrwt beam="2">  1       -2 0.39650724E+00 0.47004543E+04</pdfrwt>
<totfact> 0.32425944E-02</totfact>
</mgrwt>
</event>
<event>
 6    1  0.2236204E-005  0.1042038E+04  0.7818608E-02  0.9263603E-01
         -2   -1    0    0    0  501 -0.00000000000E+00  0.00000000000E+00  0.30438200247E+03  0.30438200247E+03  0.00000000000E+00 0.  1.
          2   -1    0    0  501    0  0.00000000000E+00 -0.00000000000E+00 -0.89184297803E+03  0.89184297803E+03  0.00000000000E+00 0. -1.
         23    2    1    2    0    0  0.26258688652E+02 -0.18056706162E+03  0.25971571042E+03  0.32962108037E+03  0.88903452795E+02 0.  0.
         11    1    3    3    0    0  0.30067067333E+02 -0.10905243170E+03  0.22085778752E+03  0.24814234565E+03  0.00000000000E+00 0. -1.
        -11    1    3    3    0    0 -0.38083786812E+01 -0.71514629915E+02  0.38857922901E+02  0.81478734724E+02  0.00000000000E+00 0.  1.
         22    1    1    2    0    0 -0.26258688652E+02  0.18056706162E+03 -0.84717668597E+03  0.86660390013E+03  0.00000000000E+00 0. -1.
<mgrwt>
<rscale>  0 0.10420383E+04</rscale>
<asrwt>0</asrwt>
<pdfrwt beam="1">  1        2 0.13720661E+00 0.10420383E+04</pdfrwt>
<pdfrwt beam="2">  1       -2 0.46828001E-01 0.10420383E+04</pdfrwt>
<totfact> 0.12785063E+02</totfact>
</mgrwt>
</event>
<event>
 6    1  0.2236204E-005  0.3519782E+04  0.7818608E-02  0.8109118E-01
         -2   -1    0    0    0  501 -0.00000000000E+00  0.00000000000E+00  0.20677129169E+04  0.20677129169E+04  0.00000000000E+00 0.  1.
          2   -1    0    0  501    0  0.00000000000E+00 -0.00000000000E+00 -0.14978943615E+04  0.14978943615E+04  0.00000000000E+00 0. -1.
         23    2    1    2    0    0  0.14099747599E+01  0.13852006927E+04  0.13829048714E+04  0.19594029624E+04  0.89728135642E+02 0.  0.
         13    1    3    3    0    0 -0.32700408386E+02  0.11281867132E+04  0.11122920867E+04  0.15846350566E+04  0.00000000000E+00 0. -1.
        -13    1    3    3    0    0  0.34110383146E+02  0.25701397957E+03  0.27061278479E+03  0.37476790581E+03  0.00000000000E+00 0.  1.
         22    1    1    2    0    0 -0.14099747599E+01 -0.13852006927E+04 -0.81308631604E+03  0.16062043159E+04  0.00000000000E+00 0. -1.
<mgrwt>
<rscale>  0 0.35197815E+04</rscale>
<asrwt>0</asrwt>
<pdfrwt beam="1">  1        2 0.23044528E+00 0.35197815E+04</pdfrwt>
<pdfrwt beam="2">  1       -2 0.31810968E+00 0.35197815E+04</pdfrwt>
<totfact> 0.25679762E-01</totfact>
</mgrwt>
</event>
<event>
 6    1  0.2236204E-005  0.1280866E+04  0.7818608E-02  0.9044878E-01
         -2   -1    0    0    0  501 -0.00000000000E+00  0.00000000000E+00  0.19460610556E+03  0.19460610556E+03  0.00000000000E+00 0.  1.
          2   -1    0    0  501    0  0.00000000000E+00 -0.00000000000E+00 -0.21076139037E+04  0.21076139037E+04  0.00000000000E+00 0. -1.
         23    2    1    2    0    0 -0.51241530522E+03  0.24782474073E+03 -0.44652316154E+03  0.72914539676E+03  0.91013892719E+02 0.  0.
         11    1    3    3    0    0 -0.33106993411E+03  0.18983598192E+03 -0.33919442280E+03  0.51058579863E+03  0.00000000000E+00 0. -1.
        -11    1    3    3    0    0 -0.18134537111E+03  0.57988758820E+02 -0.10732873874E+03  0.21855959813E+03  0.00000000000E+00 0.  1.
         22    1    1    2    0    0  0.51241530522E+03 -0.24782474073E+03 -0.14664846366E+04  0.15730746125E+04  0.00000000000E+00 0. -1.
<mgrwt>
<rscale>  0 0.12808662E+04</rscale>
<asrwt>0</asrwt>
<pdfrwt beam="1">  1        2 0.32424827E+00 0.12808662E+04</pdfrwt>
<pdfrwt beam="2">  1       -2 0.29939403E-01 0.12808662E+04</pdfrwt>
<totfact> 0.58874711E+01</totfact>
</mgrwt>
</event>
<event>
 6    1  0.2236204E-005  0.2807963E+04  0.7818608E-02  0.8300801E-01
         -1   -1    0    0    0  501 -0.00000000000E+00  0.00000000000E+00  0.25003850063E+04  0.25003850063E+04  0.00000000000E+00 0.  1.
          1   -1    0    0  501    0  0.00000000000E+00 -0.00000000000E+00 -0.78834401326E+03  0.78834401326E+03  0.00000000000E+00 0. -1.
         23    2    1    2    0    0  0.62355993690E+03 -0.55611867882E+03  0.21762834337E+04  0.23328963859E+04  0.90005464985E+02 0.  0.
         13    1    3    3    0    0  0.10436946616E+03 -0.12419916457E+03  0.35103851854E+03  0.38671237302E+03  0.00000000000E+00 0. -1.
        -13    1    3    3    0    0  0.51919047074E+03 -0.43191951426E+03  0.18252449151E+04  0.19461840129E+04  0.00000000000E+00 0.  1.
         22    1    1    2    0    0 -0.62355993690E+03  0.55611867882E+03 -0.46424244067E+03  0.95583263365E+03  0.00000000000E+00 0. -1.
<mgrwt>
<rscale>  0 0.28079626E+04</rscale>
<asrwt>0</asrwt>
<pdfrwt beam="1">  1        1 0.12128370E+00 0.28079626E+04</pdfrwt>
<pdfrwt beam="2">  1       -1 0.38467461E+00 0.28079626E+04</pdfrwt>
<totfact> 0.17807807E-01</totfact>
</mgrwt>
</event>
<event>
 6    1  0.2236204E-005  0.2233719E+04  0.7818608E-02  0.8504523E-01
         -2   -1    0    0    0  501 -0.00000000000E+00  0.00000000000E+00  0.15046206036E+04  0.15046206036E+04  0.00000000000E+00 0.  1.
          2   -1    0    0  501    0  0.00000000000E+00 -0.00000000000E+00 -0.82902956626E+03  0.82902956626E+03  0.00000000000E+00 0. -1.
         23    2    1    2    0    0 -0.31594702466E+03 -0.18641685816E+03  0.14381871683E+04  0.14874075178E+04  0.97082571658E+02 0.  0.
         11    1    3    3    0    0 -0.62492993775E+02 -0.86230821470E+02  0.43702100041E+03  0.44980938590E+03  0.00000000000E+00 0. -1.
        -11    1    3    3    0    0 -0.25345403088E+03 -0.10018603669E+03  0.10011661679E+04  0.10375981319E+04  0.00000000000E+00 0.  1.
         22    1    1    2    0    0  0.31594702466E+03  0.18641685816E+03 -0.76259613088E+03  0.84624265209E+03  0.00000000000E+00 0. -1.
<mgrwt>
<rscale>  0 0.22337188E+04</rscale>
<asrwt>0</asrwt>
<pdfrwt beam="1">  1        2 0.12754301E+00 0.22337188E+04</pdfrwt>
<pdfrwt beam="2">  1       -2 0.23148009E+00 0.22337188E+04</pdfrwt>
<totfact> 0.25042579E+00</totfact>
</mgrwt>
</event>
<event>
 6    1  0.2236204E-005  0.1273863E+04  0.7818608E-02  0.9050553E-01
          1   -1    0    0  501    0  0.00000000000E+00  0.00000000000E+00  0.91850907146E+03  0.91850907146E+03  0.00000000000E+00 0. -1.
         -1   -1    0    0    0  501 -0.00000000000E+00 -0.00000000000E+00 -0.44167424228E+03  0.44167424228E+03  0.00000000000E+00 0.  1.
         23    2    1    2    0    0  0.16427195352E+03 -0.52132207461E+03  0.58181467919E+03  0.80360200872E+03  0.92227367374E+02 0.  0.
         13    1    3    3    0    0  0.96495274641E+01 -0.53306356576E+02  0.10326026794E+03  0.11660773545E+03  0.00000000000E+00 0. -1.
        -13    1    3    3    0    0  0.15462242606E+03 -0.46801571804E+03  0.47855441126E+03  0.68699427327E+03  0.00000000000E+00 0.  1.
         22    1    1    2    0    0 -0.16427195352E+03  0.52132207461E+03 -0.10497985002E+03  0.55658130503E+03  0.00000000000E+00 0.  1.
<mgrwt>
<rscale>  0 0.12738631E+04</rscale>
<asrwt>0</asrwt>
<pdfrwt beam="1">  1        1 0.14130909E+00 0.12738631E+04</pdfrwt>
<pdfrwt beam="2">  1       -1 0.67949884E-01 0.12738631E+04</pdfrwt>
<totfact> 0.37943603E+01</totfact>
</mgrwt>
</event>
<event>
 6    1  0.2236204E-005  0.1091586E+04  0.7818608E-02  0.9213432E-01
          2   -1    0    0  501    0  0.00000000000E+00  0.00000000000E+00  0.12103276449E+04  0.12103276449E+04  0.00000000000E+00 0. -1.
         -2   -1    0    0    0  501 -0.00000000000E+00 -0.00000000000E+00 -0.24612328665E+03  0.24612328665E+03  0.00000000000E+00 0.  1.
         23    2    1    2    0    0 -0.12500585829E+03 -0.51017151298E+03  0.30715319430E+03  0.61525079524E+03  0.91044049841E+02 0.  0.
         11    1    3    3    0    0 -0.42584740617E+02 -0.52864661015E+02  0.30163241284E+02  0.74282929684E+02  0.00000000000E+00 0.  1.
        -11    1    3    3    0    0 -0.82421117674E+02 -0.45730685197E+03  0.27698995302E+03  0.54096786556E+03  0.00000000000E+00 0. -1.
         22    1    1    2    0    0  0.12500585829E+03  0.51017151298E+03  0.65705116392E+03  0.84120013628E+03  0.00000000000E+00 0.  1.
<mgrwt>
<rscale>  0 0.10915857E+04</rscale>
<asrwt>0</asrwt>
<pdfrwt beam="1">  1        2 0.18620425E+00 0.10915857E+04</pdfrwt>
<pdfrwt beam="2">  1       -2 0.37865122E-01 0.10915857E+04</pdfrwt>
<totfact> 0.12198572E+02</totfact>
</mgrwt>
</event>
<event>
 6    1  0.2236204E-005  0.3124168E+04  0.7818608E-02  0.8209136E-01
         -2   -1    0    0    0  501 -0.00000000000E+00  0.00000000000E+00  0.10218959804E+04  0.10218959804E+04  0.00000000000E+00 0.  1.
          2   -1    0    0  501    0  0.00000000000E+00 -0.00000000000E+00 -0.23878228559E+04  0.23878228559E+04  0.00000000000E+00 0. -1.
         23    2    1    2    0    0  0.11011096104E+04 -0.98444658321E+03 -0.12339408562E+04  0.19268170329E+04  0.91849835218E+02 0.  0.
         13    1    3    3    0    0  0.26326706540E+03 -0.25483097757E+03 -0.35515365295E+03  0.51027687784E+03  0.00000000000E+00 0. -1.
        -13    1    3    3    0    0  0.83784254502E+03 -0.72961560564E+03 -0.87878720328E+03  0.14165401551E+04  0.00000000000E+00 0.  1.
         22    1    1    2    0    0 -0.11011096104E+04  0.98444658321E+03 -0.13198601923E+03  0.14829018034E+04  0.00000000000E+00 0.  1.
<mgrwt>
<rscale>  0 0.31241681E+04</rscale>
<asrwt>0</asrwt>
<pdfrwt beam="1">  1        2 0.36735736E+00 0.31241681E+04</pdfrwt>
<pdfrwt beam="2">  1       -2 0.15721477E+00 0.31241681E+04</pdfrwt>
<totfact> 0.90429419E-01</totfact>
</mgrwt>
</event>
<event>
 6    1  0.2236204E-005  0.2054456E+04  0.7818608E-02  0.8581576E-01
         -2   -1    0    0    0  501 -0.00000000000E+00  0.00000000000E+00  0.39607262764E+03  0.39607262764E+03  0.00000000000E+00 0.  1.
          2   -1    0    0  501    0  0.00000000000E+00 -0.00000000000E+00 -0.26641503055E+04  0.26641503055E+04  0.00000000000E+00 0. -1.
         23    2    1    2    0    0 -0.31289560738E+03 -0.71908661930E+03 -0.15268111886E+03  0.80414407171E+03  0.91361572042E+02 0.  0.
         13    1    3    3    0    0 -0.18927316084E+03 -0.39350768050E+03 -0.41786160729E+02  0.43865556790E+03  0.00000000000E+00 0.  1.
        -13    1    3    3    0    0 -0.12362244654E+03 -0.32557893880E+03 -0.11089495813E+03  0.36548850381E+03  0.00000000000E+00 0. -1.
         22    1    1    2    0    0  0.31289560738E+03  0.71908661930E+03 -0.21153965590E+04  0.22560788614E+04  0.00000000000E+00 0. -1.
<mgrwt>
<rscale>  0 0.20544557E+04</rscale>
<asrwt>0</asrwt>
<pdfrwt beam="1">  1        2 0.40986927E+00 0.20544557E+04</pdfrwt>
<pdfrwt beam="2">  1       -2 0.60934251E-01 0.20544557E+04</pdfrwt>
<totfact> 0.64715769E+00</totfact>
</mgrwt>
</event>
<event>
 6    1  0.2236204E-005  0.2648540E+04  0.7818608E-02  0.8351898E-01
         -2   -1    0    0    0  501 -0.00000000000E+00  0.00000000000E+00  0.73812272258E+03  0.73812272258E+03  0.00000000000E+00 0.  1.
          2   -1    0    0  501    0  0.00000000000E+00 -0.00000000000E+00 -0.23758798827E+04  0.23758798827E+04  0.00000000000E+00 0. -1.
         23    2    1    2    0    0 -0.22213574153E+03 -0.11976272318E+04 -0.14260811818E+04  0.18776927761E+04  0.91473220411E+02 0.  0.
         13    1    3    3    0    0 -0.13313173735E+03 -0.79361797858E+03 -0.10038373461E+04  0.12865624636E+04  0.00000000000E+00 0. -1.
        -13    1    3    3    0    0 -0.89004004183E+02 -0.40400925321E+03 -0.42224383579E+03  0.59113031246E+03  0.00000000000E+00 0.  1.
         22    1    1    2    0    0  0.22213574153E+03  0.11976272318E+04 -0.21167597826E+03  0.12363098292E+04  0.00000000000E+00 0.  1.
<mgrwt>
<rscale>  0 0.26485399E+04</rscale>
<asrwt>0</asrwt>
<pdfrwt beam="1">  1        2 0.36551999E+00 0.26485399E+04</pdfrwt>
<pdfrwt beam="2">  1       -2 0.11355734E+00 0.26485399E+04</pdfrwt>
<totfact> 0.21983082E+00</totfact>
</mgrwt>
</event>
<event>
 6    1  0.2236204E-005  0.1420881E+04  0.7818608E-02  0.8938841E-01
         -4   -1    0    0    0  501 -0.00000000000E+00  0.00000000000E+00  0.12337502434E+04  0.12337502434E+04  0.00000000000E+00 0. -1.
          4   -1    0    0  501    0  0.00000000000E+00 -0.00000000000E+00 -0.40909879218E+03  0.40909879218E+03  0.00000000000E+00 0.  1.
         23    2    1    2    0    0  0.27977223884E+03 -0.32414855847E+03 -0.23710284686E+03  0.49800538553E+03  0.91906531045E+02 0.  0.
         11    1    3    3    0    0  0.20842799908E+03 -0.29209132054E+03 -0.18215198056E+03  0.40241634454E+03  0.00000000000E+00 0.  1.
        -11    1    3    3    0    0  0.71344239756E+02 -0.32057237932E+02 -0.54950866294E+02  0.95589040986E+02  0.00000000000E+00 0. -1.
         22    1    1    2    0    0 -0.27977223884E+03  0.32414855847E+03  0.10617542980E+04  0.11448436500E+04  0.00000000000E+00 0. -1.
<mgrwt>
<rscale>  0 0.14208810E+04</rscale>
<asrwt>0</asrwt>
<pdfrwt beam="1">  1        4 0.62938276E-01 0.14208810E+04</pdfrwt>
<pdfrwt beam="2">  1       -4 0.18980773E+00 0.14208810E+04</pdfrwt>
<totfact> 0.70723013E-01</totfact>
</mgrwt>
</event>
<event>
 6    1  0.2236204E-005  0.2659945E+04  0.7818608E-02  0.8348120E-01
          2   -1    0    0  501    0  0.00000000000E+00  0.00000000000E+00  0.15348367628E+04  0.15348367628E+04  0.00000000000E+00 0.  1.
         -2   -1    0    0    0  501 -0.00000000000E+00 -0.00000000000E+00 -0.11524529056E+04  0.11524529056E+04  0.00000000000E+00 0. -1.
         23    2    1    2    0    0 -0.75457871520E+02 -0.13075539536E+04 -0.32405209270E+02  0.13134479010E+04  0.93295546965E+02 0.  0.
         13    1    3    3    0    0 -0.51941413870E+02 -0.65536688951E+03 -0.60741682642E+02  0.66022210077E+03  0.00000000000E+00 0.  1.
        -13    1    3    3    0    0 -0.23516457651E+02 -0.65218706413E+03  0.28336473372E+02  0.65322580026E+03  0.00000000000E+00 0. -1.
         22    1    1    2    0    0  0.75457871520E+02  0.13075539536E+04  0.41478906648E+03  0.13738417674E+04  0.00000000000E+00 0.  1.
<mgrwt>
<rscale>  0 0.26599452E+04</rscale>
<asrwt>0</asrwt>
<pdfrwt beam="1">  1        2 0.23612873E+00 0.26599452E+04</pdfrwt>
<pdfrwt beam="2">  1       -2 0.17730045E+00 0.26599452E+04</pdfrwt>
<totfact> 0.20220563E+00</totfact>
</mgrwt>
</event>
<event>
 6    1  0.2621924E-005  0.3680917E+04  0.7818608E-02  0.8072204E-01
          2   -1    0    0  501    0  0.00000000000E+00  0.00000000000E+00  0.23448887021E+04  0.23448887021E+04  0.00000000000E+00 0. -1.
         -2   -1    0    0    0  501 -0.00000000000E+00 -0.00000000000E+00 -0.14445406080E+04  0.14445406080E+04  0.00000000000E+00 0.  1.
         23    2    1    2    0    0 -0.69051088704E+02 -0.13613831099E+04  0.17217411563E+04  0.21979461693E+04  0.91884325300E+02 0.  0.
         11    1    3    3    0    0 -0.54851731561E+02 -0.82649181702E+03  0.11143866631E+04  0.13885082178E+04  0.00000000000E+00 0. -1.
        -11    1    3    3    0    0 -0.14199357143E+02 -0.53489129292E+03  0.60735449315E+03  0.80943795150E+03  0.00000000000E+00 0.  1.
         22    1    1    2    0    0  0.69051088704E+02  0.13613831099E+04 -0.82139306216E+03  0.15914831408E+04  0.00000000000E+00 0. -1.
<mgrwt>
<rscale>  0 0.36809167E+04</rscale>
<asrwt>0</asrwt>
<pdfrwt beam="1">  1        2 0.36075211E+00 0.36809167E+04</pdfrwt>
<pdfrwt beam="2">  1       -2 0.22223702E+00 0.36809167E+04</pdfrwt>
<totfact> 0.33110690E-01</totfact>
</mgrwt>
</event>
<event>
 6    1  0.2236204E-005  0.3001469E+04  0.7818608E-02  0.8243312E-01
          2   -1    0    0  501    0  0.00000000000E+00  0.00000000000E+00  0.15915234417E+04  0.15915234417E+04  0.00000000000E+00 0. -1.
         -2   -1    0    0    0  501 -0.00000000000E+00 -0.00000000000E+00 -0.14151243623E+04  0.14151243623E+04  0.00000000000E+00 0.  1.
         23    2    1    2    0    0  0.13157223995E+04  0.66607688881E+03 -0.18336018688E+03  0.14886851615E+04  0.88196924793E+02 0.  0.
         11    1    3    3    0    0  0.90795230186E+03  0.43566474051E+03 -0.16037986211E+03  0.10197562693E+04  0.00000000000E+00 0. -1.
        -11    1    3    3    0    0  0.40777009762E+03  0.23041214830E+03 -0.22980324769E+02  0.46892889218E+03  0.00000000000E+00 0.  1.
         22    1    1    2    0    0 -0.13157223995E+04 -0.66607688881E+03  0.35975926635E+03  0.15179626425E+04  0.00000000000E+00 0. -1.
<mgrwt>
<rscale>  0 0.30014687E+04</rscale>
<asrwt>0</asrwt>
<pdfrwt beam="1">  1        2 0.24484976E+00 0.30014687E+04</pdfrwt>
<pdfrwt beam="2">  1       -2 0.21771144E+00 0.30014687E+04</pdfrwt>
<totfact> 0.98630559E-01</totfact>
</mgrwt>
</event>
<event>
 6    1  0.2236204E-005  0.1838891E+04  0.7818608E-02  0.8685887E-01
          2   -1    0    0  501    0  0.00000000000E+00  0.00000000000E+00  0.13907615428E+04  0.13907615428E+04  0.00000000000E+00 0. -1.
         -2   -1    0    0    0  501 -0.00000000000E+00 -0.00000000000E+00 -0.60785376563E+03  0.60785376563E+03  0.00000000000E+00 0.  1.
         23    2    1    2    0    0 -0.85978435373E+03  0.28629099167E+03  0.54975163150E+03  0.10629051743E+04  0.79679900037E+02 0.  0.
         13    1    3    3    0    0 -0.19126133635E+03  0.68609620217E+02  0.16290668700E+03  0.26043572612E+03  0.00000000000E+00 0. -1.
        -13    1    3    3    0    0 -0.66852301738E+03  0.21768137145E+03  0.38684494450E+03  0.80246944822E+03  0.00000000000E+00 0.  1.
         22    1    1    2    0    0  0.85978435373E+03 -0.28629099167E+03  0.23315614569E+03  0.93571013412E+03  0.00000000000E+00 0.  1.
<mgrwt>
<rscale>  0 0.18388906E+04</rscale>
<asrwt>0</asrwt>
<pdfrwt beam="1">  1        2 0.21396331E+00 0.18388906E+04</pdfrwt>
<pdfrwt beam="2">  1       -2 0.93515964E-01 0.18388906E+04</pdfrwt>
<totfact> 0.13331250E+01</totfact>
</mgrwt>
</event>
<event>
 6    1  0.2236204E-005  0.1858520E+04  0.7818608E-02  0.8675783E-01
         -1   -1    0    0    0  501 -0.00000000000E+00  0.00000000000E+00  0.30165408365E+03  0.30165408365E+03  0.00000000000E+00 0.  1.
          1   -1    0    0  501    0  0.00000000000E+00 -0.00000000000E+00 -0.28626311457E+04  0.28626311457E+04  0.00000000000E+00 0. -1.
         23    2    1    2    0    0  0.79401396265E+03  0.41444961865E+03 -0.87669376649E+03  0.12566592495E+04  0.91508742137E+02 0.  0.
         13    1    3    3    0    0  0.60095184108E+03  0.34746461691E+03 -0.64294350140E+03  0.94617710884E+03  0.00000000000E+00 0. -1.
        -13    1    3    3    0    0  0.19306212157E+03  0.66985001739E+02 -0.23375026509E+03  0.31048214067E+03  0.00000000000E+00 0.  1.
         22    1    1    2    0    0 -0.79401396265E+03 -0.41444961865E+03 -0.16842832956E+04  0.19076259799E+04  0.00000000000E+00 0. -1.
<mgrwt>
<rscale>  0 0.18585202E+04</rscale>
<asrwt>0</asrwt>
<pdfrwt beam="1">  1        1 0.44040481E+00 0.18585202E+04</pdfrwt>
<pdfrwt beam="2">  1       -1 0.46408318E-01 0.18585202E+04</pdfrwt>
<totfact> 0.32689873E+00</totfact>
</mgrwt>
</event>
<event>
 6    1  0.2236204E-005  0.3775370E+04  0.7818608E-02  0.8051461E-01
          2   -1    0    0  501    0  0.00000000000E+00  0.00000000000E+00  0.19484339791E+04  0.19484339791E+04  0.00000000000E+00 0. -1.
         -2   -1    0    0    0  501 -0.00000000000E+00 -0.00000000000E+00 -0.18288296698E+04  0.18288296698E+04  0.00000000000E+00 0.  1.
         23    2    1    2    0    0 -0.12413326115E+04 -0.57184538359E+03 -0.12412917988E+04  0.18485459371E+04  0.91667642581E+02 0.  0.
         11    1    3    3    0    0 -0.70216199980E+03 -0.36628037951E+03 -0.74923338551E+03  0.10902034014E+04  0.00000000000E+00 0.  1.
        -11    1    3    3    0    0 -0.53917061168E+03 -0.20556500408E+03 -0.49205841330E+03  0.75834253573E+03  0.00000000000E+00 0. -1.
         22    1    1    2    0    0  0.12413326115E+04  0.57184538359E+03  0.13608961080E+04  0.19287177118E+04  0.00000000000E+00 0. -1.
<mgrwt>
<rscale>  0 0.37753696E+04</rscale>
<asrwt>0</asrwt>
<pdfrwt beam="1">  1        2 0.29975907E+00 0.37753696E+04</pdfrwt>
<pdfrwt beam="2">  1       -2 0.28135841E+00 0.37753696E+04</pdfrwt>
<totfact> 0.23693318E-01</totfact>
</mgrwt>
</event>
<event>
 6    1  0.2236204E-005  0.9192131E+03  0.7818608E-02  0.9401878E-01
         -2   -1    0    0    0  501 -0.00000000000E+00  0.00000000000E+00  0.17883475874E+03  0.17883475874E+03  0.00000000000E+00 0.  1.
          2   -1    0    0  501    0  0.00000000000E+00 -0.00000000000E+00 -0.11811918815E+04  0.11811918815E+04  0.00000000000E+00 0. -1.
         23    2    1    2    0    0  0.11036553953E+03 -0.29375316379E+03 -0.18809792711E+02  0.32763290527E+03  0.92293221648E+02 0.  0.
         13    1    3    3    0    0  0.30371552358E+02 -0.11129818379E+03  0.36276229487E+02  0.12093668481E+03  0.00000000000E+00 0. -1.
        -13    1    3    3    0    0  0.79993987175E+02 -0.18245498000E+03 -0.55086022197E+02  0.20669622046E+03  0.00000000000E+00 0.  1.
         22    1    1    2    0    0 -0.11036553953E+03  0.29375316379E+03 -0.98354733008E+03  0.10323937350E+04  0.00000000000E+00 0. -1.
<mgrwt>
<rscale>  0 0.91921307E+03</rscale>
<asrwt>0</asrwt>
<pdfrwt beam="1">  1        2 0.18172183E+00 0.91921307E+03</pdfrwt>
<pdfrwt beam="2">  1       -2 0.27513040E-01 0.91921307E+03</pdfrwt>
<totfact> 0.23414649E+02</totfact>
</mgrwt>
</event>
<event>
 6    1  0.2236204E-005  0.1155740E+04  0.7818608E-02  0.9152504E-01
         -1   -1    0    0    0  501 -0.00000000000E+00  0.00000000000E+00  0.30148925635E+03  0.30148925635E+03  0.00000000000E+00 0.  1.
          1   -1    0    0  501    0  0.00000000000E+00 -0.00000000000E+00 -0.11076140938E+04  0.11076140938E+04  0.00000000000E+00 0. -1.
         23    2    1    2    0    0 -0.40137038687E+03  0.91028393849E+00 -0.90520469877E+03  0.99568366626E+03  0.10436187284E+03 0.  0.
         11    1    3    3    0    0 -0.13389474962E+03  0.30357655137E+02 -0.40580017782E+03  0.42839604985E+03  0.00000000000E+00 0.  1.
        -11    1    3    3    0    0 -0.26747563725E+03 -0.29447371198E+02 -0.49940452095E+03  0.56728761641E+03  0.00000000000E+00 0. -1.
         22    1    1    2    0    0  0.40137038687E+03 -0.91028393849E+00  0.99079861359E+02  0.41341968386E+03  0.00000000000E+00 0.  1.
<mgrwt>
<rscale>  0 0.11557400E+04</rscale>
<asrwt>0</asrwt>
<pdfrwt beam="1">  1        1 0.17040217E+00 0.11557400E+04</pdfrwt>
<pdfrwt beam="2">  1       -1 0.46382963E-01 0.11557400E+04</pdfrwt>
<totfact> 0.57453529E+01</totfact>
</mgrwt>
</event>
<event>
 6    1  0.2236204E-005  0.2018009E+04  0.7818608E-02  0.8598247E-01
          1   -1    0    0  501    0  0.00000000000E+00  0.00000000000E+00  0.16731635413E+04  0.16731635413E+04  0.00000000000E+00 0. -1.
         -1   -1    0    0    0  501 -0.00000000000E+00 -0.00000000000E+00 -0.60848207418E+03  0.60848207418E+03  0.00000000000E+00 0.  1.
         23    2    1    2    0    0 -0.65429933165E+03  0.68846410990E+03  0.91152894020E+03  0.13195925283E+04  0.91372785955E+02 0.  0.
         11    1    3    3    0    0 -0.45803074140E+03  0.48614001270E+03  0.69696023226E+03  0.96533819844E+03  0.00000000000E+00 0.  1.
        -11    1    3    3    0    0 -0.19626859025E+03  0.20232409720E+03  0.21456870794E+03  0.35425432990E+03  0.00000000000E+00 0. -1.
         22    1    1    2    0    0  0.65429933165E+03 -0.68846410990E+03  0.15315252695E+03  0.96205308717E+03  0.00000000000E+00 0.  1.
<mgrwt>
<rscale>  0 0.20180089E+04</rscale>
<asrwt>0</asrwt>
<pdfrwt beam="1">  1        1 0.25740977E+00 0.20180089E+04</pdfrwt>
<pdfrwt beam="2">  1       -1 0.93612627E-01 0.20180089E+04</pdfrwt>
<totfact> 0.50955330E+00</totfact>
</mgrwt>
</event>
<event>
 6    1  0.2236204E-005  0.1043371E+04  0.7818608E-02  0.9262215E-01
         -2   -1    0    0    0  501 -0.00000000000E+00  0.00000000000E+00  0.25912313272E+03  0.25912313272E+03  0.00000000000E+00 0.  1.
          2   -1    0    0  501    0  0.00000000000E+00 -0.00000000000E+00 -0.10502945985E+04  0.10502945985E+04  0.00000000000E+00 0. -1.
         23    2    1    2    0    0 -0.23817037821E+03  0.31202639246E+02 -0.97382732819E+03  0.10076530914E+04  0.96573049018E+02 0.  0.
         13    1    3    3    0    0 -0.95246327892E+02  0.56296792846E+02 -0.34531288365E+03  0.36260471519E+03  0.00000000000E+00 0. -1.
        -13    1    3    3    0    0 -0.14292405032E+03 -0.25094153601E+02 -0.62851444454E+03  0.64504837624E+03  0.00000000000E+00 0.  1.
         22    1    1    2    0    0  0.23817037821E+03 -0.31202639246E+02  0.18265586240E+03  0.30176463978E+03  0.00000000000E+00 0.  1.
<mgrwt>
<rscale>  0 0.10433707E+04</rscale>
<asrwt>0</asrwt>
<pdfrwt beam="1">  1        2 0.16158379E+00 0.10433707E+04</pdfrwt>
<pdfrwt beam="2">  1       -2 0.39865097E-01 0.10433707E+04</pdfrwt>
<totfact> 0.13863809E+02</totfact>
</mgrwt>
</event>
<event>
 6    1  0.2236204E-005  0.2154268E+04  0.7818608E-02  0.8537707E-01
         -1   -1    0    0    0  501 -0.00000000000E+00  0.00000000000E+00  0.25904154938E+04  0.25904154938E+04  0.00000000000E+00 0.  1.
          1   -1    0    0  501    0  0.00000000000E+00 -0.00000000000E+00 -0.44788877935E+03  0.44788877935E+03  0.00000000000E+00 0. -1.
         23    2    1    2    0    0 -0.98161379955E+02  0.10479555873E+04  0.13829481333E+04  0.17403034294E+04  0.90906092999E+02 0.  0.
         11    1    3    3    0    0 -0.10945033009E+03  0.75353493783E+03  0.10178883669E+04  0.12711770155E+04  0.00000000000E+00 0. -1.
        -11    1    3    3    0    0  0.11288950137E+02  0.29442064942E+03  0.36505976640E+03  0.46912641393E+03  0.00000000000E+00 0.  1.
         22    1    1    2    0    0  0.98161379955E+02 -0.10479555873E+04  0.75957858116E+03  0.12980008437E+04  0.00000000000E+00 0. -1.
<mgrwt>
<rscale>  0 0.21542684E+04</rscale>
<asrwt>0</asrwt>
<pdfrwt beam="1">  1        1 0.68905967E-01 0.21542684E+04</pdfrwt>
<pdfrwt beam="2">  1       -1 0.39852545E+00 0.21542684E+04</pdfrwt>
<totfact> 0.34574567E-01</totfact>
</mgrwt>
</event>
<event>
 6    1  0.2236204E-005  0.2513295E+04  0.7818608E-02  0.8398264E-01
          2   -1    0    0  501    0  0.00000000000E+00  0.00000000000E+00  0.37929990052E+04  0.37929990052E+04  0.00000000000E+00 0.  1.
         -2   -1    0    0    0  501 -0.00000000000E+00 -0.00000000000E+00 -0.41633638830E+03  0.41633638830E+03  0.00000000000E+00 0. -1.
         23    2    1    2    0    0  0.10726120391E+04 -0.39456067271E+03  0.25589256905E+04  0.28040352862E+04  0.91315310654E+02 0.  0.
         11    1    3    3    0    0  0.14515157678E+03 -0.27745481645E+02  0.28636295653E+03  0.32224607812E+03  0.00000000000E+00 0. -1.
        -11    1    3    3    0    0  0.92746046230E+03 -0.36681519106E+03  0.22725627339E+04  0.24817892081E+04  0.00000000000E+00 0.  1.
         22    1    1    2    0    0 -0.10726120391E+04  0.39456067271E+03  0.81773692646E+03  0.14053001074E+04  0.00000000000E+00 0. -1.
<mgrwt>
<rscale>  0 0.25132955E+04</rscale>
<asrwt>0</asrwt>
<pdfrwt beam="1">  1        2 0.58353828E+00 0.25132955E+04</pdfrwt>
<pdfrwt beam="2">  1       -2 0.64051755E-01 0.25132955E+04</pdfrwt>
<totfact> 0.10003519E+00</totfact>
</mgrwt>
</event>
<event>
 6    1  0.2236204E-005  0.2624318E+04  0.7818608E-02  0.8359988E-01
         -2   -1    0    0    0  501 -0.00000000000E+00  0.00000000000E+00  0.17033580380E+04  0.17033580380E+04  0.00000000000E+00 0.  1.
          2   -1    0    0  501    0  0.00000000000E+00 -0.00000000000E+00 -0.10108037340E+04  0.10108037340E+04  0.00000000000E+00 0. -1.
         23    2    1    2    0    0  0.24171490121E+03 -0.33452422747E+03 -0.93985386526E+03  0.10303895240E+04  0.89692423600E+02 0.  0.
         11    1    3    3    0    0  0.57498276842E+02 -0.13670327034E+03 -0.40079237098E+03  0.42735039557E+03  0.00000000000E+00 0. -1.
        -11    1    3    3    0    0  0.18421662436E+03 -0.19782095713E+03 -0.53906149428E+03  0.60303912841E+03  0.00000000000E+00 0.  1.
         22    1    1    2    0    0 -0.24171490121E+03  0.33452422747E+03  0.16324081692E+04  0.16837722480E+04  0.00000000000E+00 0.  1.
<mgrwt>
<rscale>  0 0.26243176E+04</rscale>
<asrwt>0</asrwt>
<pdfrwt beam="1">  1        2 0.15550827E+00 0.26243176E+04</pdfrwt>
<pdfrwt beam="2">  1       -2 0.26205508E+00 0.26243176E+04</pdfrwt>
<totfact> 0.11860384E+00</totfact>
</mgrwt>
</event>
<event>
 6    1  0.3331165E-005  0.2705021E+04  0.7818608E-02  0.8333378E-01
         -2   -1    0    0    0  501 -0.00000000000E+00  0.00000000000E+00  0.85988333653E+03  0.85988333653E+03  0.00000000000E+00 0.  1.
          2   -1    0    0  501    0  0.00000000000E+00 -0.00000000000E+00 -0.21273642553E+04  0.21273642553E+04  0.00000000000E+00 0. -1.
         23    2    1    2    0    0 -0.21518628831E+03  0.12400600709E+04 -0.11769781196E+04  0.17254057338E+04  0.87711654240E+02 0.  0.
         11    1    3    3    0    0 -0.18137368820E+03  0.82230540190E+03 -0.80749216218E+03  0.11666731251E+04  0.00000000000E+00 0.  1.
        -11    1    3    3    0    0 -0.33812600102E+02  0.41775466895E+03 -0.36948595742E+03  0.55873260875E+03  0.00000000000E+00 0. -1.
         22    1    1    2    0    0  0.21518628831E+03 -0.12400600709E+04 -0.90502799175E+02  0.12618418580E+04  0.00000000000E+00 0.  1.
<mgrwt>
<rscale>  0 0.27050213E+04</rscale>
<asrwt>0</asrwt>
<pdfrwt beam="1">  1        2 0.32728680E+00 0.27050213E+04</pdfrwt>
<pdfrwt beam="2">  1       -2 0.13228975E+00 0.27050213E+04</pdfrwt>
<totfact> 0.20665583E+00</totfact>
</mgrwt>
</event>
<event>
 6    1  0.2236204E-005  0.1769023E+04  0.7818608E-02  0.8722948E-01
         -2   -1    0    0    0  501 -0.00000000000E+00  0.00000000000E+00  0.66160564472E+03  0.66160564472E+03  0.00000000000E+00 0.  1.
          2   -1    0    0  501    0  0.00000000000E+00 -0.00000000000E+00 -0.11825180263E+04  0.11825180263E+04  0.00000000000E+00 0. -1.
         23    2    1    2    0    0 -0.35341815888E+02 -0.34565250801E+03 -0.11064363626E+04  0.11632690371E+04  0.90932545724E+02 0.  0.
         13    1    3    3    0    0  0.23261380912E+02 -0.19038848780E+03 -0.64399162397E+03  0.67194797408E+03  0.00000000000E+00 0. -1.
        -13    1    3    3    0    0 -0.58603196800E+02 -0.15526402021E+03 -0.46244473863E+03  0.49132106298E+03  0.00000000000E+00 0.  1.
         22    1    1    2    0    0  0.35341815888E+02  0.34565250801E+03  0.58552398101E+03  0.68085463396E+03  0.00000000000E+00 0.  1.
<mgrwt>
<rscale>  0 0.17690230E+04</rscale>
<asrwt>0</asrwt>
<pdfrwt beam="1">  1        2 0.18192585E+00 0.17690230E+04</pdfrwt>
<pdfrwt beam="2">  1       -2 0.10178548E+00 0.17690230E+04</pdfrwt>
<totfact> 0.14545096E+01</totfact>
</mgrwt>
</event>
<event>
 6    1  0.2236204E-005  0.3917106E+04  0.7818608E-02  0.8021481E-01
         -2   -1    0    0    0  501 -0.00000000000E+00  0.00000000000E+00  0.31258468665E+04  0.31258468665E+04  0.00000000000E+00 0.  1.
          2   -1    0    0  501    0  0.00000000000E+00 -0.00000000000E+00 -0.12271650610E+04  0.12271650610E+04  0.00000000000E+00 0. -1.
         23    2    1    2    0    0  0.43334260778E+03 -0.13034722447E+04  0.24997011351E+04  0.28536620874E+04  0.89754305823E+02 0.  0.
         13    1    3    3    0    0  0.68408870926E+02 -0.19143577881E+03  0.43913373413E+03  0.48390687894E+03  0.00000000000E+00 0. -1.
        -13    1    3    3    0    0  0.36493373685E+03 -0.11120364659E+04  0.20605674010E+04  0.23697552084E+04  0.00000000000E+00 0.  1.
         22    1    1    2    0    0 -0.43334260778E+03  0.13034722447E+04 -0.60101932964E+03  0.14993498401E+04  0.00000000000E+00 0. -1.
<mgrwt>
<rscale>  0 0.39171061E+04</rscale>
<asrwt>0</asrwt>
<pdfrwt beam="1">  1        2 0.18879463E+00 0.39171061E+04</pdfrwt>
<pdfrwt beam="2">  1       -2 0.48089951E+00 0.39171061E+04</pdfrwt>
<totfact> 0.31588581E-02</totfact>
</mgrwt>
</event>
<event>
 6    1  0.2236204E-005  0.3179184E+04  0.7818608E-02  0.8194336E-01
          2   -1    0    0  501    0  0.00000000000E+00  0.00000000000E+00  0.11246959467E+04  0.11246959467E+04  0.00000000000E+00 0. -1.
         -2   -1    0    0    0  501 -0.00000000000E+00 -0.00000000000E+00 -0.22466543483E+04  0.22466543483E+04  0.00000000000E+00 0.  1.
         23    2    1    2    0    0  0.22248123069E+03 -0.81001679142E+03  0.86807072658E+03  0.12112945015E+04  0.89791328108E+02 0.  0.
         13    1    3    3    0    0  0.17797559170E+03 -0.48292383103E+03  0.53272445738E+03  0.74073347792E+03  0.00000000000E+00 0. -1.
        -13    1    3    3    0    0  0.44505638986E+02 -0.32709296039E+03  0.33534626920E+03  0.47056102357E+03  0.00000000000E+00 0.  1.
         22    1    1    2    0    0 -0.22248123069E+03  0.81001679142E+03 -0.19900291282E+04  0.21600557936E+04  0.00000000000E+00 0.  1.
<mgrwt>
<rscale>  0 0.31791842E+04</rscale>
<asrwt>0</asrwt>
<pdfrwt beam="1">  1        2 0.17303014E+00 0.31791842E+04</pdfrwt>
<pdfrwt beam="2">  1       -2 0.34563913E+00 0.31791842E+04</pdfrwt>
<totfact> 0.29399592E-01</totfact>
</mgrwt>
</event>
<event>
 6    1  0.2236204E-005  0.3878215E+04  0.7818608E-02  0.8029575E-01
         -2   -1    0    0    0  501 -0.00000000000E+00  0.00000000000E+00  0.18062731116E+04  0.18062731116E+04  0.00000000000E+00 0.  1.
          2   -1    0    0  501    0  0.00000000000E+00 -0.00000000000E+00 -0.20817109273E+04  0.20817109273E+04  0.00000000000E+00 0. -1.
         23    2    1    2    0    0 -0.11686526822E+04 -0.44818057563E+03 -0.16211783278E+04  0.20501504104E+04  0.91008871626E+02 0.  0.
         13    1    3    3    0    0 -0.47062665330E+03 -0.13864236226E+03 -0.66888346093E+03  0.82952771847E+03  0.00000000000E+00 0.  1.
        -13    1    3    3    0    0 -0.69802602890E+03 -0.30953821338E+03 -0.95229486686E+03  0.12206226919E+04  0.00000000000E+00 0. -1.
         22    1    1    2    0    0  0.11686526822E+04  0.44818057563E+03  0.13457405121E+04  0.18378336285E+04  0.00000000000E+00 0.  1.
<mgrwt>
<rscale>  0 0.38782153E+04</rscale>
<asrwt>0</asrwt>
<pdfrwt beam="1">  1        2 0.32026322E+00 0.38782153E+04</pdfrwt>
<pdfrwt beam="2">  1       -2 0.27788817E+00 0.38782153E+04</pdfrwt>
<totfact> 0.20792604E-01</totfact>
</mgrwt>
</event>
<event>
 6    1  0.2236204E-005  0.1550592E+04  0.7818608E-02  0.8851489E-01
         -2   -1    0    0    0  501 -0.00000000000E+00  0.00000000000E+00  0.30702411653E+03  0.30702411653E+03  0.00000000000E+00 0.  1.
          2   -1    0    0  501    0  0.00000000000E+00 -0.00000000000E+00 -0.19577753705E+04  0.19577753705E+04  0.00000000000E+00 0. -1.
         23    2    1    2    0    0 -0.51020995292E+03 -0.34911013624E+03 -0.15049998155E+04  0.16296337094E+04  0.92138476638E+02 0.  0.
         11    1    3    3    0    0 -0.17961416024E+03 -0.10832145876E+03 -0.40562311531E+03  0.45664526349E+03  0.00000000000E+00 0. -1.
        -11    1    3    3    0    0 -0.33059579267E+03 -0.24078867748E+03 -0.10993767001E+04  0.11729884459E+04  0.00000000000E+00 0.  1.
         22    1    1    2    0    0  0.51020995292E+03  0.34911013624E+03 -0.14575143851E+03  0.63516577766E+03  0.00000000000E+00 0.  1.
<mgrwt>
<rscale>  0 0.15505925E+04</rscale>
<asrwt>0</asrwt>
<pdfrwt beam="1">  1        2 0.30119623E+00 0.15505925E+04</pdfrwt>
<pdfrwt beam="2">  1       -2 0.47234477E-01 0.15505925E+04</pdfrwt>
<totfact> 0.28842838E+01</totfact>
</mgrwt>
</event>
<event>
 6    1  0.2236204E-005  0.3232155E+04  0.7818608E-02  0.8180376E-01
         -2   -1    0    0    0  501 -0.00000000000E+00  0.00000000000E+00  0.10790223331E+04  0.10790223331E+04  0.00000000000E+00 0.  1.
          2   -1    0    0  501    0  0.00000000000E+00 -0.00000000000E+00 -0.24204377196E+04  0.24204377196E+04  0.00000000000E+00 0. -1.
         23    2    1    2    0    0 -0.75967527612E+03 -0.10542410537E+03  0.86739836526E+03  0.11612814973E+04  0.89297394611E+02 0.  0.
         13    1    3    3    0    0 -0.25396514331E+03 -0.77756915428E+02  0.30574715413E+03  0.40500093107E+03  0.00000000000E+00 0. -1.
        -13    1    3    3    0    0 -0.50571013281E+03 -0.27667189938E+02  0.56165121114E+03  0.75628056619E+03  0.00000000000E+00 0.  1.
         22    1    1    2    0    0  0.75967527612E+03  0.10542410537E+03 -0.22088137518E+04  0.23381785555E+04  0.00000000000E+00 0. -1.
<mgrwt>
<rscale>  0 0.32321549E+04</rscale>
<asrwt>0</asrwt>
<pdfrwt beam="1">  1        2 0.37237503E+00 0.32321549E+04</pdfrwt>
<pdfrwt beam="2">  1       -2 0.16600344E+00 0.32321549E+04</pdfrwt>
<totfact> 0.73980152E-01</totfact>
</mgrwt>
</event>
<event>
 6    1  0.3291654E-005  0.4486955E+04  0.7818608E-02  0.7912925E-01
         -2   -1    0    0    0  501 -0.00000000000E+00  0.00000000000E+00  0.23849077044E+04  0.23849077044E+04  0.00000000000E+00 0.  1.
          2   -1    0    0  501    0  0.00000000000E+00 -0.00000000000E+00 -0.21104346067E+04  0.21104346067E+04  0.00000000000E+00 0. -1.
         23    2    1    2    0    0 -0.62949192760E+03 -0.21465429168E+04  0.29491748465E+03  0.22583075431E+04  0.95236841330E+02 0.  0.
         13    1    3    3    0    0 -0.27385781108E+03 -0.78804813940E+03  0.88839800863E+02  0.83899373116E+03  0.00000000000E+00 0. -1.
        -13    1    3    3    0    0 -0.35563411652E+03 -0.13584947774E+04  0.20607768379E+03  0.14193138119E+04  0.00000000000E+00 0.  1.
         22    1    1    2    0    0  0.62949192760E+03  0.21465429168E+04 -0.20444386960E+02  0.22370347681E+04  0.00000000000E+00 0. -1.
<mgrwt>
<rscale>  0 0.44869552E+04</rscale>
<asrwt>0</asrwt>
<pdfrwt beam="1">  1        2 0.32468225E+00 0.44869552E+04</pdfrwt>
<pdfrwt beam="2">  1       -2 0.36690888E+00 0.44869552E+04</pdfrwt>
<totfact> 0.53429930E-02</totfact>
</mgrwt>
</event>
<event>
 6    1  0.2236204E-005  0.4671128E+03  0.7818608E-02  0.1022738E+00
         -2   -1    0    0    0  501 -0.00000000000E+00  0.00000000000E+00  0.84693244377E+02  0.84693244377E+02  0.00000000000E+00 0.  1.
          2   -1    0    0  501    0  0.00000000000E+00 -0.00000000000E+00 -0.64407240196E+03  0.64407240196E+03  0.00000000000E+00 0. -1.
         23    2    1    2    0    0 -0.12539304952E+03 -0.15248830335E+03 -0.45730161789E+03  0.50651370903E+03  0.91952532232E+02 0.  0.
         13    1    3    3    0    0 -0.51463313195E+02 -0.63363039666E+02 -0.90534916463E+02  0.12190126537E+03  0.00000000000E+00 0. -1.
        -13    1    3    3    0    0 -0.73929736329E+02 -0.89125263681E+02 -0.36676670142E+03  0.38461244365E+03  0.00000000000E+00 0.  1.
         22    1    1    2    0    0  0.12539304952E+03  0.15248830335E+03 -0.10207753969E+03  0.22225193731E+03  0.00000000000E+00 0.  1.
<mgrwt>
<rscale>  0 0.46711275E+03</rscale>
<asrwt>0</asrwt>
<pdfrwt beam="1">  1        2 0.99088062E-01 0.46711275E+03</pdfrwt>
<pdfrwt beam="2">  1       -2 0.13029730E-01 0.46711275E+03</pdfrwt>
<totfact> 0.20143074E+03</totfact>
</mgrwt>
</event>
<event>
 6    1  0.2236204E-005  0.3093296E+04  0.7818608E-02  0.8217580E-01
          1   -1    0    0  501    0  0.00000000000E+00  0.00000000000E+00  0.17651144044E+04  0.17651144044E+04  0.00000000000E+00 0. -1.
         -1   -1    0    0    0  501 -0.00000000000E+00 -0.00000000000E+00 -0.13552208682E+04  0.13552208682E+04  0.00000000000E+00 0.  1.
         23    2    1    2    0    0 -0.44490937613E+03 -0.54136886455E+03  0.15933737660E+04  0.17449625758E+04  0.12259621605E+03 0.  0.
         13    1    3    3    0    0 -0.33343176223E+03 -0.41666216900E+03  0.13287186922E+04  0.14318789984E+04  0.00000000000E+00 0. -1.
        -13    1    3    3    0    0 -0.11147761389E+03 -0.12470669555E+03  0.26465507385E+03  0.31308357738E+03  0.00000000000E+00 0.  1.
         22    1    1    2    0    0  0.44490937613E+03  0.54136886455E+03 -0.11834802299E+04  0.13753726968E+04  0.00000000000E+00 0.  1.
<mgrwt>
<rscale>  0 0.30932959E+04</rscale>
<asrwt>0</asrwt>
<pdfrwt beam="1">  1        1 0.27155606E+00 0.30932959E+04</pdfrwt>
<pdfrwt beam="2">  1       -1 0.20849552E+00 0.30932959E+04</pdfrwt>
<totfact> 0.47820889E-01</totfact>
</mgrwt>
</event>
<event>
 6    1  0.2236204E-005  0.1665027E+04  0.7818608E-02  0.8781566E-01
         -1   -1    0    0    0  501 -0.00000000000E+00  0.00000000000E+00  0.24689914754E+04  0.24689914754E+04  0.00000000000E+00 0.  1.
          1   -1    0    0  501    0  0.00000000000E+00 -0.00000000000E+00 -0.28071328132E+03  0.28071328132E+03  0.00000000000E+00 0. -1.
         23    2    1    2    0    0  0.42086638351E+03 -0.70421999390E+03  0.90183551928E+03  0.12239298493E+04  0.10790115666E+03 0.  0.
         11    1    3    3    0    0  0.21634385814E+03 -0.27746867834E+03  0.33896926869E+03  0.48856289005E+03  0.00000000000E+00 0.  1.
        -11    1    3    3    0    0  0.20452252537E+03 -0.42675131555E+03  0.56286625059E+03  0.73536695926E+03  0.00000000000E+00 0. -1.
         22    1    1    2    0    0 -0.42086638351E+03  0.70421999390E+03  0.12864426748E+04  0.15257749074E+04  0.00000000000E+00 0.  1.
<mgrwt>
<rscale>  0 0.16650270E+04</rscale>
<asrwt>0</asrwt>
<pdfrwt beam="1">  1        1 0.43186660E-01 0.16650270E+04</pdfrwt>
<pdfrwt beam="2">  1       -1 0.37984483E+00 0.16650270E+04</pdfrwt>
<totfact> 0.89885587E-01</totfact>
</mgrwt>
</event>
<event>
 6    1  0.2236204E-005  0.2289391E+04  0.7818608E-02  0.8482116E-01
         -2   -1    0    0    0  501 -0.00000000000E+00  0.00000000000E+00  0.50371909180E+03  0.50371909180E+03  0.00000000000E+00 0.  1.
          2   -1    0    0  501    0  0.00000000000E+00 -0.00000000000E+00 -0.26013066241E+04  0.26013066241E+04  0.00000000000E+00 0. -1.
         23    2    1    2    0    0  0.50695201008E+03 -0.53147639847E+03 -0.22380255225E+04  0.23572354166E+04  0.91285634489E+02 0.  0.
         11    1    3    3    0    0  0.49425038048E+03 -0.48880833160E+03 -0.20818407949E+04  0.21948298611E+04  0.00000000000E+00 0.  1.
        -11    1    3    3    0    0  0.12701629601E+02 -0.42668066867E+02 -0.15618472758E+03  0.16240555549E+03  0.00000000000E+00 0. -1.
         22    1    1    2    0    0 -0.50695201008E+03  0.53147639847E+03  0.14043799022E+03  0.74779029932E+03  0.00000000000E+00 0.  1.
<mgrwt>
<rscale>  0 0.22893910E+04</rscale>
<asrwt>0</asrwt>
<pdfrwt beam="1">  1        2 0.40020103E+00 0.22893910E+04</pdfrwt>
<pdfrwt beam="2">  1       -2 0.77495243E-01 0.22893910E+04</pdfrwt>
<totfact> 0.40925623E+00</totfact>
</mgrwt>
</event>
<event>
 6    1  0.2236204E-005  0.2008347E+04  0.7818608E-02  0.8602728E-01
         -1   -1    0    0    0  501 -0.00000000000E+00  0.00000000000E+00  0.10637891039E+04  0.10637891039E+04  0.00000000000E+00 0.  1.
          1   -1    0    0  501    0  0.00000000000E+00 -0.00000000000E+00 -0.94789903733E+03  0.94789903733E+03  0.00000000000E+00 0. -1.
         23    2    1    2    0    0  0.39625429812E+03  0.55716960166E+02 -0.86222829317E+03  0.95488287340E+03  0.90784491688E+02 0.  0.
         13    1    3    3    0    0  0.15002785128E+03  0.64559436719E+02 -0.31854458914E+03  0.35797616164E+03  0.00000000000E+00 0. -1.
        -13    1    3    3    0    0  0.24622644685E+03 -0.88424765532E+01 -0.54368370403E+03  0.59690671176E+03  0.00000000000E+00 0.  1.
         22    1    1    2    0    0 -0.39625429812E+03 -0.55716960166E+02  0.97811835971E+03  0.10568052678E+04  0.00000000000E+00 0.  1.
<mgrwt>
<rscale>  0 0.20083472E+04</rscale>
<asrwt>0</asrwt>
<pdfrwt beam="1">  1        1 0.14583062E+00 0.20083472E+04</pdfrwt>
<pdfrwt beam="2">  1       -1 0.16365986E+00 0.20083472E+04</pdfrwt>
<totfact> 0.42301807E+00</totfact>
</mgrwt>
</event>
<event>
 6    1  0.2236204E-005  0.1771687E+04  0.7818608E-02  0.8721503E-01
          2   -1    0    0  501    0  0.00000000000E+00  0.00000000000E+00  0.12952587191E+04  0.12952587191E+04  0.00000000000E+00 0. -1.
         -2   -1    0    0    0  501 -0.00000000000E+00 -0.00000000000E+00 -0.60583925903E+03  0.60583925903E+03  0.00000000000E+00 0.  1.
         23    2    1    2    0    0 -0.58322910696E+01 -0.87272880234E+03  0.19743112340E+03  0.89922867457E+03  0.89126778357E+02 0.  0.
         11    1    3    3    0    0  0.34430122037E+02 -0.25856261776E+03  0.78067118403E+02  0.27227657920E+03  0.00000000000E+00 0. -1.
        -11    1    3    3    0    0 -0.40262413106E+02 -0.61416618458E+03  0.11936400499E+03  0.62695209536E+03  0.00000000000E+00 0.  1.
         22    1    1    2    0    0  0.58322910696E+01  0.87272880234E+03  0.49198833672E+03  0.10018693036E+04  0.00000000000E+00 0. -1.
<mgrwt>
<rscale>  0 0.17716869E+04</rscale>
<asrwt>0</asrwt>
<pdfrwt beam="1">  1        2 0.19927057E+00 0.17716869E+04</pdfrwt>
<pdfrwt beam="2">  1       -2 0.93206040E-01 0.17716869E+04</pdfrwt>
<totfact> 0.15341344E+01</totfact>
</mgrwt>
</event>
<event>
 6    1  0.2236204E-005  0.3169657E+04  0.7818608E-02  0.8196877E-01
          2   -1    0    0  501    0  0.00000000000E+00  0.00000000000E+00  0.36770948801E+04  0.36770948801E+04  0.00000000000E+00 0. -1.
         -2   -1    0    0    0  501 -0.00000000000E+00 -0.00000000000E+00 -0.68306116770E+03  0.68306116770E+03  0.00000000000E+00 0.  1.
         23    2    1    2    0    0  0.12544228368E+04 -0.41476313745E+03  0.29775616960E+03  0.13575708781E+04  0.93460359057E+02 0.  0.
         13    1    3    3    0    0  0.37895965678E+03 -0.11380113909E+03  0.46993752928E+02  0.39845894837E+03  0.00000000000E+00 0.  1.
        -13    1    3    3    0    0  0.87546318004E+03 -0.30096199836E+03  0.25076241667E+03  0.95911192970E+03  0.00000000000E+00 0. -1.
         22    1    1    2    0    0 -0.12544228368E+04  0.41476313745E+03  0.26962775428E+04  0.30025851697E+04  0.00000000000E+00 0. -1.
<mgrwt>
<rscale>  0 0.31696566E+04</rscale>
<asrwt>0</asrwt>
<pdfrwt beam="1">  1        2 0.56570689E+00 0.31696566E+04</pdfrwt>
<pdfrwt beam="2">  1       -2 0.10508634E+00 0.31696566E+04</pdfrwt>
<totfact> 0.37530836E-01</totfact>
</mgrwt>
</event>
<event>
 6    1  0.2236204E-005  0.1215805E+04  0.7818608E-02  0.9099134E-01
         -1   -1    0    0    0  501 -0.00000000000E+00  0.00000000000E+00  0.21333844226E+03  0.21333844226E+03  0.00000000000E+00 0.  1.
          1   -1    0    0  501    0  0.00000000000E+00 -0.00000000000E+00 -0.17322033929E+04  0.17322033929E+04  0.00000000000E+00 0. -1.
         23    2    1    2    0    0  0.52779116834E+03 -0.26810253655E+03 -0.56638697620E+03  0.82408885831E+03  0.88801757251E+02 0.  0.
         11    1    3    3    0    0  0.18376416026E+03 -0.54487516654E+02 -0.15132743443E+03  0.24420923094E+03  0.00000000000E+00 0. -1.
        -11    1    3    3    0    0  0.34402700809E+03 -0.21361501990E+03 -0.41505954177E+03  0.57987962736E+03  0.00000000000E+00 0.  1.
         22    1    1    2    0    0 -0.52779116834E+03  0.26810253655E+03 -0.95247797448E+03  0.11214529769E+04  0.00000000000E+00 0. -1.
<mgrwt>
<rscale>  0 0.12158052E+04</rscale>
<asrwt>0</asrwt>
<pdfrwt beam="1">  1        1 0.26649283E+00 0.12158052E+04</pdfrwt>
<pdfrwt beam="2">  1       -1 0.32821299E-01 0.12158052E+04</pdfrwt>
<totfact> 0.39005394E+01</totfact>
</mgrwt>
</event>
<event>
 6    1  0.2236204E-005  0.1378128E+04  0.7818608E-02  0.8969804E-01
         -2   -1    0    0    0  501 -0.00000000000E+00  0.00000000000E+00  0.27319809653E+03  0.27319809653E+03  0.00000000000E+00 0.  1.
          2   -1    0    0  501    0  0.00000000000E+00 -0.00000000000E+00 -0.17379677380E+04  0.17379677380E+04  0.00000000000E+00 0. -1.
         23    2    1    2    0    0 -0.45622154063E+02  0.56523993629E+03 -0.17329152405E+03  0.60067184508E+03  0.95912181931E+02 0.  0.
         11    1    3    3    0    0 -0.57288577206E+02  0.16699784877E+03 -0.46535161639E+02  0.18258089671E+03  0.00000000000E+00 0. -1.
        -11    1    3    3    0    0  0.11666423143E+02  0.39824208752E+03 -0.12675636241E+03  0.41809094838E+03  0.00000000000E+00 0.  1.
         22    1    1    2    0    0  0.45622154063E+02 -0.56523993629E+03 -0.12914781175E+04  0.14104939895E+04  0.00000000000E+00 0. -1.
<mgrwt>
<rscale>  0 0.13781284E+04</rscale>
<asrwt>0</asrwt>
<pdfrwt beam="1">  1        2 0.26737965E+00 0.13781284E+04</pdfrwt>
<pdfrwt beam="2">  1       -2 0.42030477E-01 0.13781284E+04</pdfrwt>
<totfact> 0.48849643E+01</totfact>
</mgrwt>
</event>
<event>
 6    1  0.2236204E-005  0.2684016E+04  0.7818608E-02  0.8340210E-01
          2   -1    0    0  501    0  0.00000000000E+00  0.00000000000E+00  0.38533329572E+04  0.38533329572E+04  0.00000000000E+00 0. -1.
         -2   -1    0    0    0  501 -0.00000000000E+00 -0.00000000000E+00 -0.46738387329E+03  0.46738387329E+03  0.00000000000E+00 0.  1.
         23    2    1    2    0    0 -0.42829997905E+03 -0.12195329247E+04  0.22671920044E+04  0.26112377199E+04  0.87757727895E+02 0.  0.
         11    1    3    3    0    0 -0.29755813842E+03 -0.90204178954E+03  0.17323765812E+04  0.19756894632E+04  0.00000000000E+00 0. -1.
        -11    1    3    3    0    0 -0.13074184063E+03 -0.31749113517E+03  0.53481542316E+03  0.63554825674E+03  0.00000000000E+00 0.  1.
         22    1    1    2    0    0  0.42829997905E+03  0.12195329247E+04  0.11187570796E+04  0.17094791106E+04  0.00000000000E+00 0. -1.
<mgrwt>
<rscale>  0 0.26840162E+04</rscale>
<asrwt>0</asrwt>
<pdfrwt beam="1">  1        2 0.59282044E+00 0.26840162E+04</pdfrwt>
<pdfrwt beam="2">  1       -2 0.71905214E-01 0.26840162E+04</pdfrwt>
<totfact> 0.68890696E-01</totfact>
</mgrwt>
</event>
<event>
 6    1  0.2236204E-005  0.1034662E+04  0.7818608E-02  0.9271325E-01
         -2   -1    0    0    0  501 -0.00000000000E+00  0.00000000000E+00  0.12699369016E+04  0.12699369016E+04  0.00000000000E+00 0.  1.
          2   -1    0    0  501    0  0.00000000000E+00 -0.00000000000E+00 -0.21074367624E+03  0.21074367624E+03  0.00000000000E+00 0. -1.
         23    2    1    2    0    0  0.48389018860E+03 -0.92892101175E+02  0.73939514167E+03  0.89327146025E+03  0.91924257240E+02 0.  0.
         11    1    3    3    0    0  0.29185289333E+03 -0.24874373468E+02  0.37553783635E+03  0.47626202067E+03  0.00000000000E+00 0. -1.
        -11    1    3    3    0    0  0.19203729528E+03 -0.68017727707E+02  0.36385730533E+03  0.41700943958E+03  0.00000000000E+00 0.  1.
         22    1    1    2    0    0 -0.48389018860E+03  0.92892101175E+02  0.31979808367E+03  0.58740911757E+03  0.00000000000E+00 0. -1.
<mgrwt>
<rscale>  0 0.10346616E+04</rscale>
<asrwt>0</asrwt>
<pdfrwt beam="1">  1        2 0.32422105E-01 0.10346616E+04</pdfrwt>
<pdfrwt beam="2">  1       -2 0.19537490E+00 0.10346616E+04</pdfrwt>
<totfact> 0.23199130E+01</totfact>
</mgrwt>
</event>
<event>
 6    1  0.2236204E-005  0.9435559E+03  0.7818608E-02  0.9372715E-01
         -1   -1    0    0    0  501 -0.00000000000E+00  0.00000000000E+00  0.38519115689E+03  0.38519115689E+03  0.00000000000E+00 0.  1.
          1   -1    0    0  501    0  0.00000000000E+00 -0.00000000000E+00 -0.57782847761E+03  0.57782847761E+03  0.00000000000E+00 0. -1.
         23    2    1    2    0    0  0.44496109581E+03  0.83046202242E+02  0.22097156548E+02  0.46202268419E+03  0.89942358678E+02 0.  0.
         11    1    3    3    0    0  0.20697901402E+03  0.82988280484E+02  0.21600679918E+02  0.22404007748E+03  0.00000000000E+00 0.  1.
        -11    1    3    3    0    0  0.23798208179E+03  0.57921758552E-01  0.49647663009E+00  0.23798260672E+03  0.00000000000E+00 0. -1.
         22    1    1    2    0    0 -0.44496109581E+03 -0.83046202242E+02 -0.21473447726E+03  0.50099695031E+03  0.00000000000E+00 0. -1.
<mgrwt>
<rscale>  0 0.94355587E+03</rscale>
<asrwt>0</asrwt>
<pdfrwt beam="1">  1        1 0.88896688E-01 0.94355587E+03</pdfrwt>
<pdfrwt beam="2">  1       -1 0.59260178E-01 0.94355587E+03</pdfrwt>
<totfact> 0.10498379E+02</totfact>
</mgrwt>
</event>
<event>
 6    1  0.2236204E-005  0.1660696E+04  0.7818608E-02  0.8784104E-01
          2   -1    0    0  501    0  0.00000000000E+00  0.00000000000E+00  0.32832742418E+04  0.32832742418E+04  0.00000000000E+00 0. -1.
         -2   -1    0    0    0  501 -0.00000000000E+00 -0.00000000000E+00 -0.20999703690E+03  0.20999703690E+03  0.00000000000E+00 0.  1.
         23    2    1    2    0    0  0.79928966450E+02 -0.10918677039E+03  0.32592224646E+04  0.32633016501E+04  0.91083452615E+02 0.  0.
         11    1    3    3    0    0  0.27205149877E+02 -0.82492238520E+02  0.25956104529E+04  0.25970634788E+04  0.00000000000E+00 0. -1.
        -11    1    3    3    0    0  0.52723816572E+02 -0.26694531865E+02  0.66361201167E+03  0.66623817131E+03  0.00000000000E+00 0.  1.
         22    1    1    2    0    0 -0.79928966450E+02  0.10918677039E+03 -0.18594525966E+03  0.22996962863E+03  0.00000000000E+00 0.  1.
<mgrwt>
<rscale>  0 0.16606961E+04</rscale>
<asrwt>0</asrwt>
<pdfrwt beam="1">  1        2 0.50511908E+00 0.16606961E+04</pdfrwt>
<pdfrwt beam="2">  1       -2 0.32307239E-01 0.16606961E+04</pdfrwt>
<totfact> 0.98103182E+00</totfact>
</mgrwt>
</event>
<event>
 6    1  0.2236204E-005  0.3139082E+04  0.7818608E-02  0.8205093E-01
          2   -1    0    0  501    0  0.00000000000E+00  0.00000000000E+00  0.14956497125E+04  0.14956497125E+04  0.00000000000E+00 0. -1.
         -2   -1    0    0    0  501 -0.00000000000E+00 -0.00000000000E+00 -0.16470832579E+04  0.16470832579E+04  0.00000000000E+00 0.  1.
         23    2    1    2    0    0  0.12260618522E+04 -0.94190316082E+03 -0.33882137192E+03  0.15853237669E+04  0.89678838875E+02 0.  0.
         11    1    3    3    0    0  0.57142169040E+03 -0.48105333255E+03 -0.19417711610E+03  0.77177704645E+03  0.00000000000E+00 0.  1.
        -11    1    3    3    0    0  0.65464016176E+03 -0.46084982827E+03 -0.14464425582E+03  0.81354672045E+03  0.00000000000E+00 0. -1.
         22    1    1    2    0    0 -0.12260618522E+04  0.94190316082E+03  0.18738782645E+03  0.15574092035E+04  0.00000000000E+00 0. -1.
<mgrwt>
<rscale>  0 0.31390824E+04</rscale>
<asrwt>0</asrwt>
<pdfrwt beam="1">  1        2 0.23009996E+00 0.31390824E+04</pdfrwt>
<pdfrwt beam="2">  1       -2 0.25339742E+00 0.31390824E+04</pdfrwt>
<totfact> 0.66167115E-01</totfact>
</mgrwt>
</event>
<event>
 6    1  0.2236204E-005  0.1620758E+04  0.7818608E-02  0.8807896E-01
         -2   -1    0    0    0  501 -0.00000000000E+00  0.00000000000E+00  0.29483047509E+03  0.29483047509E+03  0.00000000000E+00 0.  1.
          2   -1    0    0  501    0  0.00000000000E+00 -0.00000000000E+00 -0.22274298906E+04  0.22274298906E+04  0.00000000000E+00 0. -1.
         23    2    1    2    0    0 -0.49750085439E+03  0.57450060113E+03 -0.13955830710E+04  0.15916989249E+04  0.91078639717E+02 0.  0.
         11    1    3    3    0    0 -0.30231034308E+03  0.40338761678E+03 -0.97102097654E+03  0.10940725980E+04  0.00000000000E+00 0.  1.
        -11    1    3    3    0    0 -0.19519051132E+03  0.17111298435E+03 -0.42456209445E+03  0.49762632684E+03  0.00000000000E+00 0. -1.
         22    1    1    2    0    0  0.49750085439E+03 -0.57450060113E+03 -0.53701634449E+03  0.93056144078E+03  0.00000000000E+00 0.  1.
<mgrwt>
<rscale>  0 0.16207581E+04</rscale>
<asrwt>0</asrwt>
<pdfrwt beam="1">  1        2 0.34268153E+00 0.16207581E+04</pdfrwt>
<pdfrwt beam="2">  1       -2 0.45358534E-01 0.16207581E+04</pdfrwt>
<totfact> 0.22008674E+01</totfact>
</mgrwt>
</event>
<event>
 6    1  0.2236204E-005  0.2499205E+04  0.7818608E-02  0.8403269E-01
          2   -1    0    0  501    0  0.00000000000E+00  0.00000000000E+00  0.40287920130E+03  0.40287920130E+03  0.00000000000E+00 0. -1.
         -2   -1    0    0    0  501 -0.00000000000E+00 -0.00000000000E+00 -0.38758681722E+04  0.38758681722E+04  0.00000000000E+00 0.  1.
         23    2    1    2    0    0  0.16148870636E+03 -0.82662132214E+03 -0.33153760242E+04  0.34218790910E+04  0.90315664556E+02 0.  0.
         11    1    3    3    0    0  0.12320679065E+03 -0.39709066325E+03 -0.16042556514E+04  0.16572558955E+04  0.00000000000E+00 0.  1.
        -11    1    3    3    0    0  0.38281915706E+02 -0.42953065889E+03 -0.17111203728E+04  0.17646231955E+04  0.00000000000E+00 0. -1.
         22    1    1    2    0    0 -0.16148870636E+03  0.82662132214E+03 -0.15761294667E+03  0.85686828244E+03  0.00000000000E+00 0. -1.
<mgrwt>
<rscale>  0 0.24992052E+04</rscale>
<asrwt>0</asrwt>
<pdfrwt beam="1">  1        2 0.61981418E-01 0.24992052E+04</pdfrwt>
<pdfrwt beam="2">  1       -2 0.59628738E+00 0.24992052E+04</pdfrwt>
<totfact> 0.36316400E-02</totfact>
</mgrwt>
</event>
<event>
 6    1  0.2236204E-005  0.5296580E+04  0.7818608E-02  0.7784317E-01
          2   -1    0    0  501    0  0.00000000000E+00  0.00000000000E+00  0.38052134689E+04  0.38052134689E+04  0.00000000000E+00 0. -1.
         -2   -1    0    0    0  501 -0.00000000000E+00 -0.00000000000E+00 -0.18431134534E+04  0.18431134534E+04  0.00000000000E+00 0.  1.
         23    2    1    2    0    0 -0.62097209708E+03  0.15760737635E+04 -0.11879976259E+04  0.20716343155E+04  0.10351581866E+03 0.  0.
         11    1    3    3    0    0 -0.30688309121E+03  0.80050260072E+03 -0.53875007664E+03  0.10125380440E+04  0.00000000000E+00 0.  1.
        -11    1    3    3    0    0 -0.31408900587E+03  0.77557116278E+03 -0.64924754929E+03  0.10590962715E+04  0.00000000000E+00 0. -1.
         22    1    1    2    0    0  0.62097209708E+03 -0.15760737635E+04  0.31500976413E+04  0.35766926068E+04  0.00000000000E+00 0. -1.
<mgrwt>
<rscale>  0 0.52965801E+04</rscale>
<asrwt>0</asrwt>
<pdfrwt beam="1">  1        2 0.58541746E+00 0.52965801E+04</pdfrwt>
<pdfrwt beam="2">  1       -2 0.28355592E+00 0.52965801E+04</pdfrwt>
<totfact> 0.13814218E-02</totfact>
</mgrwt>
</event>
<event>
 6    1  0.2236204E-005  0.4362863E+04  0.7818608E-02  0.7935095E-01
         -2   -1    0    0    0  501 -0.00000000000E+00  0.00000000000E+00  0.16928897050E+04  0.16928897050E+04  0.00000000000E+00 0.  1.
          2   -1    0    0  501    0  0.00000000000E+00 -0.00000000000E+00 -0.28109588653E+04  0.28109588653E+04  0.00000000000E+00 0. -1.
         23    2    1    2    0    0  0.71604819159E+03 -0.16118016464E+04 -0.18828431315E+04  0.25814779538E+04  0.91107673203E+02 0.  0.
         11    1    3    3    0    0  0.21505925462E+03 -0.44930056676E+03 -0.58894215306E+03  0.77134579919E+03  0.00000000000E+00 0. -1.
        -11    1    3    3    0    0  0.50098893698E+03 -0.11625010796E+04 -0.12939009785E+04  0.18101321546E+04  0.00000000000E+00 0.  1.
         22    1    1    2    0    0 -0.71604819159E+03  0.16118016464E+04  0.76477397120E+03  0.19223706165E+04  0.00000000000E+00 0.  1.
<mgrwt>
<rscale>  0 0.43628630E+04</rscale>
<asrwt>0</asrwt>
<pdfrwt beam="1">  1        2 0.43245521E+00 0.43628630E+04</pdfrwt>
<pdfrwt beam="2">  1       -2 0.26044457E+00 0.43628630E+04</pdfrwt>
<totfact> 0.96711884E-02</totfact>
</mgrwt>
</event>
<event>
 6    1  0.2236204E-005  0.2881671E+04  0.7818608E-02  0.8278352E-01
         -2   -1    0    0    0  501 -0.00000000000E+00  0.00000000000E+00  0.13260272434E+04  0.13260272434E+04  0.00000000000E+00 0.  1.
          2   -1    0    0  501    0  0.00000000000E+00 -0.00000000000E+00 -0.15655842702E+04  0.15655842702E+04  0.00000000000E+00 0. -1.
         23    2    1    2    0    0  0.10557468430E+04  0.36523715430E+03  0.79043316065E+03  0.13721118059E+04  0.99532160046E+02 0.  0.
         11    1    3    3    0    0  0.45940044812E+03  0.19509618948E+03  0.30889354777E+03  0.58696381382E+03  0.00000000000E+00 0.  1.
        -11    1    3    3    0    0  0.59634639492E+03  0.17014096481E+03  0.48153961288E+03  0.78514799205E+03  0.00000000000E+00 0. -1.
         22    1    1    2    0    0 -0.10557468430E+04 -0.36523715430E+03 -0.10299901874E+04  0.15194997077E+04  0.00000000000E+00 0. -1.
<mgrwt>
<rscale>  0 0.28816713E+04</rscale>
<asrwt>0</asrwt>
<pdfrwt beam="1">  1        2 0.24085912E+00 0.28816713E+04</pdfrwt>
<pdfrwt beam="2">  1       -2 0.20400419E+00 0.28816713E+04</pdfrwt>
<totfact> 0.12619478E+00</totfact>
</mgrwt>
</event>
<event>
 6    1  0.2236204E-005  0.1503337E+04  0.7818608E-02  0.8882237E-01
         -1   -1    0    0    0  501 -0.00000000000E+00  0.00000000000E+00  0.24010540994E+03  0.24010540994E+03  0.00000000000E+00 0.  1.
          1   -1    0    0  501    0  0.00000000000E+00 -0.00000000000E+00 -0.23531577598E+04  0.23531577598E+04  0.00000000000E+00 0. -1.
         23    2    1    2    0    0  0.46479457764E+03  0.16767169530E+03 -0.88032307881E+02  0.50883184029E+03  0.83739821166E+02 0.  0.
         13    1    3    3    0    0  0.24591119771E+03  0.75723050463E+02 -0.86366818071E+02  0.27141393625E+03  0.00000000000E+00 0. -1.
        -13    1    3    3    0    0  0.21888337993E+03  0.91948644842E+02 -0.16654898104E+01  0.23741790403E+03  0.00000000000E+00 0.  1.
         22    1    1    2    0    0 -0.46479457764E+03 -0.16767169530E+03 -0.20250200419E+04  0.20844313294E+04  0.00000000000E+00 0. -1.
<mgrwt>
<rscale>  0 0.15033375E+04</rscale>
<asrwt>0</asrwt>
<pdfrwt beam="1">  1        1 0.36202426E+00 0.15033375E+04</pdfrwt>
<pdfrwt beam="2">  1       -1 0.36939295E-01 0.15033375E+04</pdfrwt>
<totfact> 0.11673822E+01</totfact>
</mgrwt>
</event>
<event>
 6    1  0.2236204E-005  0.3934988E+04  0.7818608E-02  0.8017792E-01
         -2   -1    0    0    0  501 -0.00000000000E+00  0.00000000000E+00  0.11771188752E+04  0.11771188752E+04  0.00000000000E+00 0.  1.
          2   -1    0    0  501    0  0.00000000000E+00 -0.00000000000E+00 -0.32885650181E+04  0.32885650181E+04  0.00000000000E+00 0. -1.
         23    2    1    2    0    0  0.19327797916E+04 -0.41512744738E+02 -0.64762851195E+03  0.20407873826E+04  0.89607034100E+02 0.  0.
         11    1    3    3    0    0  0.14576239955E+04  0.20107713186E+01 -0.50842565610E+03  0.15437514059E+04  0.00000000000E+00 0. -1.
        -11    1    3    3    0    0  0.47515579612E+03 -0.43523516056E+02 -0.13920285585E+03  0.49703597668E+03  0.00000000000E+00 0.  1.
         22    1    1    2    0    0 -0.19327797916E+04  0.41512744738E+02 -0.14638176310E+04  0.24248965107E+04  0.00000000000E+00 0. -1.
<mgrwt>
<rscale>  0 0.39349877E+04</rscale>
<asrwt>0</asrwt>
<pdfrwt beam="1">  1        2 0.50593308E+00 0.39349877E+04</pdfrwt>
<pdfrwt beam="2">  1       -2 0.18109521E+00 0.39349877E+04</pdfrwt>
<totfact> 0.15999532E-01</totfact>
</mgrwt>
</event>
<event>
 6    1  0.2236204E-005  0.3728136E+04  0.7818608E-02  0.8061755E-01
          2   -1    0    0  501    0  0.00000000000E+00  0.00000000000E+00  0.28833814595E+04  0.28833814595E+04  0.00000000000E+00 0. -1.
         -2   -1    0    0    0  501 -0.00000000000E+00 -0.00000000000E+00 -0.12050951746E+04  0.12050951746E+04  0.00000000000E+00 0.  1.
         23    2    1    2    0    0 -0.31781309230E+02 -0.88875529707E+03  0.26348280256E+04  0.27823877659E+04  0.92015898355E+02 0.  0.
         11    1    3    3    0    0 -0.48896004756E+02 -0.24840081615E+03  0.78032196756E+03  0.82036343032E+03  0.00000000000E+00 0. -1.
        -11    1    3    3    0    0  0.17114695526E+02 -0.64035448092E+03  0.18545060581E+04  0.19620243356E+04  0.00000000000E+00 0.  1.
         22    1    1    2    0    0  0.31781309230E+02  0.88875529707E+03 -0.95654174075E+03  0.13060888681E+04  0.00000000000E+00 0.  1.
<mgrwt>
<rscale>  0 0.37281358E+04</rscale>
<asrwt>0</asrwt>
<pdfrwt beam="1">  1        2 0.44359715E+00 0.37281358E+04</pdfrwt>
<pdfrwt beam="2">  1       -2 0.18539926E+00 0.37281358E+04</pdfrwt>
<totfact> 0.27610098E-01</totfact>
</mgrwt>
</event>
<event>
 6    1  0.2236204E-005  0.3535748E+04  0.7818608E-02  0.8105370E-01
         -2   -1    0    0    0  501 -0.00000000000E+00  0.00000000000E+00  0.73763050918E+03  0.73763050918E+03  0.00000000000E+00 0.  1.
          2   -1    0    0  501    0  0.00000000000E+00 -0.00000000000E+00 -0.42370513767E+04  0.42370513767E+04  0.00000000000E+00 0. -1.
         23    2    1    2    0    0 -0.57261506012E+03  0.11743925022E+04 -0.34240740150E+04  0.36659562063E+04  0.88692109009E+02 0.  0.
         11    1    3    3    0    0 -0.28268429766E+03  0.67865898053E+03 -0.19009862376E+04  0.20381945687E+04  0.00000000000E+00 0. -1.
        -11    1    3    3    0    0 -0.28993076246E+03  0.49573352164E+03 -0.15230877773E+04  0.16277616376E+04  0.00000000000E+00 0.  1.
         22    1    1    2    0    0  0.57261506012E+03 -0.11743925022E+04 -0.75346852546E+02  0.13087256796E+04  0.00000000000E+00 0.  1.
<mgrwt>
<rscale>  0 0.35357479E+04</rscale>
<asrwt>0</asrwt>
<pdfrwt beam="1">  1        2 0.65185406E+00 0.35357479E+04</pdfrwt>
<pdfrwt beam="2">  1       -2 0.11348162E+00 0.35357479E+04</pdfrwt>
<totfact> 0.10730789E-01</totfact>
</mgrwt>
</event>
<event>
 6    1  0.2236204E-005  0.4783994E+04  0.7818608E-02  0.7862720E-01
         -2   -1    0    0    0  501 -0.00000000000E+00  0.00000000000E+00  0.14676578944E+04  0.14676578944E+04  0.00000000000E+00 0.  1.
          2   -1    0    0  501    0  0.00000000000E+00 -0.00000000000E+00 -0.38984896457E+04  0.38984896457E+04  0.00000000000E+00 0. -1.
         23    2    1    2    0    0 -0.90952125354E+03  0.13603604120E+04  0.73991853684E+03  0.17980294436E+04  0.87298783087E+02 0.  0.
         11    1    3    3    0    0 -0.87161265221E+03  0.13134894860E+04  0.69465672492E+03  0.17226465716E+04  0.00000000000E+00 0. -1.
        -11    1    3    3    0    0 -0.37908601329E+02  0.46870926048E+02  0.45261811923E+02  0.75382871939E+02  0.00000000000E+00 0.  1.
         22    1    1    2    0    0  0.90952125354E+03 -0.13603604120E+04 -0.31707502881E+04  0.35681180965E+04  0.00000000000E+00 0. -1.
<mgrwt>
<rscale>  0 0.47839938E+04</rscale>
<asrwt>0</asrwt>
<pdfrwt beam="1">  1        2 0.59976764E+00 0.47839938E+04</pdfrwt>
<pdfrwt beam="2">  1       -2 0.22579352E+00 0.47839938E+04</pdfrwt>
<totfact> 0.27628424E-02</totfact>
</mgrwt>
</event>
<event>
 6    1  0.2236204E-005  0.2379089E+04  0.7818608E-02  0.8447374E-01
          2   -1    0    0  501    0  0.00000000000E+00  0.00000000000E+00  0.17685720593E+04  0.17685720593E+04  0.00000000000E+00 0. -1.
         -2   -1    0    0    0  501 -0.00000000000E+00 -0.00000000000E+00 -0.80008944961E+03  0.80008944961E+03  0.00000000000E+00 0.  1.
         23    2    1    2    0    0  0.67900919202E+03  0.96856317096E+03  0.36792960610E+03  0.12420749083E+04  0.90607856648E+02 0.  0.
         11    1    3    3    0    0  0.37559125313E+03  0.50642266685E+03  0.15205215796E+03  0.64857733977E+03  0.00000000000E+00 0.  1.
        -11    1    3    3    0    0  0.30341793889E+03  0.46214050411E+03  0.21587744814E+03  0.59349756848E+03  0.00000000000E+00 0. -1.
         22    1    1    2    0    0 -0.67900919202E+03 -0.96856317096E+03  0.60055300362E+03  0.13265866007E+04  0.00000000000E+00 0. -1.
<mgrwt>
<rscale>  0 0.23790888E+04</rscale>
<asrwt>0</asrwt>
<pdfrwt beam="1">  1        2 0.27208801E+00 0.23790888E+04</pdfrwt>
<pdfrwt beam="2">  1       -2 0.12309068E+00 0.23790888E+04</pdfrwt>
<totfact> 0.40327071E+00</totfact>
</mgrwt>
</event>
<event>
 6    1  0.2236204E-005  0.2678825E+04  0.7818608E-02  0.8341908E-01
         -2   -1    0    0    0  501 -0.00000000000E+00  0.00000000000E+00  0.13558887451E+04  0.13558887451E+04  0.00000000000E+00 0.  1.
          2   -1    0    0  501    0  0.00000000000E+00 -0.00000000000E+00 -0.13231368464E+04  0.13231368464E+04  0.00000000000E+00 0. -1.
         23    2    1    2    0    0 -0.20100739971E+02 -0.23522243893E+03 -0.13005875469E+04  0.13249474132E+04  0.90686522236E+02 0.  0.
         13    1    3    3    0    0 -0.32466211920E+02 -0.18899771650E+03 -0.82669780843E+03  0.84864801786E+03  0.00000000000E+00 0. -1.
        -13    1    3    3    0    0  0.12365471949E+02 -0.46224722427E+02 -0.47388973843E+03  0.47629939539E+03  0.00000000000E+00 0.  1.
         22    1    1    2    0    0  0.20100739971E+02  0.23522243893E+03  0.13333394456E+04  0.13540781782E+04  0.00000000000E+00 0.  1.
<mgrwt>
<rscale>  0 0.26788254E+04</rscale>
<asrwt>0</asrwt>
<pdfrwt beam="1">  1        2 0.20355951E+00 0.26788254E+04</pdfrwt>
<pdfrwt beam="2">  1       -2 0.20859827E+00 0.26788254E+04</pdfrwt>
<totfact> 0.16467399E+00</totfact>
</mgrwt>
</event>
<event>
 6    1  0.2236204E-005  0.1644301E+04  0.7818608E-02  0.8793785E-01
          2   -1    0    0  501    0  0.00000000000E+00  0.00000000000E+00  0.10837871352E+04  0.10837871352E+04  0.00000000000E+00 0. -1.
         -2   -1    0    0    0  501 -0.00000000000E+00 -0.00000000000E+00 -0.62367536593E+03  0.62367536593E+03  0.00000000000E+00 0.  1.
         23    2    1    2    0    0  0.13331984243E+03 -0.80847907272E+03  0.21317292248E+03  0.85166381831E+03  0.92065048339E+02 0.  0.
         11    1    3    3    0    0  0.10608471891E+03 -0.41260058459E+03  0.82887687061E+02  0.43400873109E+03  0.00000000000E+00 0. -1.
        -11    1    3    3    0    0  0.27235123520E+02 -0.39587848813E+03  0.13028523542E+03  0.41765508723E+03  0.00000000000E+00 0.  1.
         22    1    1    2    0    0 -0.13331984243E+03  0.80847907272E+03  0.24693884676E+03  0.85579868279E+03  0.00000000000E+00 0. -1.
<mgrwt>
<rscale>  0 0.16443009E+04</rscale>
<asrwt>0</asrwt>
<pdfrwt beam="1">  1        2 0.16673648E+00 0.16443009E+04</pdfrwt>
<pdfrwt beam="2">  1       -2 0.95950056E-01 0.16443009E+04</pdfrwt>
<totfact> 0.19405407E+01</totfact>
</mgrwt>
</event>
<event>
 6    1  0.2236204E-005  0.3482593E+04  0.7818608E-02  0.8117928E-01
          2   -1    0    0  501    0  0.00000000000E+00  0.00000000000E+00  0.45366276943E+04  0.45366276943E+04  0.00000000000E+00 0. -1.
         -2   -1    0    0    0  501 -0.00000000000E+00 -0.00000000000E+00 -0.66836280832E+03  0.66836280832E+03  0.00000000000E+00 0.  1.
         23    2    1    2    0    0  0.47733961245E+03  0.13692060196E+04  0.49776107020E+03  0.15358115479E+04  0.91502994145E+02 0.  0.
         11    1    3    3    0    0  0.95501977355E+02  0.24183395008E+03  0.54390281709E+02  0.26563619828E+03  0.00000000000E+00 0. -1.
        -11    1    3    3    0    0  0.38183763509E+03  0.11273720695E+04  0.44337078849E+03  0.12701753496E+04  0.00000000000E+00 0.  1.
         22    1    1    2    0    0 -0.47733961245E+03 -0.13692060196E+04  0.33705038158E+04  0.36691789548E+04  0.00000000000E+00 0. -1.
<mgrwt>
<rscale>  0 0.34825928E+04</rscale>
<asrwt>0</asrwt>
<pdfrwt beam="1">  1        2 0.69794270E+00 0.34825928E+04</pdfrwt>
<pdfrwt beam="2">  1       -2 0.10282505E+00 0.34825928E+04</pdfrwt>
<totfact> 0.71673693E-02</totfact>
</mgrwt>
</event>
<event>
 6    1  0.2236204E-005  0.6503794E+04  0.7818608E-02  0.7630893E-01
          2   -1    0    0  501    0  0.00000000000E+00  0.00000000000E+00  0.20950468303E+04  0.20950468303E+04  0.00000000000E+00 0. -1.
         -2   -1    0    0    0  501 -0.00000000000E+00 -0.00000000000E+00 -0.50475400275E+04  0.50475400275E+04  0.00000000000E+00 0.  1.
         23    2    1    2    0    0  0.14232147872E+04 -0.27633523093E+04 -0.42940412590E+03  0.31391340009E+04  0.90100258491E+02 0.  0.
         13    1    3    3    0    0  0.86020520880E+03 -0.16806378302E+04 -0.30493377624E+03  0.19124542153E+04  0.00000000000E+00 0.  1.
        -13    1    3    3    0    0  0.56300957840E+03 -0.10827144790E+04 -0.12447034966E+03  0.12266797856E+04  0.00000000000E+00 0. -1.
         22    1    1    2    0    0 -0.14232147872E+04  0.27633523093E+04 -0.25230890713E+04  0.40034528569E+04  0.00000000000E+00 0.  1.
<mgrwt>
<rscale>  0 0.65037936E+04</rscale>
<asrwt>0</asrwt>
<pdfrwt beam="1">  1        2 0.32231490E+00 0.65037936E+04</pdfrwt>
<pdfrwt beam="2">  1       -2 0.77654462E+00 0.65037936E+04</pdfrwt>
<totfact> 0.41198109E-04</totfact>
</mgrwt>
</event>
<event>
 6    1  0.2236204E-005  0.1558460E+04  0.7818608E-02  0.8846482E-01
         -2   -1    0    0    0  501 -0.00000000000E+00  0.00000000000E+00  0.25790019309E+03  0.25790019309E+03  0.00000000000E+00 0.  1.
          2   -1    0    0  501    0  0.00000000000E+00 -0.00000000000E+00 -0.23543980199E+04  0.23543980199E+04  0.00000000000E+00 0. -1.
         23    2    1    2    0    0  0.52569029907E+03  0.57161476647E+03 -0.10423657235E+04  0.13029899135E+04  0.90347559269E+02 0.  0.
         13    1    3    3    0    0  0.26651050467E+03  0.32758650058E+03 -0.50347511568E+03  0.65713617810E+03  0.00000000000E+00 0.  1.
        -13    1    3    3    0    0  0.25917979440E+03  0.24402826590E+03 -0.53889060781E+03  0.64585373543E+03  0.00000000000E+00 0. -1.
         22    1    1    2    0    0 -0.52569029907E+03 -0.57161476647E+03 -0.10541321033E+04  0.13093082995E+04  0.00000000000E+00 0. -1.
<mgrwt>
<rscale>  0 0.15584604E+04</rscale>
<asrwt>0</asrwt>
<pdfrwt beam="1">  1        2 0.36221507E+00 0.15584604E+04</pdfrwt>
<pdfrwt beam="2">  1       -2 0.39676954E-01 0.15584604E+04</pdfrwt>
<totfact> 0.24441048E+01</totfact>
</mgrwt>
</event>
<event>
 6    1  0.2236204E-005  0.1380870E+04  0.7818608E-02  0.8967783E-01
          2   -1    0    0  501    0  0.00000000000E+00  0.00000000000E+00  0.94748183441E+03  0.94748183441E+03  0.00000000000E+00 0. -1.
         -2   -1    0    0    0  501 -0.00000000000E+00 -0.00000000000E+00 -0.50312397864E+03  0.50312397864E+03  0.00000000000E+00 0.  1.
         23    2    1    2    0    0  0.16171504244E+02 -0.64232758161E+03 -0.35062305744E+02  0.64892636907E+03  0.83844066782E+02 0.  0.
         11    1    3    3    0    0 -0.91034245211E+01 -0.58680769572E+03 -0.28462297448E+02  0.58756807816E+03  0.00000000000E+00 0. -1.
        -11    1    3    3    0    0  0.25274928765E+02 -0.55519885894E+02 -0.66000082956E+01  0.61358290909E+02  0.00000000000E+00 0.  1.
         22    1    1    2    0    0 -0.16171504244E+02  0.64232758161E+03  0.47942016152E+03  0.80167944399E+03  0.00000000000E+00 0. -1.
<mgrwt>
<rscale>  0 0.13808705E+04</rscale>
<asrwt>0</asrwt>
<pdfrwt beam="1">  1        2 0.14576644E+00 0.13808705E+04</pdfrwt>
<pdfrwt beam="2">  1       -2 0.77403689E-01 0.13808705E+04</pdfrwt>
<totfact> 0.39549871E+01</totfact>
</mgrwt>
</event>
<event>
 6    1  0.2236204E-005  0.3954672E+04  0.7818608E-02  0.8013754E-01
          2   -1    0    0  501    0  0.00000000000E+00  0.00000000000E+00  0.26301736020E+04  0.26301736020E+04  0.00000000000E+00 0. -1.
         -2   -1    0    0    0  501 -0.00000000000E+00 -0.00000000000E+00 -0.14865397919E+04  0.14865397919E+04  0.00000000000E+00 0.  1.
         23    2    1    2    0    0  0.28284373268E+03  0.52042969436E+03  0.25348050406E+04  0.26046932100E+04  0.91337180079E+02 0.  0.
         13    1    3    3    0    0  0.18241799614E+03  0.25300738985E+03  0.14222763365E+04  0.14560765921E+04  0.00000000000E+00 0. -1.
        -13    1    3    3    0    0  0.10042573654E+03  0.26742230451E+03  0.11125287041E+04  0.11486166179E+04  0.00000000000E+00 0.  1.
         22    1    1    2    0    0 -0.28284373268E+03 -0.52042969436E+03 -0.13911712305E+04  0.15120201839E+04  0.00000000000E+00 0.  1.
<mgrwt>
<rscale>  0 0.39546720E+04</rscale>
<asrwt>0</asrwt>
<pdfrwt beam="1">  1        2 0.40464209E+00 0.39546720E+04</pdfrwt>
<pdfrwt beam="2">  1       -2 0.22869843E+00 0.39546720E+04</pdfrwt>
<totfact> 0.20148377E-01</totfact>
</mgrwt>
</event>
<event>
 6    1  0.2236204E-005  0.2838081E+04  0.7818608E-02  0.8291542E-01
         -2   -1    0    0    0  501 -0.00000000000E+00  0.00000000000E+00  0.66448447559E+03  0.66448447559E+03  0.00000000000E+00 0.  1.
          2   -1    0    0  501    0  0.00000000000E+00 -0.00000000000E+00 -0.30304325082E+04  0.30304325082E+04  0.00000000000E+00 0. -1.
         23    2    1    2    0    0  0.55338237765E+03 -0.23725007643E+03  0.48608587257E+03  0.78002126508E+03  0.98153165058E+02 0.  0.
         11    1    3    3    0    0  0.47616217866E+03 -0.23898668709E+03  0.42722330450E+03  0.68290907806E+03  0.00000000000E+00 0.  1.
        -11    1    3    3    0    0  0.77220198986E+02  0.17366106540E+01  0.58862568067E+02  0.97112187018E+02  0.00000000000E+00 0. -1.
         22    1    1    2    0    0 -0.55338237765E+03  0.23725007643E+03 -0.28520339052E+04  0.29148957187E+04  0.00000000000E+00 0. -1.
<mgrwt>
<rscale>  0 0.28380806E+04</rscale>
<asrwt>0</asrwt>
<pdfrwt beam="1">  1        2 0.46622038E+00 0.28380806E+04</pdfrwt>
<pdfrwt beam="2">  1       -2 0.10222838E+00 0.28380806E+04</pdfrwt>
<totfact> 0.11321633E+00</totfact>
</mgrwt>
</event>
<event>
 6    1  0.2236204E-005  0.2450130E+04  0.7818608E-02  0.8420970E-01
          2   -1    0    0  501    0  0.00000000000E+00  0.00000000000E+00  0.10753313695E+04  0.10753313695E+04  0.00000000000E+00 0. -1.
         -2   -1    0    0    0  501 -0.00000000000E+00 -0.00000000000E+00 -0.13956486313E+04  0.13956486313E+04  0.00000000000E+00 0.  1.
         23    2    1    2    0    0 -0.29070865877E+03 -0.10354383918E+04 -0.74764232035E+03  0.13137199206E+04  0.10122649362E+03 0.  0.
         13    1    3    3    0    0 -0.19854235003E+03 -0.52354613946E+03 -0.39943231256E+03  0.68779778802E+03  0.00000000000E+00 0. -1.
        -13    1    3    3    0    0 -0.92166308746E+02 -0.51189225237E+03 -0.34821000780E+03  0.62592213257E+03  0.00000000000E+00 0.  1.
         22    1    1    2    0    0  0.29070865877E+03  0.10354383918E+04  0.42732505860E+03  0.11572600802E+04  0.00000000000E+00 0. -1.
<mgrwt>
<rscale>  0 0.24501304E+04</rscale>
<asrwt>0</asrwt>
<pdfrwt beam="1">  1        2 0.16543560E+00 0.24501304E+04</pdfrwt>
<pdfrwt beam="2">  1       -2 0.21471517E+00 0.24501304E+04</pdfrwt>
<totfact> 0.21581558E+00</totfact>
</mgrwt>
</event>
<event>
 6    1  0.2236204E-005  0.1760718E+04  0.7818608E-02  0.8727473E-01
          1   -1    0    0  501    0  0.00000000000E+00  0.00000000000E+00  0.14704675579E+04  0.14704675579E+04  0.00000000000E+00 0. -1.
         -1   -1    0    0    0  501 -0.00000000000E+00 -0.00000000000E+00 -0.52706501102E+03  0.52706501102E+03  0.00000000000E+00 0.  1.
         23    2    1    2    0    0  0.30197741665E+03 -0.55564174174E+02  0.14061455219E+04  0.14421869121E+04  0.91543012227E+02 0.  0.
         11    1    3    3    0    0  0.11267861200E+03 -0.66405778180E+02  0.57706366250E+03  0.59169981203E+03  0.00000000000E+00 0.  1.
        -11    1    3    3    0    0  0.18929880465E+03  0.10841604006E+02  0.82908185942E+03  0.85048710011E+03  0.00000000000E+00 0. -1.
         22    1    1    2    0    0 -0.30197741665E+03  0.55564174174E+02 -0.46274297502E+03  0.55534565682E+03  0.00000000000E+00 0.  1.
<mgrwt>
<rscale>  0 0.17607180E+04</rscale>
<asrwt>0</asrwt>
<pdfrwt beam="1">  1        1 0.22622578E+00 0.17607180E+04</pdfrwt>
<pdfrwt beam="2">  1       -1 0.81086925E-01 0.17607180E+04</pdfrwt>
<totfact> 0.98404409E+00</totfact>
</mgrwt>
</event>
<event>
 6    1  0.2236204E-005  0.1922271E+04  0.7818608E-02  0.8643849E-01
         -2   -1    0    0    0  501 -0.00000000000E+00  0.00000000000E+00  0.81819692891E+03  0.81819692891E+03  0.00000000000E+00 0.  1.
          2   -1    0    0  501    0  0.00000000000E+00 -0.00000000000E+00 -0.11290453519E+04  0.11290453519E+04  0.00000000000E+00 0. -1.
         23    2    1    2    0    0 -0.92193762208E+03  0.18890184865E+03  0.30443099056E+02  0.94617645355E+03  0.93113970725E+02 0.  0.
         11    1    3    3    0    0 -0.39929517054E+03  0.56825532358E+02 -0.26008009073E+02  0.40415614665E+03  0.00000000000E+00 0. -1.
        -11    1    3    3    0    0 -0.52264245154E+03  0.13207631629E+03  0.56451108129E+02  0.54202030690E+03  0.00000000000E+00 0.  1.
         22    1    1    2    0    0  0.92193762208E+03 -0.18890184865E+03 -0.34129152201E+03  0.10010658272E+04  0.00000000000E+00 0. -1.
<mgrwt>
<rscale>  0 0.19222710E+04</rscale>
<asrwt>0</asrwt>
<pdfrwt beam="1">  1        2 0.17369928E+00 0.19222710E+04</pdfrwt>
<pdfrwt beam="2">  1       -2 0.12587645E+00 0.19222710E+04</pdfrwt>
<totfact> 0.92103916E+00</totfact>
</mgrwt>
</event>
<event>
 6    1  0.2236204E-005  0.1521302E+04  0.7818608E-02  0.8870410E-01
         -1   -1    0    0    0  501 -0.00000000000E+00  0.00000000000E+00  0.36208089674E+03  0.36208089674E+03  0.00000000000E+00 0.  1.
          1   -1    0    0  501    0  0.00000000000E+00 -0.00000000000E+00 -0.15979573736E+04  0.15979573736E+04  0.00000000000E+00 0. -1.
         23    2    1    2    0    0  0.49880609379E+03  0.44156420090E+03 -0.15469914300E+03  0.69010485085E+03  0.92338602986E+02 0.  0.
         11    1    3    3    0    0  0.38553612191E+02  0.56082162464E+02  0.68287203692E+01  0.68397524674E+02  0.00000000000E+00 0.  1.
        -11    1    3    3    0    0  0.46025248160E+03  0.38548203844E+03 -0.16152786337E+03  0.62170732617E+03  0.00000000000E+00 0. -1.
         22    1    1    2    0    0 -0.49880609379E+03 -0.44156420090E+03 -0.10811773338E+04  0.12699334195E+04  0.00000000000E+00 0. -1.
<mgrwt>
<rscale>  0 0.15213019E+04</rscale>
<asrwt>0</asrwt>
<pdfrwt beam="1">  1        1 0.24583960E+00 0.15213019E+04</pdfrwt>
<pdfrwt beam="2">  1       -1 0.55704753E-01 0.15213019E+04</pdfrwt>
<totfact> 0.17619566E+01</totfact>
</mgrwt>
</event>
<event>
 6    1  0.2236204E-005  0.1926480E+04  0.7818608E-02  0.8641787E-01
          2   -1    0    0  501    0  0.00000000000E+00  0.00000000000E+00  0.25308777202E+04  0.25308777202E+04  0.00000000000E+00 0. -1.
         -2   -1    0    0    0  501 -0.00000000000E+00 -0.00000000000E+00 -0.36660439239E+03  0.36660439239E+03  0.00000000000E+00 0.  1.
         23    2    1    2    0    0  0.88405230821E+03 -0.80899529809E+02  0.16384652998E+04  0.18657034057E+04  0.90484484862E+02 0.  0.
         11    1    3    3    0    0  0.33014450479E+03 -0.50995570485E+02  0.53668046862E+03  0.63215652148E+03  0.00000000000E+00 0.  1.
        -11    1    3    3    0    0  0.55390780342E+03 -0.29903959324E+02  0.11017848311E+04  0.12335468842E+04  0.00000000000E+00 0. -1.
         22    1    1    2    0    0 -0.88405230821E+03  0.80899529809E+02  0.52580802801E+03  0.10317787068E+04  0.00000000000E+00 0.  1.
<mgrwt>
<rscale>  0 0.19264796E+04</rscale>
<asrwt>0</asrwt>
<pdfrwt beam="1">  1        2 0.38936579E+00 0.19264796E+04</pdfrwt>
<pdfrwt beam="2">  1       -2 0.56400678E-01 0.19264796E+04</pdfrwt>
<totfact> 0.92168020E+00</totfact>
</mgrwt>
</event>
<event>
 6    1  0.3310689E-005  0.2989408E+04  0.7818608E-02  0.8246762E-01
          3   -1    0    0  501    0  0.00000000000E+00  0.00000000000E+00  0.12019364107E+04  0.12019364107E+04  0.00000000000E+00 0. -1.
         -3   -1    0    0    0  501 -0.00000000000E+00 -0.00000000000E+00 -0.18587844565E+04  0.18587844565E+04  0.00000000000E+00 0.  1.
         23    2    1    2    0    0 -0.12080442828E+04 -0.40276081092E+03 -0.11273361173E+04  0.17031692898E+04  0.91168242017E+02 0.  0.
         13    1    3    3    0    0 -0.88492790310E+03 -0.28207237776E+03 -0.87238751699E+03  0.12742535854E+04  0.00000000000E+00 0.  1.
        -13    1    3    3    0    0 -0.32311637967E+03 -0.12068843315E+03 -0.25494860030E+03  0.42891570442E+03  0.00000000000E+00 0. -1.
         22    1    1    2    0    0  0.12080442828E+04  0.40276081092E+03  0.47048807145E+03  0.13575515774E+04  0.00000000000E+00 0. -1.
<mgrwt>
<rscale>  0 0.29894084E+04</rscale>
<asrwt>0</asrwt>
<pdfrwt beam="1">  1        3 0.18491329E+00 0.29894084E+04</pdfrwt>
<pdfrwt beam="2">  1       -3 0.28596684E+00 0.29894084E+04</pdfrwt>
<totfact> 0.18655059E-02</totfact>
</mgrwt>
</event>
<event>
 6    1  0.2236204E-005  0.6227067E+04  0.7818608E-02  0.7662869E-01
          2   -1    0    0  501    0  0.00000000000E+00  0.00000000000E+00  0.41291305825E+04  0.41291305825E+04  0.00000000000E+00 0. -1.
         -2   -1    0    0    0  501 -0.00000000000E+00 -0.00000000000E+00 -0.23477319892E+04  0.23477319892E+04  0.00000000000E+00 0.  1.
         23    2    1    2    0    0  0.13293384399E+04 -0.25419756380E+04 -0.36623689375E+03  0.28934118579E+04  0.94455731008E+02 0.  0.
         13    1    3    3    0    0  0.57152809915E+03 -0.10103078142E+04 -0.17453390593E+03  0.11738093252E+04  0.00000000000E+00 0. -1.
        -13    1    3    3    0    0  0.75781034074E+03 -0.15316678239E+04 -0.19170298782E+03  0.17196025328E+04  0.00000000000E+00 0.  1.
         22    1    1    2    0    0 -0.13293384399E+04  0.25419756380E+04  0.21476354871E+04  0.35834507137E+04  0.00000000000E+00 0. -1.
<mgrwt>
<rscale>  0 0.62270674E+04</rscale>
<asrwt>0</asrwt>
<pdfrwt beam="1">  1        2 0.63525086E+00 0.62270674E+04</pdfrwt>
<pdfrwt beam="2">  1       -2 0.36118954E+00 0.62270674E+04</pdfrwt>
<totfact> 0.23224699E-03</totfact>
</mgrwt>
</event>
<event>
 6    1  0.2236204E-005  0.4531357E+04  0.7818608E-02  0.7905170E-01
          2   -1    0    0  501    0  0.00000000000E+00  0.00000000000E+00  0.33052792823E+04  0.33052792823E+04  0.00000000000E+00 0. -1.
         -2   -1    0    0    0  501 -0.00000000000E+00 -0.00000000000E+00 -0.15530607011E+04  0.15530607011E+04  0.00000000000E+00 0.  1.
         23    2    1    2    0    0  0.88089003944E+03 -0.13431632989E+04  0.25884183311E+04  0.30474603819E+04  0.83966737217E+02 0.  0.
         11    1    3    3    0    0  0.68224486652E+03 -0.10653575973E+04  0.20961634730E+04  0.24483353883E+04  0.00000000000E+00 0.  1.
        -11    1    3    3    0    0  0.19864517292E+03 -0.27780570155E+03  0.49225485818E+03  0.59912499359E+03  0.00000000000E+00 0. -1.
         22    1    1    2    0    0 -0.88089003944E+03  0.13431632989E+04 -0.83619974994E+03  0.18108796014E+04  0.00000000000E+00 0.  1.
<mgrwt>
<rscale>  0 0.45313571E+04</rscale>
<asrwt>0</asrwt>
<pdfrwt beam="1">  1        2 0.50850451E+00 0.45313571E+04</pdfrwt>
<pdfrwt beam="2">  1       -2 0.23893242E+00 0.45313571E+04</pdfrwt>
<totfact> 0.62725531E-02</totfact>
</mgrwt>
</event>
<event>
 6    1  0.2236204E-005  0.4344934E+04  0.7818608E-02  0.7938361E-01
          2   -1    0    0  501    0  0.00000000000E+00  0.00000000000E+00  0.14541714063E+04  0.14541714063E+04  0.00000000000E+00 0.  1.
         -2   -1    0    0    0  501 -0.00000000000E+00 -0.00000000000E+00 -0.32455687065E+04  0.32455687065E+04  0.00000000000E+00 0. -1.
         23    2    1    2    0    0 -0.60106743590E+03 -0.31552868510E+02  0.13607616417E+04  0.14906306348E+04  0.89609139306E+02 0.  0.
         11    1    3    3    0    0 -0.55158065567E+02 -0.29262117961E+02  0.15083877269E+03  0.16325139844E+03  0.00000000000E+00 0.  1.
        -11    1    3    3    0    0 -0.54590937033E+03 -0.22907505492E+01  0.12099228690E+04  0.13273792364E+04  0.00000000000E+00 0. -1.
         22    1    1    2    0    0  0.60106743590E+03  0.31552868510E+02 -0.31521589420E+04  0.32091094780E+04  0.00000000000E+00 0. -1.
<mgrwt>
<rscale>  0 0.43449342E+04</rscale>
<asrwt>0</asrwt>
<pdfrwt beam="1">  1        2 0.22371868E+00 0.43449342E+04</pdfrwt>
<pdfrwt beam="2">  1       -2 0.49931826E+00 0.43449342E+04</pdfrwt>
<totfact> 0.17275377E-02</totfact>
</mgrwt>
</event>
<event>
 6    1  0.2236204E-005  0.2557781E+04  0.7818608E-02  0.8382685E-01
          2   -1    0    0  501    0  0.00000000000E+00  0.00000000000E+00  0.14444785469E+04  0.14444785469E+04  0.00000000000E+00 0. -1.
         -2   -1    0    0    0  501 -0.00000000000E+00 -0.00000000000E+00 -0.11322846850E+04  0.11322846850E+04  0.00000000000E+00 0.  1.
         23    2    1    2    0    0  0.41423471931E+03 -0.52563201072E+03 -0.93969207932E+03  0.11572218189E+04  0.90894008923E+02 0.  0.
         13    1    3    3    0    0  0.86578292415E+02 -0.15435609121E+03 -0.29932815594E+03  0.34773401983E+03  0.00000000000E+00 0. -1.
        -13    1    3    3    0    0  0.32765642690E+03 -0.37127591951E+03 -0.64036392338E+03  0.80948779908E+03  0.00000000000E+00 0.  1.
         22    1    1    2    0    0 -0.41423471931E+03  0.52563201072E+03  0.12518859412E+04  0.14195414130E+04  0.00000000000E+00 0. -1.
<mgrwt>
<rscale>  0 0.25577810E+04</rscale>
<asrwt>0</asrwt>
<pdfrwt beam="1">  1        2 0.22222747E+00 0.25577810E+04</pdfrwt>
<pdfrwt beam="2">  1       -2 0.17419764E+00 0.25577810E+04</pdfrwt>
<totfact> 0.24118119E+00</totfact>
</mgrwt>
</event>
<event>
 6    1  0.2236204E-005  0.2068299E+04  0.7818608E-02  0.8575338E-01
          2   -1    0    0  501    0  0.00000000000E+00  0.00000000000E+00  0.15814721428E+04  0.15814721428E+04  0.00000000000E+00 0. -1.
         -2   -1    0    0    0  501 -0.00000000000E+00 -0.00000000000E+00 -0.67624659735E+03  0.67624659735E+03  0.00000000000E+00 0.  1.
         23    2    1    2    0    0  0.11047021940E+03 -0.28544629478E+03 -0.62383093695E+03  0.69832880080E+03  0.69388900815E+02 0.  0.
         11    1    3    3    0    0  0.15603084587E+02 -0.82453957464E+02 -0.23532182199E+03  0.24983688930E+03  0.00000000000E+00 0.  1.
        -11    1    3    3    0    0  0.94867134813E+02 -0.20299233732E+03 -0.38850911496E+03  0.44849191150E+03  0.00000000000E+00 0. -1.
         22    1    1    2    0    0 -0.11047021940E+03  0.28544629478E+03  0.15290564824E+04  0.15593899393E+04  0.00000000000E+00 0. -1.
<mgrwt>
<rscale>  0 0.20682990E+04</rscale>
<asrwt>0</asrwt>
<pdfrwt beam="1">  1        2 0.24330341E+00 0.20682990E+04</pdfrwt>
<pdfrwt beam="2">  1       -2 0.10403794E+00 0.20682990E+04</pdfrwt>
<totfact> 0.79313471E+00</totfact>
</mgrwt>
</event>
<event>
 6    1  0.2236204E-005  0.1278357E+04  0.7818608E-02  0.9046907E-01
          2   -1    0    0  501    0  0.00000000000E+00  0.00000000000E+00  0.27264163269E+04  0.27264163269E+04  0.00000000000E+00 0. -1.
         -2   -1    0    0    0  501 -0.00000000000E+00 -0.00000000000E+00 -0.14984835445E+03  0.14984835445E+03  0.00000000000E+00 0.  1.
         23    2    1    2    0    0  0.13577283467E+03 -0.11893349806E+03  0.26668111829E+04  0.26744645906E+04  0.91101709940E+02 0.  0.
         11    1    3    3    0    0  0.12452869153E+03 -0.86147453229E+02  0.24690584371E+04  0.24736973025E+04  0.00000000000E+00 0.  1.
        -11    1    3    3    0    0  0.11244143144E+02 -0.32786044830E+02  0.19775274588E+03  0.20076728815E+03  0.00000000000E+00 0. -1.
         22    1    1    2    0    0 -0.13577283467E+03  0.11893349806E+03 -0.90243210450E+02  0.20180009075E+03  0.00000000000E+00 0.  1.
<mgrwt>
<rscale>  0 0.12783568E+04</rscale>
<asrwt>0</asrwt>
<pdfrwt beam="1">  1        2 0.41944863E+00 0.12783568E+04</pdfrwt>
<pdfrwt beam="2">  1       -2 0.23053595E-01 0.12783568E+04</pdfrwt>
<totfact> 0.42072507E+01</totfact>
</mgrwt>
</event>
<event>
 6    1  0.2236204E-005  0.2654896E+04  0.7818608E-02  0.8349790E-01
          2   -1    0    0  501    0  0.00000000000E+00  0.00000000000E+00  0.27849542447E+04  0.27849542447E+04  0.00000000000E+00 0. -1.
         -2   -1    0    0    0  501 -0.00000000000E+00 -0.00000000000E+00 -0.63272770054E+03  0.63272770054E+03  0.00000000000E+00 0.  1.
         23    2    1    2    0    0 -0.99044797559E+03  0.83011610597E+03  0.14590817906E+04  0.19512135374E+04  0.90745000794E+02 0.  0.
         13    1    3    3    0    0 -0.51386629699E+03  0.38036643410E+03  0.68455876731E+03  0.93667385000E+03  0.00000000000E+00 0.  1.
        -13    1    3    3    0    0 -0.47658167860E+03  0.44974967187E+03  0.77452302326E+03  0.10145396874E+04  0.00000000000E+00 0. -1.
         22    1    1    2    0    0  0.99044797559E+03 -0.83011610597E+03  0.69314475357E+03  0.14664684078E+04  0.00000000000E+00 0.  1.
<mgrwt>
<rscale>  0 0.26548956E+04</rscale>
<asrwt>0</asrwt>
<pdfrwt beam="1">  1        2 0.42845449E+00 0.26548956E+04</pdfrwt>
<pdfrwt beam="2">  1       -2 0.97342724E-01 0.26548956E+04</pdfrwt>
<totfact> 0.18298133E+00</totfact>
</mgrwt>
</event>
<event>
 6    1  0.2236204E-005  0.1394001E+04  0.7818608E-02  0.8958172E-01
         -2   -1    0    0    0  501 -0.00000000000E+00  0.00000000000E+00  0.12504248098E+04  0.12504248098E+04  0.00000000000E+00 0.  1.
          2   -1    0    0  501    0  0.00000000000E+00 -0.00000000000E+00 -0.38851578948E+03  0.38851578948E+03  0.00000000000E+00 0. -1.
         23    2    1    2    0    0 -0.36297904937E+03 -0.53518520120E+02  0.11255065682E+04  0.11871644495E+04  0.89310542082E+02 0.  0.
         13    1    3    3    0    0 -0.28548831083E+03 -0.10486196793E+02  0.92061897423E+03  0.96392573970E+03  0.00000000000E+00 0. -1.
        -13    1    3    3    0    0 -0.77490738547E+02 -0.43032323327E+02  0.20488759394E+03  0.22323870982E+03  0.00000000000E+00 0.  1.
         22    1    1    2    0    0  0.36297904937E+03  0.53518520120E+02 -0.26359754783E+03  0.45177614977E+03  0.00000000000E+00 0. -1.
<mgrwt>
<rscale>  0 0.13940011E+04</rscale>
<asrwt>0</asrwt>
<pdfrwt beam="1">  1        2 0.59771660E-01 0.13940011E+04</pdfrwt>
<pdfrwt beam="2">  1       -2 0.19237305E+00 0.13940011E+04</pdfrwt>
<totfact> 0.11944066E+01</totfact>
</mgrwt>
</event>
<event>
 6    1  0.2236204E-005  0.1868719E+04  0.7818608E-02  0.8670585E-01
         -2   -1    0    0    0  501 -0.00000000000E+00  0.00000000000E+00  0.23603927066E+04  0.23603927066E+04  0.00000000000E+00 0.  1.
          2   -1    0    0  501    0  0.00000000000E+00 -0.00000000000E+00 -0.36986557451E+03  0.36986557451E+03  0.00000000000E+00 0. -1.
         23    2    1    2    0    0 -0.64600093746E+03 -0.59482051866E+03  0.14550255861E+04  0.17017202087E+04  0.87312953915E+02 0.  0.
         13    1    3    3    0    0 -0.38194753669E+03 -0.39424656659E+03  0.85141912178E+03  0.10130295144E+04  0.00000000000E+00 0. -1.
        -13    1    3    3    0    0 -0.26405340076E+03 -0.20057395206E+03  0.60360646429E+03  0.68869069432E+03  0.00000000000E+00 0.  1.
         22    1    1    2    0    0  0.64600093746E+03  0.59482051866E+03  0.53550154600E+03  0.10285380724E+04  0.00000000000E+00 0. -1.
<mgrwt>
<rscale>  0 0.18687194E+04</rscale>
<asrwt>0</asrwt>
<pdfrwt beam="1">  1        2 0.56902398E-01 0.18687194E+04</pdfrwt>
<pdfrwt beam="2">  1       -2 0.36313733E+00 0.18687194E+04</pdfrwt>
<totfact> 0.10510663E+00</totfact>
</mgrwt>
</event>
<event>
 6    1  0.2236204E-005  0.4552254E+04  0.7818608E-02  0.7901552E-01
          2   -1    0    0  501    0  0.00000000000E+00  0.00000000000E+00  0.42343843146E+04  0.42343843146E+04  0.00000000000E+00 0. -1.
         -2   -1    0    0    0  501 -0.00000000000E+00 -0.00000000000E+00 -0.12234962086E+04  0.12234962086E+04  0.00000000000E+00 0.  1.
         23    2    1    2    0    0 -0.63596197838E+03 -0.14672865021E+03  0.41192415704E+04  0.41716362475E+04  0.91765634238E+02 0.  0.
         13    1    3    3    0    0 -0.49574229086E+03 -0.10250474184E+03  0.34042977369E+04  0.34417307742E+04  0.00000000000E+00 0. -1.
        -13    1    3    3    0    0 -0.14021968753E+03 -0.44223908363E+02  0.71494383348E+03  0.72990547324E+03  0.00000000000E+00 0.  1.
         22    1    1    2    0    0  0.63596197838E+03  0.14672865021E+03 -0.11083534643E+04  0.12862442756E+04  0.00000000000E+00 0.  1.
<mgrwt>
<rscale>  0 0.45522536E+04</rscale>
<asrwt>0</asrwt>
<pdfrwt beam="1">  1        2 0.65144374E+00 0.45522536E+04</pdfrwt>
<pdfrwt beam="2">  1       -2 0.18823019E+00 0.45522536E+04</pdfrwt>
<totfact> 0.25925323E-02</totfact>
</mgrwt>
</event>
<event>
 6    1  0.2236204E-005  0.1254852E+04  0.7818608E-02  0.9066155E-01
          2   -1    0    0  501    0  0.00000000000E+00  0.00000000000E+00  0.27799603977E+04  0.27799603977E+04  0.00000000000E+00 0. -1.
         -2   -1    0    0    0  501 -0.00000000000E+00 -0.00000000000E+00 -0.14160752968E+03  0.14160752968E+03  0.00000000000E+00 0.  1.
         23    2    1    2    0    0 -0.58550557410E+03 -0.70965169908E+02  0.17977535071E+04  0.18946988421E+04  0.10056439479E+03 0.  0.
         13    1    3    3    0    0 -0.85292668864E+02  0.18794496806E+02  0.20488155702E+03  0.22272073294E+03  0.00000000000E+00 0. -1.
        -13    1    3    3    0    0 -0.50021290523E+03 -0.89759666713E+02  0.15928719501E+04  0.16719781092E+04  0.00000000000E+00 0.  1.
         22    1    1    2    0    0  0.58550557410E+03  0.70965169908E+02  0.84059936096E+03  0.10268690853E+04  0.00000000000E+00 0.  1.
<mgrwt>
<rscale>  0 0.12548519E+04</rscale>
<asrwt>0</asrwt>
<pdfrwt beam="1">  1        2 0.42768618E+00 0.12548519E+04</pdfrwt>
<pdfrwt beam="2">  1       -2 0.21785776E-01 0.12548519E+04</pdfrwt>
<totfact> 0.43347077E+01</totfact>
</mgrwt>
</event>
<event>
 6    1  0.2236204E-005  0.1617561E+04  0.7818608E-02  0.8809831E-01
          2   -1    0    0  501    0  0.00000000000E+00  0.00000000000E+00  0.35896587038E+04  0.35896587038E+04  0.00000000000E+00 0. -1.
         -2   -1    0    0    0  501 -0.00000000000E+00 -0.00000000000E+00 -0.18222517074E+03  0.18222517074E+03  0.00000000000E+00 0.  1.
         23    2    1    2    0    0  0.61085940697E+03  0.45401326274E+03  0.10904190394E+04  0.13330658367E+04  0.93667420451E+02 0.  0.
         13    1    3    3    0    0  0.39713604618E+03  0.34125709942E+03  0.78510763066E+03  0.94369880725E+03  0.00000000000E+00 0. -1.
        -13    1    3    3    0    0  0.21372336079E+03  0.11275616332E+03  0.30531140870E+03  0.38936702942E+03  0.00000000000E+00 0.  1.
         22    1    1    2    0    0 -0.61085940697E+03 -0.45401326274E+03  0.23170144937E+04  0.24388180378E+04  0.00000000000E+00 0. -1.
<mgrwt>
<rscale>  0 0.16175613E+04</rscale>
<asrwt>0</asrwt>
<pdfrwt beam="1">  1        2 0.55225513E+00 0.16175613E+04</pdfrwt>
<pdfrwt beam="2">  1       -2 0.28034644E-01 0.16175613E+04</pdfrwt>
<totfact> 0.79229323E+00</totfact>
</mgrwt>
</event>
<event>
 6    1  0.2236204E-005  0.1249610E+04  0.7818608E-02  0.9070508E-01
          1   -1    0    0  501    0  0.00000000000E+00  0.00000000000E+00  0.10059107804E+04  0.10059107804E+04  0.00000000000E+00 0. -1.
         -1   -1    0    0    0  501 -0.00000000000E+00 -0.00000000000E+00 -0.38808738488E+03  0.38808738488E+03  0.00000000000E+00 0.  1.
         23    2    1    2    0    0 -0.46866391903E+03  0.29693751754E+03 -0.21229249067E+01  0.56204191731E+03  0.89826787092E+02 0.  0.
         11    1    3    3    0    0 -0.29504856317E+03  0.22402448756E+03 -0.30054184717E+02  0.37167711750E+03  0.00000000000E+00 0.  1.
        -11    1    3    3    0    0 -0.17361535586E+03  0.72913029980E+02  0.27931259811E+02  0.19036479981E+03  0.00000000000E+00 0. -1.
         22    1    1    2    0    0  0.46866391903E+03 -0.29693751754E+03  0.61994632041E+03  0.83195624795E+03  0.00000000000E+00 0. -1.
<mgrwt>
<rscale>  0 0.12496100E+04</rscale>
<asrwt>0</asrwt>
<pdfrwt beam="1">  1        1 0.15475550E+00 0.12496100E+04</pdfrwt>
<pdfrwt beam="2">  1       -1 0.59705752E-01 0.12496100E+04</pdfrwt>
<totfact> 0.41990206E+01</totfact>
</mgrwt>
</event>
<event>
 6    1  0.2236204E-005  0.1305910E+04  0.7818608E-02  0.9024892E-01
         -1   -1    0    0    0  501 -0.00000000000E+00  0.00000000000E+00  0.13455930310E+04  0.13455930310E+04  0.00000000000E+00 0.  1.
          1   -1    0    0  501    0  0.00000000000E+00 -0.00000000000E+00 -0.31684923521E+03  0.31684923521E+03  0.00000000000E+00 0. -1.
         23    2    1    2    0    0  0.35643183918E+03 -0.82183920515E+02  0.12004958713E+04  0.12583424912E+04  0.91856601240E+02 0.  0.
         11    1    3    3    0    0  0.11203609073E+03  0.44313936363E+01  0.47014974381E+03  0.48333477475E+03  0.00000000000E+00 0. -1.
        -11    1    3    3    0    0  0.24439574845E+03 -0.86615314152E+02  0.73034612753E+03  0.77500771641E+03  0.00000000000E+00 0.  1.
         22    1    1    2    0    0 -0.35643183918E+03  0.82183920515E+02 -0.17175207552E+03  0.40409977508E+03  0.00000000000E+00 0. -1.
<mgrwt>
<rscale>  0 0.13059098E+04</rscale>
<asrwt>0</asrwt>
<pdfrwt beam="1">  1        1 0.48746037E-01 0.13059098E+04</pdfrwt>
<pdfrwt beam="2">  1       -1 0.20701431E+00 0.13059098E+04</pdfrwt>
<totfact> 0.10800828E+01</totfact>
</mgrwt>
</event>
<event>
 6    1  0.2236204E-005  0.7015832E+04  0.7818608E-02  0.7575805E-01
         -2   -1    0    0    0  501 -0.00000000000E+00  0.00000000000E+00  0.23627427841E+04  0.23627427841E+04  0.00000000000E+00 0.  1.
          2   -1    0    0  501    0  0.00000000000E+00 -0.00000000000E+00 -0.52081307944E+04  0.52081307944E+04  0.00000000000E+00 0. -1.
         23    2    1    2    0    0 -0.31602526796E+03 -0.15614964614E+04  0.19489575889E+04  0.25187559143E+04  0.86905142542E+02 0.  0.
         11    1    3    3    0    0 -0.18187623852E+03 -0.99228084814E+03  0.11738582786E+04  0.15477866474E+04  0.00000000000E+00 0. -1.
        -11    1    3    3    0    0 -0.13414902944E+03 -0.56921561322E+03  0.77509931030E+03  0.97096926690E+03  0.00000000000E+00 0.  1.
         22    1    1    2    0    0  0.31602526796E+03  0.15614964614E+04 -0.47943455992E+04  0.50521176642E+04  0.00000000000E+00 0. -1.
<mgrwt>
<rscale>  0 0.70158317E+04</rscale>
<asrwt>0</asrwt>
<pdfrwt beam="1">  1        2 0.80125087E+00 0.70158317E+04</pdfrwt>
<pdfrwt beam="2">  1       -2 0.36349890E+00 0.70158317E+04</pdfrwt>
<totfact> 0.13840541E-04</totfact>
</mgrwt>
</event>
<event>
 6    1  0.2236204E-005  0.1817693E+04  0.7818608E-02  0.8696947E-01
          2   -1    0    0  501    0  0.00000000000E+00  0.00000000000E+00  0.19620653328E+04  0.19620653328E+04  0.00000000000E+00 0. -1.
         -2   -1    0    0    0  501 -0.00000000000E+00 -0.00000000000E+00 -0.42098605661E+03  0.42098605661E+03  0.00000000000E+00 0.  1.
         23    2    1    2    0    0  0.13283584512E+03  0.74173096543E+03  0.11123371969E+03  0.76680001594E+03  0.88312724039E+02 0.  0.
         11    1    3    3    0    0  0.10055051651E+03  0.35107883973E+03  0.77828021817E+02  0.37339517814E+03  0.00000000000E+00 0.  1.
        -11    1    3    3    0    0  0.32285328606E+02  0.39065212570E+03  0.33405697872E+02  0.39340483780E+03  0.00000000000E+00 0. -1.
         22    1    1    2    0    0 -0.13283584512E+03 -0.74173096543E+03  0.14298455565E+04  0.16162513735E+04  0.00000000000E+00 0. -1.
<mgrwt>
<rscale>  0 0.18176932E+04</rscale>
<asrwt>0</asrwt>
<pdfrwt beam="1">  1        2 0.30185620E+00 0.18176932E+04</pdfrwt>
<pdfrwt beam="2">  1       -2 0.64767087E-01 0.18176932E+04</pdfrwt>
<totfact> 0.14546694E+01</totfact>
</mgrwt>
</event>
<event>
 6    1  0.2236204E-005  0.5355414E+04  0.7818608E-02  0.7775904E-01
          2   -1    0    0  501    0  0.00000000000E+00  0.00000000000E+00  0.23291018547E+04  0.23291018547E+04  0.00000000000E+00 0. -1.
         -2   -1    0    0    0  501 -0.00000000000E+00 -0.00000000000E+00 -0.30784896540E+04  0.30784896540E+04  0.00000000000E+00 0.  1.
         23    2    1    2    0    0 -0.19633080840E+04  0.15969600332E+04  0.50621010622E+03  0.25824568073E+04  0.89300110161E+02 0.  0.
         11    1    3    3    0    0 -0.16388650741E+04  0.12991579979E+04  0.43980359638E+03  0.21370815235E+04  0.00000000000E+00 0.  1.
        -11    1    3    3    0    0 -0.32444300991E+03  0.29780203531E+03  0.66406509835E+02  0.44537528385E+03  0.00000000000E+00 0. -1.
         22    1    1    2    0    0  0.19633080840E+04 -0.15969600332E+04 -0.12555979055E+04  0.28251347014E+04  0.00000000000E+00 0.  1.
<mgrwt>
<rscale>  0 0.53554144E+04</rscale>
<asrwt>0</asrwt>
<pdfrwt beam="1">  1        2 0.35832336E+00 0.53554144E+04</pdfrwt>
<pdfrwt beam="2">  1       -2 0.47361379E+00 0.53554144E+04</pdfrwt>
<totfact> 0.75459517E-03</totfact>
</mgrwt>
</event>
<event>
 6    1  0.2236204E-005  0.2524474E+04  0.7818608E-02  0.8394318E-01
         -2   -1    0    0    0  501 -0.00000000000E+00  0.00000000000E+00  0.11228190200E+04  0.11228190200E+04  0.00000000000E+00 0.  1.
          2   -1    0    0  501    0  0.00000000000E+00 -0.00000000000E+00 -0.14189661111E+04  0.14189661111E+04  0.00000000000E+00 0. -1.
         23    2    1    2    0    0  0.80218921282E+03 -0.52087255512E+03  0.67854996558E+03  0.11761899845E+04  0.90427164405E+02 0.  0.
         11    1    3    3    0    0  0.50430548996E+03 -0.29262478753E+03  0.45298116608E+03  0.73833950883E+03  0.00000000000E+00 0.  1.
        -11    1    3    3    0    0  0.29788372286E+03 -0.22824776759E+03  0.22556879951E+03  0.43785047569E+03  0.00000000000E+00 0. -1.
         22    1    1    2    0    0 -0.80218921282E+03  0.52087255512E+03 -0.97469705671E+03  0.13655951465E+04  0.00000000000E+00 0. -1.
<mgrwt>
<rscale>  0 0.25244739E+04</rscale>
<asrwt>0</asrwt>
<pdfrwt beam="1">  1        2 0.21830248E+00 0.25244739E+04</pdfrwt>
<pdfrwt beam="2">  1       -2 0.17274139E+00 0.25244739E+04</pdfrwt>
<totfact> 0.25606301E+00</totfact>
</mgrwt>
</event>
<event>
 6    1  0.2236204E-005  0.3121973E+04  0.7818608E-02  0.8209733E-01
         -2   -1    0    0    0  501 -0.00000000000E+00  0.00000000000E+00  0.11484471474E+04  0.11484471474E+04  0.00000000000E+00 0.  1.
          2   -1    0    0  501    0  0.00000000000E+00 -0.00000000000E+00 -0.21217158586E+04  0.21217158586E+04  0.00000000000E+00 0. -1.
         23    2    1    2    0    0 -0.46772001241E+03  0.94901951877E+03  0.71327798386E+03  0.12792235765E+04  0.90815303792E+02 0.  0.
         11    1    3    3    0    0 -0.20985114005E+03  0.50704571018E+03  0.40247673607E+03  0.68052948229E+03  0.00000000000E+00 0.  1.
        -11    1    3    3    0    0 -0.25786887236E+03  0.44197380860E+03  0.31080124779E+03  0.59869409421E+03  0.00000000000E+00 0. -1.
         22    1    1    2    0    0  0.46772001241E+03 -0.94901951877E+03 -0.16865466951E+04  0.19909394294E+04  0.00000000000E+00 0. -1.
<mgrwt>
<rscale>  0 0.31219728E+04</rscale>
<asrwt>0</asrwt>
<pdfrwt beam="1">  1        2 0.32641782E+00 0.31219728E+04</pdfrwt>
<pdfrwt beam="2">  1       -2 0.17668418E+00 0.31219728E+04</pdfrwt>
<totfact> 0.92593831E-01</totfact>
</mgrwt>
</event>
<event>
 6    1  0.2236204E-005  0.1345312E+04  0.7818608E-02  0.8994384E-01
         -2   -1    0    0    0  501 -0.00000000000E+00  0.00000000000E+00  0.28317490528E+03  0.28317490528E+03  0.00000000000E+00 0. -1.
          2   -1    0    0  501    0  0.00000000000E+00 -0.00000000000E+00 -0.15978327165E+04  0.15978327165E+04  0.00000000000E+00 0.  1.
         23    2    1    2    0    0 -0.29974526296E+02  0.66859691613E+03 -0.68820668094E+03  0.96429538387E+03  0.91196727868E+02 0.  0.
         11    1    3    3    0    0  0.32580405650E+02  0.21145644223E+03 -0.22582039534E+03  0.31107902653E+03  0.00000000000E+00 0.  1.
        -11    1    3    3    0    0 -0.62554931946E+02  0.45714047390E+03 -0.46238628560E+03  0.65321635734E+03  0.00000000000E+00 0. -1.
         22    1    1    2    0    0  0.29974526296E+02 -0.66859691613E+03 -0.62645113025E+03  0.91671223788E+03  0.00000000000E+00 0.  1.
<mgrwt>
<rscale>  0 0.13453121E+04</rscale>
<asrwt>0</asrwt>
<pdfrwt beam="1">  1        2 0.24582042E+00 0.13453121E+04</pdfrwt>
<pdfrwt beam="2">  1       -2 0.43565370E-01 0.13453121E+04</pdfrwt>
<totfact> 0.54579260E+01</totfact>
</mgrwt>
</event>
<event>
 6    1  0.2236204E-005  0.6755112E+03  0.7818608E-02  0.9760053E-01
         -2   -1    0    0    0  501 -0.00000000000E+00  0.00000000000E+00  0.15948672243E+03  0.15948672243E+03  0.00000000000E+00 0.  1.
          2   -1    0    0  501    0  0.00000000000E+00 -0.00000000000E+00 -0.71528744891E+03  0.71528744891E+03  0.00000000000E+00 0. -1.
         23    2    1    2    0    0 -0.20456550106E+02 -0.11738052537E+03 -0.68229223357E+03  0.70100202298E+03  0.10809480128E+03 0.  0.
         13    1    3    3    0    0 -0.56843152172E+02 -0.10427867673E+03 -0.44485419534E+03  0.46043505675E+03  0.00000000000E+00 0. -1.
        -13    1    3    3    0    0  0.36386602066E+02 -0.13101848643E+02 -0.23743803823E+03  0.24056696624E+03  0.00000000000E+00 0.  1.
         22    1    1    2    0    0  0.20456550106E+02  0.11738052537E+03  0.12649150708E+03  0.17377214835E+03  0.00000000000E+00 0.  1.
<mgrwt>
<rscale>  0 0.67551122E+03</rscale>
<asrwt>0</asrwt>
<pdfrwt beam="1">  1        2 0.11004422E+00 0.67551122E+03</pdfrwt>
<pdfrwt beam="2">  1       -2 0.24536419E-01 0.67551122E+03</pdfrwt>
<totfact> 0.59450107E+02</totfact>
</mgrwt>
</event>
<event>
 6    1  0.2236204E-005  0.3467070E+04  0.7818608E-02  0.8121639E-01
         -2   -1    0    0    0  501 -0.00000000000E+00  0.00000000000E+00  0.13654863209E+04  0.13654863209E+04  0.00000000000E+00 0.  1.
          2   -1    0    0  501    0  0.00000000000E+00 -0.00000000000E+00 -0.22007858855E+04  0.22007858855E+04  0.00000000000E+00 0. -1.
         23    2    1    2    0    0 -0.58626220241E+02  0.11893866564E+04  0.87571596070E+03  0.14816495114E+04  0.10163256716E+03 0.  0.
         13    1    3    3    0    0  0.28756746968E+02  0.26681441199E+03  0.20463930185E+03  0.33748203627E+03  0.00000000000E+00 0.  1.
        -13    1    3    3    0    0 -0.87382967209E+02  0.92257224445E+03  0.67107665884E+03  0.11441674752E+04  0.00000000000E+00 0. -1.
         22    1    1    2    0    0  0.58626220241E+02 -0.11893866564E+04 -0.17110155254E+04  0.20846226950E+04  0.00000000000E+00 0. -1.
<mgrwt>
<rscale>  0 0.34670697E+04</rscale>
<asrwt>0</asrwt>
<pdfrwt beam="1">  1        2 0.33858244E+00 0.34670697E+04</pdfrwt>
<pdfrwt beam="2">  1       -2 0.21007482E+00 0.34670697E+04</pdfrwt>
<totfact> 0.48616850E-01</totfact>
</mgrwt>
</event>
<event>
 6    1  0.2236204E-005  0.3694569E+04  0.7818608E-02  0.8069167E-01
          1   -1    0    0  501    0  0.00000000000E+00  0.00000000000E+00  0.19573957554E+04  0.19573957554E+04  0.00000000000E+00 0. -1.
         -1   -1    0    0    0  501 -0.00000000000E+00 -0.00000000000E+00 -0.17433672022E+04  0.17433672022E+04  0.00000000000E+00 0.  1.
         23    2    1    2    0    0  0.39686611442E+03  0.10792338884E+04 -0.13396869820E+04  0.17678168996E+04  0.90370805212E+02 0.  0.
         13    1    3    3    0    0  0.25902299689E+02  0.40118234569E+02 -0.35402226290E+02  0.59445096521E+02  0.00000000000E+00 0. -1.
        -13    1    3    3    0    0  0.37096381473E+03  0.10391156538E+04 -0.13042847557E+04  0.17083718031E+04  0.00000000000E+00 0.  1.
         22    1    1    2    0    0 -0.39686611442E+03 -0.10792338884E+04  0.15537155352E+04  0.19329460580E+04  0.00000000000E+00 0. -1.
<mgrwt>
<rscale>  0 0.36945687E+04</rscale>
<asrwt>0</asrwt>
<pdfrwt beam="1">  1        1 0.30113781E+00 0.36945687E+04</pdfrwt>
<pdfrwt beam="2">  1       -1 0.26821034E+00 0.36945687E+04</pdfrwt>
<totfact> 0.13568946E-01</totfact>
</mgrwt>
</event>
<event>
 6    1  0.2236204E-005  0.7422924E+03  0.7818608E-02  0.9647520E-01
          2   -1    0    0  501    0  0.00000000000E+00  0.00000000000E+00  0.14838620595E+03  0.14838620595E+03  0.00000000000E+00 0. -1.
         -2   -1    0    0    0  501 -0.00000000000E+00 -0.00000000000E+00 -0.92831749123E+03  0.92831749123E+03  0.00000000000E+00 0.  1.
         23    2    1    2    0    0  0.17972172821E+03 -0.64458760807E+01  0.64867995313E+02  0.21297499359E+03  0.93856497761E+02 0.  0.
         13    1    3    3    0    0  0.95822211676E+02 -0.41119527605E+02  0.63690852703E+02  0.12218525492E+03  0.00000000000E+00 0.  1.
        -13    1    3    3    0    0  0.83899516532E+02  0.34673651525E+02  0.11771426094E+01  0.90789738678E+02  0.00000000000E+00 0. -1.
         22    1    1    2    0    0 -0.17972172821E+03  0.64458760807E+01 -0.84479928060E+03  0.86372870359E+03  0.00000000000E+00 0.  1.
<mgrwt>
<rscale>  0 0.74229242E+03</rscale>
<asrwt>0</asrwt>
<pdfrwt beam="1">  1        2 0.22828647E-01 0.74229242E+03</pdfrwt>
<pdfrwt beam="2">  1       -2 0.14281808E+00 0.74229242E+03</pdfrwt>
<totfact> 0.83888085E+01</totfact>
</mgrwt>
</event>
<event>
 6    1  0.2236204E-005  0.1032124E+04  0.7818608E-02  0.9273997E-01
         -2   -1    0    0    0  501 -0.00000000000E+00  0.00000000000E+00  0.17440365225E+03  0.17440365225E+03  0.00000000000E+00 0.  1.
          2   -1    0    0  501    0  0.00000000000E+00 -0.00000000000E+00 -0.15270315095E+04  0.15270315095E+04  0.00000000000E+00 0. -1.
         23    2    1    2    0    0 -0.40608587934E+03 -0.30789273895E+03 -0.59465768461E+03  0.78807736620E+03  0.88002801919E+02 0.  0.
         11    1    3    3    0    0 -0.11173212097E+03 -0.38869973478E+02 -0.13014208064E+03  0.17587467938E+03  0.00000000000E+00 0. -1.
        -11    1    3    3    0    0 -0.29435375837E+03 -0.26902276547E+03 -0.46451560397E+03  0.61220268681E+03  0.00000000000E+00 0.  1.
         22    1    1    2    0    0  0.40608587934E+03  0.30789273895E+03 -0.75797017267E+03  0.91335779559E+03  0.00000000000E+00 0. -1.
<mgrwt>
<rscale>  0 0.10321238E+04</rscale>
<asrwt>0</asrwt>
<pdfrwt beam="1">  1        2 0.23492793E+00 0.10321238E+04</pdfrwt>
<pdfrwt beam="2">  1       -2 0.26831330E-01 0.10321238E+04</pdfrwt>
<totfact> 0.15390795E+02</totfact>
</mgrwt>
</event>
<event>
 6    1  0.2236204E-005  0.1266038E+04  0.7818608E-02  0.9056939E-01
          2   -1    0    0  501    0  0.00000000000E+00  0.00000000000E+00  0.11615167836E+04  0.11615167836E+04  0.00000000000E+00 0. -1.
         -2   -1    0    0    0  501 -0.00000000000E+00 -0.00000000000E+00 -0.34499127931E+03  0.34499127931E+03  0.00000000000E+00 0.  1.
         23    2    1    2    0    0 -0.37061458820E+03  0.54497653452E+02  0.10131732366E+04  0.10834294675E+04  0.83511893573E+02 0.  0.
         13    1    3    3    0    0 -0.26506942182E+03  0.59546017231E+02  0.63282396747E+03  0.68867532289E+03  0.00000000000E+00 0. -1.
        -13    1    3    3    0    0 -0.10554516638E+03 -0.50483637792E+01  0.38034926916E+03  0.39475414459E+03  0.00000000000E+00 0.  1.
         22    1    1    2    0    0  0.37061458820E+03 -0.54497653452E+02 -0.19664773239E+03  0.42307859538E+03  0.00000000000E+00 0.  1.
<mgrwt>
<rscale>  0 0.12660382E+04</rscale>
<asrwt>0</asrwt>
<pdfrwt beam="1">  1        2 0.17869489E+00 0.12660382E+04</pdfrwt>
<pdfrwt beam="2">  1       -2 0.53075582E-01 0.12660382E+04</pdfrwt>
<totfact> 0.65690977E+01</totfact>
</mgrwt>
</event>
<event>
 6    1  0.2236204E-005  0.3535181E+04  0.7818608E-02  0.8105503E-01
         -2   -1    0    0    0  501 -0.00000000000E+00  0.00000000000E+00  0.20398386876E+04  0.20398386876E+04  0.00000000000E+00 0.  1.
          2   -1    0    0  501    0  0.00000000000E+00 -0.00000000000E+00 -0.15316776735E+04  0.15316776735E+04  0.00000000000E+00 0. -1.
         23    2    1    2    0    0 -0.45018920634E+03  0.13494288565E+04  0.13121807363E+04  0.19374795580E+04  0.91543393137E+02 0.  0.
         11    1    3    3    0    0 -0.19726906044E+03  0.46693852745E+03  0.44076296997E+03  0.67172811935E+03  0.00000000000E+00 0.  1.
        -11    1    3    3    0    0 -0.25292014590E+03  0.88249032903E+03  0.87141776628E+03  0.12657514386E+04  0.00000000000E+00 0. -1.
         22    1    1    2    0    0  0.45018920634E+03 -0.13494288565E+04 -0.80401972218E+03  0.16340368031E+04  0.00000000000E+00 0. -1.
<mgrwt>
<rscale>  0 0.35351805E+04</rscale>
<asrwt>0</asrwt>
<pdfrwt beam="1">  1        2 0.23564272E+00 0.35351805E+04</pdfrwt>
<pdfrwt beam="2">  1       -2 0.31382133E+00 0.35351805E+04</pdfrwt>
<totfact> 0.26087566E-01</totfact>
</mgrwt>
</event>
<event>
 6    1  0.2236204E-005  0.1427694E+04  0.7818608E-02  0.8934013E-01
         -2   -1    0    0    0  501 -0.00000000000E+00  0.00000000000E+00  0.47731631904E+03  0.47731631904E+03  0.00000000000E+00 0.  1.
          2   -1    0    0  501    0  0.00000000000E+00 -0.00000000000E+00 -0.10675882316E+04  0.10675882316E+04  0.00000000000E+00 0. -1.
         23    2    1    2    0    0  0.56751081803E+03  0.42280510948E+03 -0.22469332428E+03  0.74836177504E+03  0.93410744453E+02 0.  0.
         11    1    3    3    0    0  0.17238547161E+03  0.77447022640E+02 -0.64053601680E+02  0.19954361935E+03  0.00000000000E+00 0. -1.
        -11    1    3    3    0    0  0.39512534643E+03  0.34535808684E+03 -0.16063972260E+03  0.54881815569E+03  0.00000000000E+00 0.  1.
         22    1    1    2    0    0 -0.56751081803E+03 -0.42280510948E+03 -0.36557858831E+03  0.79654277563E+03  0.00000000000E+00 0.  1.
<mgrwt>
<rscale>  0 0.14276936E+04</rscale>
<asrwt>0</asrwt>
<pdfrwt beam="1">  1        2 0.16424434E+00 0.14276936E+04</pdfrwt>
<pdfrwt beam="2">  1       -2 0.73433280E-01 0.14276936E+04</pdfrwt>
<totfact> 0.37098146E+01</totfact>
</mgrwt>
</event>
<event>
 6    1  0.2236204E-005  0.3491292E+03  0.7818608E-02  0.1062973E+00
          2   -1    0    0  501    0  0.00000000000E+00  0.00000000000E+00  0.35980325370E+03  0.35980325370E+03  0.00000000000E+00 0. -1.
         -2   -1    0    0    0  501 -0.00000000000E+00 -0.00000000000E+00 -0.84692937561E+02  0.84692937561E+02  0.00000000000E+00 0.  1.
         23    2    1    2    0    0  0.12263877272E+03 -0.10713764177E+03  0.13923309678E+03  0.23240809258E+03  0.90049560803E+02 0.  0.
         11    1    3    3    0    0  0.77199437688E+02 -0.78197418816E+02  0.14068856393E+03  0.17851571782E+03  0.00000000000E+00 0. -1.
        -11    1    3    3    0    0  0.45439335035E+02 -0.28940222956E+02 -0.14554671488E+01  0.53892374765E+02  0.00000000000E+00 0.  1.
         22    1    1    2    0    0 -0.12263877272E+03  0.10713764177E+03  0.13587721936E+03  0.21208809868E+03  0.00000000000E+00 0.  1.
<mgrwt>
<rscale>  0 0.34912917E+03</rscale>
<asrwt>0</asrwt>
<pdfrwt beam="1">  1        2 0.55354346E-01 0.34912917E+03</pdfrwt>
<pdfrwt beam="2">  1       -2 0.13029683E-01 0.34912917E+03</pdfrwt>
<totfact> 0.38879530E+03</totfact>
</mgrwt>
</event>
<event>
 6    1  0.2236204E-005  0.2173186E+04  0.7818608E-02  0.8529672E-01
          2   -1    0    0  501    0  0.00000000000E+00  0.00000000000E+00  0.28001315093E+04  0.28001315093E+04  0.00000000000E+00 0.  1.
         -2   -1    0    0    0  501 -0.00000000000E+00 -0.00000000000E+00 -0.42165305403E+03  0.42165305403E+03  0.00000000000E+00 0. -1.
         23    2    1    2    0    0  0.42085213675E+03  0.23603956794E+03 -0.24871526632E+03  0.55064659433E+03  0.92310289258E+02 0.  0.
         11    1    3    3    0    0  0.40653195065E+02  0.38908571283E+02 -0.18030663679E+01  0.56301067811E+02  0.00000000000E+00 0. -1.
        -11    1    3    3    0    0  0.38019894169E+03  0.19713099666E+03 -0.24691219995E+03  0.49434552652E+03  0.00000000000E+00 0.  1.
         22    1    1    2    0    0 -0.42085213675E+03 -0.23603956794E+03  0.26271937216E+04  0.26711379690E+04  0.00000000000E+00 0.  1.
<mgrwt>
<rscale>  0 0.21731857E+04</rscale>
<asrwt>0</asrwt>
<pdfrwt beam="1">  1        2 0.43078945E+00 0.21731857E+04</pdfrwt>
<pdfrwt beam="2">  1       -2 0.64869702E-01 0.21731857E+04</pdfrwt>
<totfact> 0.46472287E+00</totfact>
</mgrwt>
</event>
<event>
 6    1  0.2236204E-005  0.2558164E+04  0.7818608E-02  0.8382552E-01
          2   -1    0    0  501    0  0.00000000000E+00  0.00000000000E+00  0.92759270773E+03  0.92759270773E+03  0.00000000000E+00 0. -1.
         -2   -1    0    0    0  501 -0.00000000000E+00 -0.00000000000E+00 -0.17637598876E+04  0.17637598876E+04  0.00000000000E+00 0.  1.
         23    2    1    2    0    0  0.11143049085E+03 -0.11673902825E+04  0.11453068842E+03  0.11817025489E+04  0.89926689755E+02 0.  0.
         13    1    3    3    0    0  0.40338859544E+02 -0.44160848611E+03 -0.39406830095E+00  0.44344721657E+03  0.00000000000E+00 0. -1.
        -13    1    3    3    0    0  0.71091631304E+02 -0.72578179637E+03  0.11492475672E+03  0.73825533232E+03  0.00000000000E+00 0.  1.
         22    1    1    2    0    0 -0.11143049085E+03  0.11673902825E+04 -0.95069786825E+03  0.15096500464E+04  0.00000000000E+00 0.  1.
<mgrwt>
<rscale>  0 0.25581640E+04</rscale>
<asrwt>0</asrwt>
<pdfrwt beam="1">  1        2 0.14270657E+00 0.25581640E+04</pdfrwt>
<pdfrwt beam="2">  1       -2 0.27134767E+00 0.25581640E+04</pdfrwt>
<totfact> 0.11859242E+00</totfact>
</mgrwt>
</event>
<event>
 6    1  0.2236204E-005  0.2040686E+04  0.7818608E-02  0.8587831E-01
         -1   -1    0    0    0  501 -0.00000000000E+00  0.00000000000E+00  0.13546128870E+04  0.13546128870E+04  0.00000000000E+00 0.  1.
          1   -1    0    0  501    0  0.00000000000E+00 -0.00000000000E+00 -0.76855895509E+03  0.76855895509E+03  0.00000000000E+00 0. -1.
         23    2    1    2    0    0  0.27292270455E+03 -0.96123372084E+03  0.49795529113E+03  0.11200674411E+04  0.90191640350E+02 0.  0.
         13    1    3    3    0    0  0.12553291133E+03 -0.36688401951E+03  0.23679027606E+03  0.45434791783E+03  0.00000000000E+00 0. -1.
        -13    1    3    3    0    0  0.14738979322E+03 -0.59434970132E+03  0.26116501507E+03  0.66571952330E+03  0.00000000000E+00 0.  1.
         22    1    1    2    0    0 -0.27292270455E+03  0.96123372084E+03  0.88098640802E+02  0.10031044010E+04  0.00000000000E+00 0.  1.
<mgrwt>
<rscale>  0 0.20406860E+04</rscale>
<asrwt>0</asrwt>
<pdfrwt beam="1">  1        1 0.11823984E+00 0.20406860E+04</pdfrwt>
<pdfrwt beam="2">  1       -1 0.20840198E+00 0.20406860E+04</pdfrwt>
<totfact> 0.28716099E+00</totfact>
</mgrwt>
</event>
<event>
 6    1  0.2236204E-005  0.1012290E+04  0.7818608E-02  0.9295167E-01
         -2   -1    0    0    0  501 -0.00000000000E+00  0.00000000000E+00  0.15888193195E+03  0.15888193195E+03  0.00000000000E+00 0.  1.
          2   -1    0    0  501    0  0.00000000000E+00 -0.00000000000E+00 -0.16124110141E+04  0.16124110141E+04  0.00000000000E+00 0. -1.
         23    2    1    2    0    0 -0.14478043048E+03  0.48061230422E+03 -0.71366935539E+03  0.87723367772E+03  0.90914335924E+02 0.  0.
         11    1    3    3    0    0 -0.74593848520E+02  0.25679277116E+03 -0.45731836940E+03  0.52976113537E+03  0.00000000000E+00 0.  1.
        -11    1    3    3    0    0 -0.70186581961E+02  0.22381953306E+03 -0.25635098599E+03  0.34747254234E+03  0.00000000000E+00 0. -1.
         22    1    1    2    0    0  0.14478043048E+03 -0.48061230422E+03 -0.73985972671E+03  0.89405926830E+03  0.00000000000E+00 0.  1.
<mgrwt>
<rscale>  0 0.10122904E+04</rscale>
<asrwt>0</asrwt>
<pdfrwt beam="1">  1        2 0.24806324E+00 0.10122904E+04</pdfrwt>
<pdfrwt beam="2">  1       -2 0.24443374E-01 0.10122904E+04</pdfrwt>
<totfact> 0.16359490E+02</totfact>
</mgrwt>
</event>
<event>
 6    1  0.2236204E-005  0.5093956E+04  0.7818608E-02  0.7814175E-01
          2   -1    0    0  501    0  0.00000000000E+00  0.00000000000E+00  0.26500426556E+04  0.26500426556E+04  0.00000000000E+00 0. -1.
         -2   -1    0    0    0  501 -0.00000000000E+00 -0.00000000000E+00 -0.24479221223E+04  0.24479221223E+04  0.00000000000E+00 0.  1.
         23    2    1    2    0    0 -0.12919640098E+04  0.10759538237E+04  0.20147157820E+04  0.26256482188E+04  0.90006962430E+02 0.  0.
         13    1    3    3    0    0 -0.95715651588E+03  0.82446173766E+03  0.14610198531E+04  0.19314411106E+04  0.00000000000E+00 0.  1.
        -13    1    3    3    0    0 -0.33480749392E+03  0.25149208607E+03  0.55369592887E+03  0.69420710814E+03  0.00000000000E+00 0. -1.
         22    1    1    2    0    0  0.12919640098E+04 -0.10759538237E+04 -0.18125952486E+04  0.24723165591E+04  0.00000000000E+00 0.  1.
<mgrwt>
<rscale>  0 0.50939564E+04</rscale>
<asrwt>0</asrwt>
<pdfrwt beam="1">  1        2 0.40769887E+00 0.50939564E+04</pdfrwt>
<pdfrwt beam="2">  1       -2 0.37660340E+00 0.50939564E+04</pdfrwt>
<totfact> 0.21641721E-02</totfact>
</mgrwt>
</event>
<event>
 6    1  0.2236204E-005  0.1643569E+04  0.7818608E-02  0.8794220E-01
         -1   -1    0    0    0  501 -0.00000000000E+00  0.00000000000E+00  0.33911046369E+03  0.33911046369E+03  0.00000000000E+00 0.  1.
          1   -1    0    0  501    0  0.00000000000E+00 -0.00000000000E+00 -0.19914737566E+04  0.19914737566E+04  0.00000000000E+00 0. -1.
         23    2    1    2    0    0  0.26464230652E+03  0.70502530296E+03 -0.12862188802E+04  0.14932324667E+04  0.91038254377E+02 0.  0.
         11    1    3    3    0    0  0.11993086538E+03  0.44297910395E+03 -0.79765891026E+03  0.92025737494E+03  0.00000000000E+00 0.  1.
        -11    1    3    3    0    0  0.14471144113E+03  0.26204619901E+03 -0.48855996994E+03  0.57297509181E+03  0.00000000000E+00 0. -1.
         22    1    1    2    0    0 -0.26464230652E+03 -0.70502530296E+03 -0.36614441274E+03  0.83735175356E+03  0.00000000000E+00 0. -1.
<mgrwt>
<rscale>  0 0.16435688E+04</rscale>
<asrwt>0</asrwt>
<pdfrwt beam="1">  1        1 0.30638058E+00 0.16435688E+04</pdfrwt>
<pdfrwt beam="2">  1       -1 0.52170840E-01 0.16435688E+04</pdfrwt>
<totfact> 0.10687468E+01</totfact>
</mgrwt>
</event>
<event>
 6    1  0.2236204E-005  0.2608775E+04  0.7818608E-02  0.8365227E-01
         -2   -1    0    0    0  501 -0.00000000000E+00  0.00000000000E+00  0.98744430282E+03  0.98744430282E+03  0.00000000000E+00 0. -1.
          2   -1    0    0  501    0  0.00000000000E+00 -0.00000000000E+00 -0.17230613358E+04  0.17230613358E+04  0.00000000000E+00 0.  1.
         23    2    1    2    0    0 -0.10648600428E+04  0.47640855049E+03 -0.97079268518E+03  0.15204637885E+04  0.92085161043E+02 0.  0.
         13    1    3    3    0    0 -0.31428956150E+03  0.95593912088E+02 -0.27854553366E+03  0.43070144976E+03  0.00000000000E+00 0. -1.
        -13    1    3    3    0    0 -0.75057048127E+03  0.38081463840E+03 -0.69224715151E+03  0.10897623387E+04  0.00000000000E+00 0.  1.
         22    1    1    2    0    0  0.10648600428E+04 -0.47640855049E+03  0.23517565219E+03  0.11900418501E+04  0.00000000000E+00 0.  1.
<mgrwt>
<rscale>  0 0.26087753E+04</rscale>
<asrwt>0</asrwt>
<pdfrwt beam="1">  1        2 0.26508636E+00 0.26087753E+04</pdfrwt>
<pdfrwt beam="2">  1       -2 0.15191451E+00 0.26087753E+04</pdfrwt>
<totfact> 0.24383865E+00</totfact>
</mgrwt>
</event>
<event>
 6    1  0.2236204E-005  0.3360824E+04  0.7818608E-02  0.8147589E-01
          2   -1    0    0  501    0  0.00000000000E+00  0.00000000000E+00  0.10644564441E+04  0.10644564441E+04  0.00000000000E+00 0. -1.
         -2   -1    0    0    0  501 -0.00000000000E+00 -0.00000000000E+00 -0.26527953401E+04  0.26527953401E+04  0.00000000000E+00 0.  1.
         23    2    1    2    0    0  0.10308722620E+02  0.87510869101E+03  0.79028606860E+03  0.11827344312E+04  0.91581513526E+02 0.  0.
         11    1    3    3    0    0  0.45599026721E+01  0.79377410736E+03  0.74885178033E+03  0.10912731625E+04  0.00000000000E+00 0.  1.
        -11    1    3    3    0    0  0.57488199475E+01  0.81334583656E+02  0.41434288274E+02  0.91461268710E+02  0.00000000000E+00 0. -1.
         22    1    1    2    0    0 -0.10308722620E+02 -0.87510869101E+03 -0.23786249646E+04  0.25345173531E+04  0.00000000000E+00 0.  1.
<mgrwt>
<rscale>  0 0.33608244E+04</rscale>
<asrwt>0</asrwt>
<pdfrwt beam="1">  1        2 0.16376253E+00 0.33608244E+04</pdfrwt>
<pdfrwt beam="2">  1       -2 0.40812236E+00 0.33608244E+04</pdfrwt>
<totfact> 0.12496765E-01</totfact>
</mgrwt>
</event>
<event>
 6    1  0.2236204E-005  0.5198460E+04  0.7818608E-02  0.7798601E-01
          2   -1    0    0  501    0  0.00000000000E+00  0.00000000000E+00  0.24164991986E+04  0.24164991986E+04  0.00000000000E+00 0. -1.
         -2   -1    0    0    0  501 -0.00000000000E+00 -0.00000000000E+00 -0.27957789669E+04  0.27957789669E+04  0.00000000000E+00 0.  1.
         23    2    1    2    0    0 -0.15419036430E+04  0.17073961134E+04 -0.14007441000E+04  0.26951254659E+04  0.94598682621E+02 0.  0.
         13    1    3    3    0    0 -0.42079164318E+03  0.51827218886E+03 -0.43538533143E+03  0.79701446382E+03  0.00000000000E+00 0.  1.
        -13    1    3    3    0    0 -0.11211119998E+04  0.11891239246E+04 -0.96535876858E+03  0.18981110020E+04  0.00000000000E+00 0. -1.
         22    1    1    2    0    0  0.15419036430E+04 -0.17073961134E+04  0.10214643317E+04  0.25171526996E+04  0.00000000000E+00 0.  1.
<mgrwt>
<rscale>  0 0.51984604E+04</rscale>
<asrwt>0</asrwt>
<pdfrwt beam="1">  1        2 0.37176911E+00 0.51984604E+04</pdfrwt>
<pdfrwt beam="2">  1       -2 0.43011984E+00 0.51984604E+04</pdfrwt>
<totfact> 0.13128797E-02</totfact>
</mgrwt>
</event>
<event>
 6    1  0.2236204E-005  0.3739899E+04  0.7818608E-02  0.8059177E-01
         -2   -1    0    0    0  501 -0.00000000000E+00  0.00000000000E+00  0.87261685721E+03  0.87261685721E+03  0.00000000000E+00 0.  1.
          2   -1    0    0  501    0  0.00000000000E+00 -0.00000000000E+00 -0.40071549012E+04  0.40071549012E+04  0.00000000000E+00 0. -1.
         23    2    1    2    0    0  0.99361217635E+03 -0.14013736969E+04 -0.25282648605E+04  0.30580471447E+04  0.91737338105E+02 0.  0.
         11    1    3    3    0    0  0.57610240344E+03 -0.87783875792E+03 -0.15009415482E+04  0.18317533664E+04  0.00000000000E+00 0. -1.
        -11    1    3    3    0    0  0.41750977291E+03 -0.52353493894E+03 -0.10273233123E+04  0.12262937783E+04  0.00000000000E+00 0.  1.
         22    1    1    2    0    0 -0.99361217635E+03  0.14013736969E+04 -0.60627318353E+03  0.18217246137E+04  0.00000000000E+00 0.  1.
<mgrwt>
<rscale>  0 0.37398989E+04</rscale>
<asrwt>0</asrwt>
<pdfrwt beam="1">  1        2 0.61648538E+00 0.37398989E+04</pdfrwt>
<pdfrwt beam="2">  1       -2 0.13424875E+00 0.37398989E+04</pdfrwt>
<totfact> 0.10849807E-01</totfact>
</mgrwt>
</event>
<event>
 6    1  0.2416727E-005  0.2598284E+04  0.7818608E-02  0.8368784E-01
         -2   -1    0    0    0  501 -0.00000000000E+00  0.00000000000E+00  0.72076685926E+03  0.72076685926E+03  0.00000000000E+00 0.  1.
          2   -1    0    0  501    0  0.00000000000E+00 -0.00000000000E+00 -0.23416311167E+04  0.23416311167E+04  0.00000000000E+00 0. -1.
         23    2    1    2    0    0 -0.81828756487E+03  0.81606453309E+03 -0.15069234074E+04  0.19011321242E+04  0.89046824547E+02 0.  0.
         11    1    3    3    0    0 -0.46856295023E+03  0.51788933462E+03 -0.86790573706E+03  0.11140112072E+04  0.00000000000E+00 0.  1.
        -11    1    3    3    0    0 -0.34972461464E+03  0.29817519847E+03 -0.63901767037E+03  0.78712091709E+03  0.00000000000E+00 0. -1.
         22    1    1    2    0    0  0.81828756487E+03 -0.81606453309E+03 -0.11394084997E+03  0.11612658517E+04  0.00000000000E+00 0.  1.
<mgrwt>
<rscale>  0 0.25982841E+04</rscale>
<asrwt>0</asrwt>
<pdfrwt beam="1">  1        2 0.36025095E+00 0.25982841E+04</pdfrwt>
<pdfrwt beam="2">  1       -2 0.11088721E+00 0.25982841E+04</pdfrwt>
<totfact> 0.24467571E+00</totfact>
</mgrwt>
</event>
<event>
 6    1  0.2236204E-005  0.2736906E+04  0.7818608E-02  0.8323129E-01
         -2   -1    0    0    0  501 -0.00000000000E+00  0.00000000000E+00  0.19970149998E+04  0.19970149998E+04  0.00000000000E+00 0.  1.
          2   -1    0    0  501    0  0.00000000000E+00 -0.00000000000E+00 -0.93773141070E+03  0.93773141070E+03  0.00000000000E+00 0. -1.
         23    2    1    2    0    0  0.53933102190E+03 -0.12416921219E+04  0.73333783686E+03  0.15422960846E+04  0.90639686777E+02 0.  0.
         13    1    3    3    0    0  0.50332104573E+03 -0.11653875183E+04  0.71112630802E+03  0.14550466552E+04  0.00000000000E+00 0.  1.
        -13    1    3    3    0    0  0.36009976168E+02 -0.76304603620E+02  0.22211528839E+02  0.87249429401E+02  0.00000000000E+00 0. -1.
         22    1    1    2    0    0 -0.53933102190E+03  0.12416921219E+04  0.32594575223E+03  0.13924503259E+04  0.00000000000E+00 0. -1.
<mgrwt>
<rscale>  0 0.27369061E+04</rscale>
<asrwt>0</asrwt>
<pdfrwt beam="1">  1        2 0.14426637E+00 0.27369061E+04</pdfrwt>
<pdfrwt beam="2">  1       -2 0.30723308E+00 0.27369061E+04</pdfrwt>
<totfact> 0.69434136E-01</totfact>
</mgrwt>
</event>
<event>
 6    1  0.2236204E-005  0.1054883E+04  0.7818608E-02  0.9250317E-01
          2   -1    0    0  501    0  0.00000000000E+00  0.00000000000E+00  0.59244035049E+03  0.59244035049E+03  0.00000000000E+00 0. -1.
         -2   -1    0    0    0  501 -0.00000000000E+00 -0.00000000000E+00 -0.46957415354E+03  0.46957415354E+03  0.00000000000E+00 0.  1.
         23    2    1    2    0    0  0.50250198833E+03  0.17379412003E+02 -0.84737854770E+02  0.51803864563E+03  0.91505421186E+02 0.  0.
         13    1    3    3    0    0  0.31543543488E+03  0.52141994998E+02 -0.69330160248E+02  0.32714671378E+03  0.00000000000E+00 0. -1.
        -13    1    3    3    0    0  0.18706655345E+03 -0.34762582995E+02 -0.15407694522E+02  0.19089193185E+03  0.00000000000E+00 0.  1.
         22    1    1    2    0    0 -0.50250198833E+03 -0.17379412003E+02  0.20760405172E+03  0.54397585840E+03  0.00000000000E+00 0. -1.
<mgrwt>
<rscale>  0 0.10548833E+04</rscale>
<asrwt>0</asrwt>
<pdfrwt beam="1">  1        2 0.91144670E-01 0.10548833E+04</pdfrwt>
<pdfrwt beam="2">  1       -2 0.72242177E-01 0.10548833E+04</pdfrwt>
<totfact> 0.87027328E+01</totfact>
</mgrwt>
</event>
<event>
 6    1  0.2236204E-005  0.6915140E+03  0.7818608E-02  0.9731855E-01
          2   -1    0    0  501    0  0.00000000000E+00  0.00000000000E+00  0.10630789504E+04  0.10630789504E+04  0.00000000000E+00 0. -1.
         -2   -1    0    0    0  501 -0.00000000000E+00 -0.00000000000E+00 -0.11245440050E+03  0.11245440050E+03  0.00000000000E+00 0.  1.
         23    2    1    2    0    0  0.33421276165E+03 -0.86439099641E+01  0.58500429164E+03  0.68010317369E+03  0.92398151489E+02 0.  0.
         13    1    3    3    0    0  0.12670327488E+03  0.41529634801E+02  0.22947522952E+03  0.26540028522E+03  0.00000000000E+00 0. -1.
        -13    1    3    3    0    0  0.20750948677E+03 -0.50173544765E+02  0.35552906212E+03  0.41470288847E+03  0.00000000000E+00 0.  1.
         22    1    1    2    0    0 -0.33421276165E+03  0.86439099641E+01  0.36562025824E+03  0.49543017718E+03  0.00000000000E+00 0.  1.
<mgrwt>
<rscale>  0 0.69151401E+03</rscale>
<asrwt>0</asrwt>
<pdfrwt beam="1">  1        2 0.16355060E+00 0.69151401E+03</pdfrwt>
<pdfrwt beam="2">  1       -2 0.17300678E-01 0.69151401E+03</pdfrwt>
<totfact> 0.63565260E+02</totfact>
</mgrwt>
</event>
<event>
 6    1  0.2236204E-005  0.3907041E+04  0.7818608E-02  0.8023566E-01
          2   -1    0    0  501    0  0.00000000000E+00  0.00000000000E+00  0.16842301255E+04  0.16842301255E+04  0.00000000000E+00 0. -1.
         -2   -1    0    0    0  501 -0.00000000000E+00 -0.00000000000E+00 -0.22658674024E+04  0.22658674024E+04  0.00000000000E+00 0.  1.
         23    2    1    2    0    0  0.14401189174E+04 -0.74016413989E+03  0.81339933134E+03  0.18128299760E+04  0.54301007133E+02 0.  0.
         13    1    3    3    0    0  0.26893124003E+03 -0.14861650603E+03  0.13310120529E+03  0.33485341356E+03  0.00000000000E+00 0. -1.
        -13    1    3    3    0    0  0.11711876774E+04 -0.59154763387E+03  0.68029812605E+03  0.14779765624E+04  0.00000000000E+00 0.  1.
         22    1    1    2    0    0 -0.14401189174E+04  0.74016413989E+03 -0.13950366083E+04  0.21372675519E+04  0.00000000000E+00 0.  1.
<mgrwt>
<rscale>  0 0.39070409E+04</rscale>
<asrwt>0</asrwt>
<pdfrwt beam="1">  1        2 0.25911233E+00 0.39070409E+04</pdfrwt>
<pdfrwt beam="2">  1       -2 0.34859498E+00 0.39070409E+04</pdfrwt>
<totfact> 0.12626186E-01</totfact>
</mgrwt>
</event>
<event>
 6    1  0.2236204E-005  0.9724943E+03  0.7818608E-02  0.9339238E-01
          2   -1    0    0  501    0  0.00000000000E+00  0.00000000000E+00  0.13361668971E+04  0.13361668971E+04  0.00000000000E+00 0. -1.
         -2   -1    0    0    0  501 -0.00000000000E+00 -0.00000000000E+00 -0.17695115264E+03  0.17695115264E+03  0.00000000000E+00 0.  1.
         23    2    1    2    0    0 -0.32559008528E+03 -0.34206210622E+03  0.73492856711E+03  0.87826767603E+03  0.90657177685E+02 0.  0.
         11    1    3    3    0    0 -0.31841068304E+03 -0.30136249982E+03  0.65323241847E+03  0.78671297937E+03  0.00000000000E+00 0. -1.
        -11    1    3    3    0    0 -0.71794022313E+01 -0.40699606398E+02  0.81696148642E+02  0.91554696659E+02  0.00000000000E+00 0.  1.
         22    1    1    2    0    0  0.32559008528E+03  0.34206210622E+03  0.42428717734E+03  0.63485037370E+03  0.00000000000E+00 0. -1.
<mgrwt>
<rscale>  0 0.97249426E+03</rscale>
<asrwt>0</asrwt>
<pdfrwt beam="1">  1        2 0.20556413E+00 0.97249426E+03</pdfrwt>
<pdfrwt beam="2">  1       -2 0.27223255E-01 0.97249426E+03</pdfrwt>
<totfact> 0.19304876E+02</totfact>
</mgrwt>
</event>
<event>
 6    1  0.2236204E-005  0.4073394E+04  0.7818608E-02  0.7989902E-01
         -2   -1    0    0    0  501 -0.00000000000E+00  0.00000000000E+00  0.20244026759E+04  0.20244026759E+04  0.00000000000E+00 0. -1.
          2   -1    0    0  501    0  0.00000000000E+00 -0.00000000000E+00 -0.20490664597E+04  0.20490664597E+04  0.00000000000E+00 0.  1.
         23    2    1    2    0    0  0.12704400564E+04  0.14313085105E+04  0.68149111467E+03  0.20335385658E+04  0.90481876714E+02 0.  0.
         13    1    3    3    0    0  0.12040615762E+04  0.13408248014E+04  0.62131717053E+03  0.19062031513E+04  0.00000000000E+00 0. -1.
        -13    1    3    3    0    0  0.66378480131E+02  0.90483709132E+02  0.60173944138E+02  0.12733541454E+03  0.00000000000E+00 0.  1.
         22    1    1    2    0    0 -0.12704400564E+04 -0.14313085105E+04 -0.70615489844E+03  0.20399305698E+04  0.00000000000E+00 0.  1.
<mgrwt>
<rscale>  0 0.40733945E+04</rscale>
<asrwt>0</asrwt>
<pdfrwt beam="1">  1        2 0.31524099E+00 0.40733945E+04</pdfrwt>
<pdfrwt beam="2">  1       -2 0.31144657E+00 0.40733945E+04</pdfrwt>
<totfact> 0.13301233E-01</totfact>
</mgrwt>
</event>
<event>
 6    1  0.2236204E-005  0.5071559E+04  0.7818608E-02  0.7817562E-01
         -2   -1    0    0    0  501 -0.00000000000E+00  0.00000000000E+00  0.25375463949E+04  0.25375463949E+04  0.00000000000E+00 0.  1.
          2   -1    0    0  501    0  0.00000000000E+00 -0.00000000000E+00 -0.25340143177E+04  0.25340143177E+04  0.00000000000E+00 0. -1.
         23    2    1    2    0    0  0.14976115536E+03  0.22972601908E+04 -0.10594431125E+04  0.25358657306E+04  0.91446744982E+02 0.  0.
         11    1    3    3    0    0  0.81666589242E+02  0.14871488929E+04 -0.73022019790E+03  0.16587654442E+04  0.00000000000E+00 0.  1.
        -11    1    3    3    0    0  0.68094566119E+02  0.81011129789E+03 -0.32922291458E+03  0.87710028639E+03  0.00000000000E+00 0. -1.
         22    1    1    2    0    0 -0.14976115536E+03 -0.22972601908E+04  0.10629751897E+04  0.25356949820E+04  0.00000000000E+00 0.  1.
<mgrwt>
<rscale>  0 0.50715595E+04</rscale>
<asrwt>0</asrwt>
<pdfrwt beam="1">  1        2 0.38984836E+00 0.50715595E+04</pdfrwt>
<pdfrwt beam="2">  1       -2 0.39039175E+00 0.50715595E+04</pdfrwt>
<totfact> 0.20657592E-02</totfact>
</mgrwt>
</event>
<event>
 6    1  0.2236204E-005  0.3147358E+04  0.7818608E-02  0.8202860E-01
         -2   -1    0    0    0  501 -0.00000000000E+00  0.00000000000E+00  0.78826867435E+03  0.78826867435E+03  0.00000000000E+00 0.  1.
          2   -1    0    0  501    0  0.00000000000E+00 -0.00000000000E+00 -0.31416514701E+04  0.31416514701E+04  0.00000000000E+00 0. -1.
         23    2    1    2    0    0 -0.14075926120E+04  0.55475353349E+03 -0.64310251910E+03  0.16464738304E+04  0.90701597869E+02 0.  0.
         11    1    3    3    0    0 -0.24462394977E+03  0.11636498308E+03 -0.14757036344E+03  0.30847803529E+03  0.00000000000E+00 0.  1.
        -11    1    3    3    0    0 -0.11629686623E+04  0.43838855041E+03 -0.49553215566E+03  0.13379957951E+04  0.00000000000E+00 0. -1.
         22    1    1    2    0    0  0.14075926120E+04 -0.55475353349E+03 -0.17102802767E+04  0.22834463140E+04  0.00000000000E+00 0. -1.
<mgrwt>
<rscale>  0 0.31473579E+04</rscale>
<asrwt>0</asrwt>
<pdfrwt beam="1">  1        2 0.48333099E+00 0.31473579E+04</pdfrwt>
<pdfrwt beam="2">  1       -2 0.12127210E+00 0.31473579E+04</pdfrwt>
<totfact> 0.61842526E-01</totfact>
</mgrwt>
</event>
<event>
 6    1  0.2236204E-005  0.3367915E+04  0.7818608E-02  0.8145826E-01
          1   -1    0    0  501    0  0.00000000000E+00  0.00000000000E+00  0.29752337867E+04  0.29752337867E+04  0.00000000000E+00 0. -1.
         -1   -1    0    0    0  501 -0.00000000000E+00 -0.00000000000E+00 -0.95310606280E+03  0.95310606280E+03  0.00000000000E+00 0.  1.
         23    2    1    2    0    0  0.11007549065E+04  0.66888326411E+03  0.22748166496E+04  0.26157401853E+04  0.90773029082E+02 0.  0.
         13    1    3    3    0    0  0.91438169605E+03  0.52393174987E+03  0.19021905149E+04  0.21746096476E+04  0.00000000000E+00 0. -1.
        -13    1    3    3    0    0  0.18637321045E+03  0.14495151424E+03  0.37262613469E+03  0.44113053771E+03  0.00000000000E+00 0.  1.
         22    1    1    2    0    0 -0.11007549065E+04 -0.66888326411E+03 -0.25268892569E+03  0.13125996642E+04  0.00000000000E+00 0.  1.
<mgrwt>
<rscale>  0 0.33679153E+04</rscale>
<asrwt>0</asrwt>
<pdfrwt beam="1">  1        1 0.45772827E+00 0.33679153E+04</pdfrwt>
<pdfrwt beam="2">  1       -1 0.14663170E+00 0.33679153E+04</pdfrwt>
<totfact> 0.19047597E-01</totfact>
</mgrwt>
</event>
<event>
 6    1  0.2236204E-005  0.8018830E+03  0.7818608E-02  0.9557295E-01
         -2   -1    0    0    0  501 -0.00000000000E+00  0.00000000000E+00  0.13341411484E+03  0.13341411484E+03  0.00000000000E+00 0.  1.
          2   -1    0    0  501    0  0.00000000000E+00 -0.00000000000E+00 -0.12049257561E+04  0.12049257561E+04  0.00000000000E+00 0. -1.
         23    2    1    2    0    0 -0.11644702558E+03  0.37780712009E+03 -0.49407747164E+03  0.63853393356E+03  0.85527227085E+02 0.  0.
         13    1    3    3    0    0 -0.98135523333E+01  0.13489293503E+03 -0.12623188360E+03  0.18500513011E+03  0.00000000000E+00 0.  1.
        -13    1    3    3    0    0 -0.10663347325E+03  0.24291418506E+03 -0.36784558804E+03  0.45352880346E+03  0.00000000000E+00 0. -1.
         22    1    1    2    0    0  0.11644702558E+03 -0.37780712009E+03 -0.57743416965E+03  0.69980593741E+03  0.00000000000E+00 0. -1.
<mgrwt>
<rscale>  0 0.80188304E+03</rscale>
<asrwt>0</asrwt>
<pdfrwt beam="1">  1        2 0.18537320E+00 0.80188304E+03</pdfrwt>
<pdfrwt beam="2">  1       -2 0.20525248E-01 0.80188304E+03</pdfrwt>
<totfact> 0.38584926E+02</totfact>
</mgrwt>
</event>
<event>
 6    1  0.2236204E-005  0.1401999E+04  0.7818608E-02  0.8952373E-01
         -2   -1    0    0    0  501 -0.00000000000E+00  0.00000000000E+00  0.15184381356E+04  0.15184381356E+04  0.00000000000E+00 0.  1.
          2   -1    0    0  501    0  0.00000000000E+00 -0.00000000000E+00 -0.32362199945E+03  0.32362199945E+03  0.00000000000E+00 0. -1.
         23    2    1    2    0    0  0.21030275091E+03 -0.23416695496E+03  0.14184722930E+04  0.14559468274E+04  0.93038209804E+02 0.  0.
         11    1    3    3    0    0  0.16362231544E+03 -0.13794820600E+03  0.10792945587E+04  0.11003084631E+04  0.00000000000E+00 0.  1.
        -11    1    3    3    0    0  0.46680435475E+02 -0.96218748959E+02  0.33917773434E+03  0.35563836433E+03  0.00000000000E+00 0. -1.
         22    1    1    2    0    0 -0.21030275091E+03  0.23416695496E+03 -0.22365615683E+03  0.38611330763E+03  0.00000000000E+00 0. -1.
<mgrwt>
<rscale>  0 0.14019986E+04</rscale>
<asrwt>0</asrwt>
<pdfrwt beam="1">  1        2 0.49788001E-01 0.14019986E+04</pdfrwt>
<pdfrwt beam="2">  1       -2 0.23360586E+00 0.14019986E+04</pdfrwt>
<totfact> 0.79707749E+00</totfact>
</mgrwt>
</event>
<event>
 6    1  0.2236204E-005  0.9278447E+03  0.7818608E-02  0.9391428E-01
          2   -1    0    0  501    0  0.00000000000E+00  0.00000000000E+00  0.13600537418E+04  0.13600537418E+04  0.00000000000E+00 0. -1.
         -2   -1    0    0    0  501 -0.00000000000E+00 -0.00000000000E+00 -0.15824665466E+03  0.15824665466E+03  0.00000000000E+00 0.  1.
         23    2    1    2    0    0 -0.26734519852E+03  0.56791786631E+02  0.12110553068E+04  0.12448332288E+04  0.90862804604E+02 0.  0.
         13    1    3    3    0    0 -0.19252138472E+03 -0.20000208596E+01  0.83799325662E+03  0.85982625093E+03  0.00000000000E+00 0.  1.
        -13    1    3    3    0    0 -0.74823813799E+02  0.58791807490E+02  0.37306205018E+03  0.38500697789E+03  0.00000000000E+00 0. -1.
         22    1    1    2    0    0  0.26734519852E+03 -0.56791786631E+02 -0.92482196759E+01  0.27346716762E+03  0.00000000000E+00 0.  1.
<mgrwt>
<rscale>  0 0.92784472E+03</rscale>
<asrwt>0</asrwt>
<pdfrwt beam="1">  1        2 0.20923903E+00 0.92784472E+03</pdfrwt>
<pdfrwt beam="2">  1       -2 0.24345640E-01 0.92784472E+03</pdfrwt>
<totfact> 0.22974770E+02</totfact>
</mgrwt>
</event>
<event>
 6    1  0.2236204E-005  0.2573813E+04  0.7818608E-02  0.8377151E-01
         -2   -1    0    0    0  501 -0.00000000000E+00  0.00000000000E+00  0.62580125599E+03  0.62580125599E+03  0.00000000000E+00 0.  1.
          2   -1    0    0  501    0  0.00000000000E+00 -0.00000000000E+00 -0.26464136113E+04  0.26464136113E+04  0.00000000000E+00 0. -1.
         23    2    1    2    0    0  0.63823093509E+03 -0.70617019058E+03  0.85855873106E+02  0.96067350666E+03  0.97505337650E+02 0.  0.
         11    1    3    3    0    0  0.15667622909E+03 -0.14263205432E+03  0.54379624584E+02  0.21874297075E+03  0.00000000000E+00 0.  1.
        -11    1    3    3    0    0  0.48155470600E+03 -0.56353813626E+03  0.31476248522E+02  0.74193053591E+03  0.00000000000E+00 0. -1.
         22    1    1    2    0    0 -0.63823093509E+03  0.70617019058E+03 -0.21064682284E+04  0.23115413607E+04  0.00000000000E+00 0. -1.
<mgrwt>
<rscale>  0 0.25738135E+04</rscale>
<asrwt>0</asrwt>
<pdfrwt beam="1">  1        2 0.40714054E+00 0.25738135E+04</pdfrwt>
<pdfrwt beam="2">  1       -2 0.96277119E-01 0.25738135E+04</pdfrwt>
<totfact> 0.22875905E+00</totfact>
</mgrwt>
</event>
<event>
 6    1  0.2236204E-005  0.2972091E+04  0.7818608E-02  0.8251746E-01
         -2   -1    0    0    0  501 -0.00000000000E+00  0.00000000000E+00  0.86063443155E+03  0.86063443155E+03  0.00000000000E+00 0.  1.
          2   -1    0    0  501    0  0.00000000000E+00 -0.00000000000E+00 -0.25659346290E+04  0.25659346290E+04  0.00000000000E+00 0. -1.
         23    2    1    2    0    0 -0.57617530987E+03 -0.13600827952E+04 -0.67998607217E+03  0.16284944645E+04  0.88374007607E+02 0.  0.
         13    1    3    3    0    0 -0.41502373261E+03 -0.10523825982E+04 -0.54691078421E+03  0.12565290436E+04  0.00000000000E+00 0.  1.
        -13    1    3    3    0    0 -0.16115157726E+03 -0.30770019697E+03 -0.13307528796E+03  0.37196542088E+03  0.00000000000E+00 0. -1.
         22    1    1    2    0    0  0.57617530987E+03  0.13600827952E+04 -0.10253141253E+04  0.17980745960E+04  0.00000000000E+00 0. -1.
<mgrwt>
<rscale>  0 0.29720913E+04</rscale>
<asrwt>0</asrwt>
<pdfrwt beam="1">  1        2 0.39475918E+00 0.29720913E+04</pdfrwt>
<pdfrwt beam="2">  1       -2 0.13240530E+00 0.29720913E+04</pdfrwt>
<totfact> 0.11330218E+00</totfact>
</mgrwt>
</event>
<event>
 6    1  0.2236204E-005  0.1454683E+04  0.7818608E-02  0.8915160E-01
          2   -1    0    0  501    0  0.00000000000E+00  0.00000000000E+00  0.77247543837E+03  0.77247543837E+03  0.00000000000E+00 0. -1.
         -2   -1    0    0    0  501 -0.00000000000E+00 -0.00000000000E+00 -0.68484437237E+03  0.68484437237E+03  0.00000000000E+00 0.  1.
         23    2    1    2    0    0  0.21734557704E+02 -0.54875553961E+03 -0.42932985571E+03  0.70309595284E+03  0.91732004533E+02 0.  0.
         11    1    3    3    0    0  0.41148354029E+02 -0.23359813925E+03 -0.22541562853E+03  0.32722084787E+03  0.00000000000E+00 0. -1.
        -11    1    3    3    0    0 -0.19413796325E+02 -0.31515740036E+03 -0.20391422718E+03  0.37587510497E+03  0.00000000000E+00 0.  1.
         22    1    1    2    0    0 -0.21734557704E+02  0.54875553961E+03  0.51696092170E+03  0.75422385789E+03  0.00000000000E+00 0. -1.
<mgrwt>
<rscale>  0 0.14546827E+04</rscale>
<asrwt>0</asrwt>
<pdfrwt beam="1">  1        2 0.11884238E+00 0.14546827E+04</pdfrwt>
<pdfrwt beam="2">  1       -2 0.10536067E+00 0.14546827E+04</pdfrwt>
<totfact> 0.25504539E+01</totfact>
</mgrwt>
</event>
<event>
 6    1  0.2236204E-005  0.3948018E+04  0.7818608E-02  0.8015116E-01
         -2   -1    0    0    0  501 -0.00000000000E+00  0.00000000000E+00  0.19395162084E+04  0.19395162084E+04  0.00000000000E+00 0.  1.
          2   -1    0    0  501    0  0.00000000000E+00 -0.00000000000E+00 -0.20091155804E+04  0.20091155804E+04  0.00000000000E+00 0. -1.
         23    2    1    2    0    0 -0.11154385786E+04  0.10011409780E+04 -0.13180439249E+04  0.19979651638E+04  0.90213785218E+02 0.  0.
         13    1    3    3    0    0 -0.71128695772E+03  0.68795245836E+03 -0.84004695859E+03  0.12980318231E+04  0.00000000000E+00 0. -1.
        -13    1    3    3    0    0 -0.40415162093E+03  0.31318851962E+03 -0.47799696633E+03  0.69993334064E+03  0.00000000000E+00 0.  1.
         22    1    1    2    0    0  0.11154385786E+04 -0.10011409780E+04  0.12484445530E+04  0.19506666251E+04  0.00000000000E+00 0.  1.
<mgrwt>
<rscale>  0 0.39480184E+04</rscale>
<asrwt>0</asrwt>
<pdfrwt beam="1">  1        2 0.30909470E+00 0.39480184E+04</pdfrwt>
<pdfrwt beam="2">  1       -2 0.29838711E+00 0.39480184E+04</pdfrwt>
<totfact> 0.17009833E-01</totfact>
</mgrwt>
</event>
<event>
 6    1  0.2236204E-005  0.3258956E+04  0.7818608E-02  0.8173418E-01
          2   -1    0    0  501    0  0.00000000000E+00  0.00000000000E+00  0.27441147092E+04  0.27441147092E+04  0.00000000000E+00 0. -1.
         -2   -1    0    0    0  501 -0.00000000000E+00 -0.00000000000E+00 -0.96759746928E+03  0.96759746928E+03  0.00000000000E+00 0.  1.
         23    2    1    2    0    0 -0.11784899953E+04 -0.11231249136E+04  0.85833393817E+03  0.18426726347E+04  0.91962214563E+02 0.  0.
         13    1    3    3    0    0 -0.56088055568E+03 -0.59757765474E+03  0.42512434016E+03  0.92326418526E+03  0.00000000000E+00 0.  1.
        -13    1    3    3    0    0 -0.61760943962E+03 -0.52554725881E+03  0.43320959801E+03  0.91940844947E+03  0.00000000000E+00 0. -1.
         22    1    1    2    0    0  0.11784899953E+04  0.11231249136E+04  0.91818330175E+03  0.18690395437E+04  0.00000000000E+00 0. -1.
<mgrwt>
<rscale>  0 0.32589559E+04</rscale>
<asrwt>0</asrwt>
<pdfrwt beam="1">  1        2 0.42217149E+00 0.32589559E+04</pdfrwt>
<pdfrwt beam="2">  1       -2 0.14886115E+00 0.32589559E+04</pdfrwt>
<totfact> 0.63997413E-01</totfact>
</mgrwt>
</event>
<event>
 6    1  0.2236204E-005  0.2598010E+04  0.7818608E-02  0.8368877E-01
          2   -1    0    0  501    0  0.00000000000E+00  0.00000000000E+00  0.13184172493E+04  0.13184172493E+04  0.00000000000E+00 0. -1.
         -2   -1    0    0    0  501 -0.00000000000E+00 -0.00000000000E+00 -0.12798787599E+04  0.12798787599E+04  0.00000000000E+00 0.  1.
         23    2    1    2    0    0  0.12700601902E+04 -0.23915448507E+03 -0.99747866275E+02  0.12985380046E+04  0.77482630654E+02 0.  0.
         11    1    3    3    0    0  0.31612220495E+03 -0.85644131782E+02 -0.34047175976E+01  0.32753588792E+03  0.00000000000E+00 0. -1.
        -11    1    3    3    0    0  0.95393798524E+03 -0.15351035329E+03 -0.96343148677E+02  0.97100211665E+03  0.00000000000E+00 0.  1.
         22    1    1    2    0    0 -0.12700601902E+04  0.23915448507E+03  0.13828635565E+03  0.12997580046E+04  0.00000000000E+00 0. -1.
<mgrwt>
<rscale>  0 0.25980102E+04</rscale>
<asrwt>0</asrwt>
<pdfrwt beam="1">  1        2 0.20283342E+00 0.25980102E+04</pdfrwt>
<pdfrwt beam="2">  1       -2 0.19690442E+00 0.25980102E+04</pdfrwt>
<totfact> 0.19891541E+00</totfact>
</mgrwt>
</event>
<event>
 6    1  0.2236204E-005  0.1935101E+04  0.7818608E-02  0.8637579E-01
          1   -1    0    0  501    0  0.00000000000E+00  0.00000000000E+00  0.17504653072E+04  0.17504653072E+04  0.00000000000E+00 0. -1.
         -1   -1    0    0    0  501 -0.00000000000E+00 -0.00000000000E+00 -0.53480289233E+03  0.53480289233E+03  0.00000000000E+00 0.  1.
         23    2    1    2    0    0 -0.43121304117E+03 -0.25150818166E+02 -0.41004193036E+03  0.60315884855E+03  0.95336044582E+02 0.  0.
         11    1    3    3    0    0 -0.60955480280E+02 -0.31304714313E+01 -0.18391387868E+02  0.63746478924E+02  0.00000000000E+00 0.  1.
        -11    1    3    3    0    0 -0.37025756089E+03 -0.22020346735E+02 -0.39165054249E+03  0.53941236963E+03  0.00000000000E+00 0. -1.
         22    1    1    2    0    0  0.43121304117E+03  0.25150818166E+02  0.16257043453E+04  0.16821093510E+04  0.00000000000E+00 0. -1.
<mgrwt>
<rscale>  0 0.19351009E+04</rscale>
<asrwt>0</asrwt>
<pdfrwt beam="1">  1        1 0.26930235E+00 0.19351009E+04</pdfrwt>
<pdfrwt beam="2">  1       -1 0.82277369E-01 0.19351009E+04</pdfrwt>
<totfact> 0.60322770E+00</totfact>
</mgrwt>
</event>
<event>
 6    1  0.2236204E-005  0.2678881E+04  0.7818608E-02  0.8341890E-01
         -2   -1    0    0    0  501 -0.00000000000E+00  0.00000000000E+00  0.66402798397E+03  0.66402798397E+03  0.00000000000E+00 0.  1.
          2   -1    0    0  501    0  0.00000000000E+00 -0.00000000000E+00 -0.27018449087E+04  0.27018449087E+04  0.00000000000E+00 0. -1.
         23    2    1    2    0    0 -0.33937070494E+03  0.63978124008E+03 -0.24335799019E+04  0.25405724355E+04  0.87776137394E+02 0.  0.
         13    1    3    3    0    0 -0.24202133848E+03  0.36533301285E+03 -0.14814923184E+04  0.15449472574E+04  0.00000000000E+00 0. -1.
        -13    1    3    3    0    0 -0.97349366463E+02  0.27444822724E+03 -0.95208758352E+03  0.99562517810E+03  0.00000000000E+00 0.  1.
         22    1    1    2    0    0  0.33937070494E+03 -0.63978124008E+03  0.39576297719E+03  0.82530045720E+03  0.00000000000E+00 0.  1.
<mgrwt>
<rscale>  0 0.26788808E+04</rscale>
<asrwt>0</asrwt>
<pdfrwt beam="1">  1        2 0.41566845E+00 0.26788808E+04</pdfrwt>
<pdfrwt beam="2">  1       -2 0.10215815E+00 0.26788808E+04</pdfrwt>
<totfact> 0.18268610E+00</totfact>
</mgrwt>
</event>
<event>
 6    1  0.2236204E-005  0.4231553E+04  0.7818608E-02  0.7959397E-01
         -2   -1    0    0    0  501 -0.00000000000E+00  0.00000000000E+00  0.17401728974E+04  0.17401728974E+04  0.00000000000E+00 0.  1.
          2   -1    0    0  501    0  0.00000000000E+00 -0.00000000000E+00 -0.25724518884E+04  0.25724518884E+04  0.00000000000E+00 0. -1.
         23    2    1    2    0    0 -0.11752441854E+04 -0.16193988136E+04  0.28140883220E+03  0.20226571048E+04  0.91101152293E+02 0.  0.
         11    1    3    3    0    0 -0.60294948251E+03 -0.87972980715E+03  0.11435382768E+03  0.10726366626E+04  0.00000000000E+00 0. -1.
        -11    1    3    3    0    0 -0.57229470294E+03 -0.73966900641E+03  0.16705500452E+03  0.95002044220E+03  0.00000000000E+00 0.  1.
         22    1    1    2    0    0  0.11752441854E+04  0.16193988136E+04 -0.11136878232E+04  0.22899676811E+04  0.00000000000E+00 0. -1.
<mgrwt>
<rscale>  0 0.42315534E+04</rscale>
<asrwt>0</asrwt>
<pdfrwt beam="1">  1        2 0.39576183E+00 0.42315534E+04</pdfrwt>
<pdfrwt beam="2">  1       -2 0.26771891E+00 0.42315534E+04</pdfrwt>
<totfact> 0.12239744E-01</totfact>
</mgrwt>
</event>
<event>
 6    1  0.2236204E-005  0.3131396E+04  0.7818608E-02  0.8207174E-01
          2   -1    0    0  501    0  0.00000000000E+00  0.00000000000E+00  0.17112735829E+04  0.17112735829E+04  0.00000000000E+00 0. -1.
         -2   -1    0    0    0  501 -0.00000000000E+00 -0.00000000000E+00 -0.14325059012E+04  0.14325059012E+04  0.00000000000E+00 0.  1.
         23    2    1    2    0    0  0.34549818658E+03 -0.87315684010E+03 -0.11166535759E+04  0.14618245649E+04  0.90796397496E+02 0.  0.
         13    1    3    3    0    0  0.14001911700E+03 -0.47499141601E+03 -0.57329826953E+03  0.75755732737E+03  0.00000000000E+00 0. -1.
        -13    1    3    3    0    0  0.20547906958E+03 -0.39816542409E+03 -0.54335530634E+03  0.70426723756E+03  0.00000000000E+00 0.  1.
         22    1    1    2    0    0 -0.34549818658E+03  0.87315684010E+03  0.13954212575E+04  0.16819549192E+04  0.00000000000E+00 0. -1.
<mgrwt>
<rscale>  0 0.31313955E+04</rscale>
<asrwt>0</asrwt>
<pdfrwt beam="1">  1        2 0.26327286E+00 0.31313955E+04</pdfrwt>
<pdfrwt beam="2">  1       -2 0.22038552E+00 0.31313955E+04</pdfrwt>
<totfact> 0.80455902E-01</totfact>
</mgrwt>
</event>
<event>
 6    1  0.2236204E-005  0.3736235E+04  0.7818608E-02  0.8059979E-01
          4   -1    0    0  501    0  0.00000000000E+00  0.00000000000E+00  0.13011101123E+04  0.13011101123E+04  0.00000000000E+00 0. -1.
         -4   -1    0    0    0  501 -0.00000000000E+00 -0.00000000000E+00 -0.26822200918E+04  0.26822200918E+04  0.00000000000E+00 0.  1.
         23    2    1    2    0    0  0.91790497484E+03 -0.16099257701E+04 -0.45002325825E+03  0.19093646763E+04  0.93498694977E+02 0.  0.
         11    1    3    3    0    0  0.45214126538E+03 -0.70902963248E+03 -0.22549250062E+03  0.87063287982E+03  0.00000000000E+00 0. -1.
        -11    1    3    3    0    0  0.46576370946E+03 -0.90089613767E+03 -0.22453075763E+03  0.10387317965E+04  0.00000000000E+00 0.  1.
         22    1    1    2    0    0 -0.91790497484E+03  0.16099257701E+04 -0.93108672126E+03  0.20739655278E+04  0.00000000000E+00 0.  1.
<mgrwt>
<rscale>  0 0.37362354E+04</rscale>
<asrwt>0</asrwt>
<pdfrwt beam="1">  1        4 0.20017079E+00 0.37362354E+04</pdfrwt>
<pdfrwt beam="2">  1       -4 0.41264925E+00 0.37362354E+04</pdfrwt>
<totfact> 0.11528453E-03</totfact>
</mgrwt>
</event>
<event>
 6    1  0.2236204E-005  0.5696030E+04  0.7818608E-02  0.7729277E-01
          2   -1    0    0  501    0  0.00000000000E+00  0.00000000000E+00  0.44899078540E+04  0.44899078540E+04  0.00000000000E+00 0. -1.
         -2   -1    0    0    0  501 -0.00000000000E+00 -0.00000000000E+00 -0.18065379650E+04  0.18065379650E+04  0.00000000000E+00 0.  1.
         23    2    1    2    0    0 -0.28250099186E+03 -0.25978696342E+04  0.92213724604E+02  0.26163882495E+04  0.90833113224E+02 0.  0.
         13    1    3    3    0    0 -0.48613646528E+02 -0.37854805692E+03  0.44753378057E+02  0.38427175654E+03  0.00000000000E+00 0. -1.
        -13    1    3    3    0    0 -0.23388734534E+03 -0.22193215772E+04  0.47460346547E+02  0.22321164929E+04  0.00000000000E+00 0.  1.
         22    1    1    2    0    0  0.28250099186E+03  0.25978696342E+04  0.25911561644E+04  0.36800575695E+04  0.00000000000E+00 0. -1.
<mgrwt>
<rscale>  0 0.56960298E+04</rscale>
<asrwt>0</asrwt>
<pdfrwt beam="1">  1        2 0.69075505E+00 0.56960298E+04</pdfrwt>
<pdfrwt beam="2">  1       -2 0.27792892E+00 0.56960298E+04</pdfrwt>
<totfact> 0.37199007E-03</totfact>
</mgrwt>
</event>
<event>
 6    1  0.2236204E-005  0.9202675E+03  0.7818608E-02  0.9400595E-01
         -2   -1    0    0    0  501 -0.00000000000E+00  0.00000000000E+00  0.94705010513E+02  0.94705010513E+02  0.00000000000E+00 0.  1.
          2   -1    0    0  501    0  0.00000000000E+00 -0.00000000000E+00 -0.22356056454E+04  0.22356056454E+04  0.00000000000E+00 0. -1.
         23    2    1    2    0    0  0.74197067085E+01 -0.14179041791E+03 -0.21769311749E+04  0.21838259315E+04  0.99532831157E+02 0.  0.
         13    1    3    3    0    0  0.26272125111E+02 -0.22607623874E+01 -0.61389971168E+03  0.61446577741E+03  0.00000000000E+00 0.  1.
        -13    1    3    3    0    0 -0.18852418403E+02 -0.13952965552E+03 -0.15630314632E+04  0.15693601541E+04  0.00000000000E+00 0. -1.
         22    1    1    2    0    0 -0.74197067085E+01  0.14179041791E+03  0.36030539996E+02  0.14648472436E+03  0.00000000000E+00 0.  1.
<mgrwt>
<rscale>  0 0.92026747E+03</rscale>
<asrwt>0</asrwt>
<pdfrwt beam="1">  1        2 0.34393925E+00 0.92026747E+03</pdfrwt>
<pdfrwt beam="2">  1       -2 0.14570005E-01 0.92026747E+03</pdfrwt>
<totfact> 0.18414534E+02</totfact>
</mgrwt>
</event>
<event>
 6    1  0.2236204E-005  0.5626437E+04  0.7818608E-02  0.7738527E-01
          2   -1    0    0  501    0  0.00000000000E+00  0.00000000000E+00  0.31587141435E+04  0.31587141435E+04  0.00000000000E+00 0. -1.
         -2   -1    0    0    0  501 -0.00000000000E+00 -0.00000000000E+00 -0.25055124655E+04  0.25055124655E+04  0.00000000000E+00 0.  1.
         23    2    1    2    0    0  0.23047251178E+04  0.13945987504E+04  0.11403824548E+04  0.29267079054E+04  0.92105794197E+02 0.  0.
         13    1    3    3    0    0  0.16417650851E+04  0.10060311070E+04  0.85844406347E+03  0.21081786909E+04  0.00000000000E+00 0.  1.
        -13    1    3    3    0    0  0.66296003272E+03  0.38856764339E+03  0.28193839132E+03  0.81852921448E+03  0.00000000000E+00 0. -1.
         22    1    1    2    0    0 -0.23047251178E+04 -0.13945987504E+04 -0.48718077680E+03  0.27375187036E+04  0.00000000000E+00 0.  1.
<mgrwt>
<rscale>  0 0.56264368E+04</rscale>
<asrwt>0</asrwt>
<pdfrwt beam="1">  1        2 0.48595602E+00 0.56264368E+04</pdfrwt>
<pdfrwt beam="2">  1       -2 0.38546345E+00 0.56264368E+04</pdfrwt>
<totfact> 0.88203587E-03</totfact>
</mgrwt>
</event>
<event>
 6    1  0.2236204E-005  0.4052354E+04  0.7818608E-02  0.7994068E-01
         -1   -1    0    0    0  501 -0.00000000000E+00  0.00000000000E+00  0.13388649148E+04  0.13388649148E+04  0.00000000000E+00 0.  1.
          1   -1    0    0  501    0  0.00000000000E+00 -0.00000000000E+00 -0.30663240729E+04  0.30663240729E+04  0.00000000000E+00 0. -1.
         23    2    1    2    0    0 -0.89838781015E+03 -0.72063246152E+03  0.94682088819E+03  0.14934565879E+04  0.86781239551E+02 0.  0.
         11    1    3    3    0    0 -0.55907741666E+03 -0.47078547417E+03  0.55084659804E+03  0.91522592571E+03  0.00000000000E+00 0.  1.
        -11    1    3    3    0    0 -0.33931039349E+03 -0.24984698736E+03  0.39597429014E+03  0.57823066217E+03  0.00000000000E+00 0. -1.
         22    1    1    2    0    0  0.89838781015E+03  0.72063246152E+03 -0.26742800463E+04  0.29117323998E+04  0.00000000000E+00 0. -1.
<mgrwt>
<rscale>  0 0.40523542E+04</rscale>
<asrwt>0</asrwt>
<pdfrwt beam="1">  1        1 0.47174216E+00 0.40523542E+04</pdfrwt>
<pdfrwt beam="2">  1       -1 0.20597922E+00 0.40523542E+04</pdfrwt>
<totfact> 0.56990268E-02</totfact>
</mgrwt>
</event>
<event>
 6    1  0.2236204E-005  0.7880970E+03  0.7818608E-02  0.9577408E-01
         -2   -1    0    0    0  501 -0.00000000000E+00  0.00000000000E+00  0.81926851840E+02  0.81926851840E+02  0.00000000000E+00 0.  1.
          2   -1    0    0  501    0  0.00000000000E+00 -0.00000000000E+00 -0.18952787070E+04  0.18952787070E+04  0.00000000000E+00 0. -1.
         23    2    1    2    0    0  0.93923579219E+02 -0.37555437967E+03 -0.83346723058E+03  0.92362281016E+03  0.92459397476E+02 0.  0.
         11    1    3    3    0    0  0.82879332603E+02 -0.14850815621E+03 -0.33128523636E+03  0.37238899562E+03  0.00000000000E+00 0.  1.
        -11    1    3    3    0    0  0.11044246617E+02 -0.22704622346E+03 -0.50218199421E+03  0.55123381453E+03  0.00000000000E+00 0. -1.
         22    1    1    2    0    0 -0.93923579219E+02  0.37555437967E+03 -0.97988462460E+03  0.10535827487E+04  0.00000000000E+00 0. -1.
<mgrwt>
<rscale>  0 0.78809699E+03</rscale>
<asrwt>0</asrwt>
<pdfrwt beam="1">  1        2 0.29158131E+00 0.78809699E+03</pdfrwt>
<pdfrwt beam="2">  1       -2 0.12604132E-01 0.78809699E+03</pdfrwt>
<totfact> 0.36491806E+02</totfact>
</mgrwt>
</event>
<event>
 6    1  0.2236204E-005  0.7437334E+03  0.7818608E-02  0.9645233E-01
          2   -1    0    0  501    0  0.00000000000E+00  0.00000000000E+00  0.14081036273E+04  0.14081036273E+04  0.00000000000E+00 0.  1.
         -2   -1    0    0    0  501 -0.00000000000E+00 -0.00000000000E+00 -0.98206444069E+02  0.98206444069E+02  0.00000000000E+00 0. -1.
         23    2    1    2    0    0 -0.28301653342E+03 -0.56301930783E+02  0.11218053538E+04  0.11618586207E+04  0.90553503702E+02 0.  0.
         11    1    3    3    0    0 -0.16394207345E+03 -0.54461921486E+02  0.50692758088E+03  0.53555455053E+03  0.00000000000E+00 0.  1.
        -11    1    3    3    0    0 -0.11907445997E+03 -0.18400092969E+01  0.61487777293E+03  0.62630407016E+03  0.00000000000E+00 0. -1.
         22    1    1    2    0    0  0.28301653342E+03  0.56301930783E+02  0.18809182947E+03  0.34445145073E+03  0.00000000000E+00 0. -1.
<mgrwt>
<rscale>  0 0.74373342E+03</rscale>
<asrwt>0</asrwt>
<pdfrwt beam="1">  1        2 0.21663131E+00 0.74373342E+03</pdfrwt>
<pdfrwt beam="2">  1       -2 0.15108685E-01 0.74373342E+03</pdfrwt>
<totfact> 0.50099740E+02</totfact>
</mgrwt>
</event>
<event>
 6    1  0.2236204E-005  0.1612961E+04  0.7818608E-02  0.8812625E-01
         -2   -1    0    0    0  501 -0.00000000000E+00  0.00000000000E+00  0.86290493551E+03  0.86290493551E+03  0.00000000000E+00 0.  1.
          2   -1    0    0  501    0  0.00000000000E+00 -0.00000000000E+00 -0.75374522642E+03  0.75374522642E+03  0.00000000000E+00 0. -1.
         23    2    1    2    0    0 -0.33502680890E+03  0.72773230471E+03  0.12230413423E+03  0.81539486809E+03  0.89851097085E+02 0.  0.
         13    1    3    3    0    0 -0.26731550525E+03  0.48159197451E+03  0.78247146482E+02  0.55633715064E+03  0.00000000000E+00 0. -1.
        -13    1    3    3    0    0 -0.67711303649E+02  0.24614033021E+03  0.44056987752E+02  0.25905771744E+03  0.00000000000E+00 0.  1.
         22    1    1    2    0    0  0.33502680890E+03 -0.72773230471E+03 -0.13144425147E+02  0.80125529385E+03  0.00000000000E+00 0. -1.
<mgrwt>
<rscale>  0 0.16129606E+04</rscale>
<asrwt>0</asrwt>
<pdfrwt beam="1">  1        2 0.11596080E+00 0.16129606E+04</pdfrwt>
<pdfrwt beam="2">  1       -2 0.13275461E+00 0.16129606E+04</pdfrwt>
<totfact> 0.14692952E+01</totfact>
</mgrwt>
</event>
<event>
 6    1  0.2236204E-005  0.1095922E+04  0.7818608E-02  0.9209175E-01
          2   -1    0    0  501    0  0.00000000000E+00  0.00000000000E+00  0.66421199138E+03  0.66421199138E+03  0.00000000000E+00 0. -1.
         -2   -1    0    0    0  501 -0.00000000000E+00 -0.00000000000E+00 -0.45205666308E+03  0.45205666308E+03  0.00000000000E+00 0.  1.
         23    2    1    2    0    0 -0.41634572610E+02  0.33690051297E+03 -0.32604031728E+03  0.47995902371E+03  0.93930733350E+02 0.  0.
         11    1    3    3    0    0 -0.13432245743E+02  0.31755030923E+02 -0.79486590184E+02  0.86642514009E+02  0.00000000000E+00 0.  1.
        -11    1    3    3    0    0 -0.28202326867E+02  0.30514548205E+03 -0.24655372709E+03  0.39331650970E+03  0.00000000000E+00 0. -1.
         22    1    1    2    0    0  0.41634572610E+02 -0.33690051297E+03  0.53819564557E+03  0.63630963075E+03  0.00000000000E+00 0. -1.
<mgrwt>
<rscale>  0 0.10959224E+04</rscale>
<asrwt>0</asrwt>
<pdfrwt beam="1">  1        2 0.10218646E+00 0.10959224E+04</pdfrwt>
<pdfrwt beam="2">  1       -2 0.69547179E-01 0.10959224E+04</pdfrwt>
<totfact> 0.82006993E+01</totfact>
</mgrwt>
</event>
<event>
 6    1  0.2236204E-005  0.9259312E+03  0.7818608E-02  0.9393734E-01
          2   -1    0    0  501    0  0.00000000000E+00  0.00000000000E+00  0.74754227563E+03  0.74754227563E+03  0.00000000000E+00 0. -1.
         -2   -1    0    0    0  501 -0.00000000000E+00 -0.00000000000E+00 -0.28672241302E+03  0.28672241302E+03  0.00000000000E+00 0.  1.
         23    2    1    2    0    0  0.44991822559E+03  0.81575178221E+02  0.27599061991E+03  0.54106820815E+03  0.86620229580E+02 0.  0.
         13    1    3    3    0    0  0.23722266062E+03  0.84412667711E+02  0.13301338621E+03  0.28476771252E+03  0.00000000000E+00 0.  1.
        -13    1    3    3    0    0  0.21269556497E+03 -0.28374894895E+01  0.14297723370E+03  0.25630049563E+03  0.00000000000E+00 0. -1.
         22    1    1    2    0    0 -0.44991822559E+03 -0.81575178221E+02  0.18482924270E+03  0.49319648050E+03  0.00000000000E+00 0.  1.
<mgrwt>
<rscale>  0 0.92593115E+03</rscale>
<asrwt>0</asrwt>
<pdfrwt beam="1">  1        2 0.11500650E+00 0.92593115E+03</pdfrwt>
<pdfrwt beam="2">  1       -2 0.44111141E-01 0.92593115E+03</pdfrwt>
<totfact> 0.18383791E+02</totfact>
</mgrwt>
</event>
<event>
 6    1  0.2236204E-005  0.2491785E+04  0.7818608E-02  0.8405918E-01
         -1   -1    0    0    0  501 -0.00000000000E+00  0.00000000000E+00  0.41403142729E+03  0.41403142729E+03  0.00000000000E+00 0.  1.
          1   -1    0    0  501    0  0.00000000000E+00 -0.00000000000E+00 -0.37491055142E+04  0.37491055142E+04  0.00000000000E+00 0. -1.
         23    2    1    2    0    0  0.45718120159E+03  0.46366074587E+02 -0.36015910627E+04  0.36319159307E+04  0.90502379689E+02 0.  0.
         11    1    3    3    0    0  0.28390851246E+03  0.66463708245E+01 -0.19075663040E+04  0.19285894902E+04  0.00000000000E+00 0.  1.
        -11    1    3    3    0    0  0.17327268913E+03  0.39719703763E+02 -0.16940247587E+04  0.17033264405E+04  0.00000000000E+00 0. -1.
         22    1    1    2    0    0 -0.45718120159E+03 -0.46366074587E+02  0.26651697577E+03  0.53122101082E+03  0.00000000000E+00 0.  1.
<mgrwt>
<rscale>  0 0.24917845E+04</rscale>
<asrwt>0</asrwt>
<pdfrwt beam="1">  1        1 0.57678545E+00 0.24917845E+04</pdfrwt>
<pdfrwt beam="2">  1       -1 0.63697144E-01 0.24917845E+04</pdfrwt>
<totfact> 0.34985756E-01</totfact>
</mgrwt>
</event>
<event>
 6    1  0.2236204E-005  0.1625285E+04  0.7818608E-02  0.8805164E-01
         -2   -1    0    0    0  501 -0.00000000000E+00  0.00000000000E+00  0.39054765571E+03  0.39054765571E+03  0.00000000000E+00 0.  1.
          2   -1    0    0  501    0  0.00000000000E+00 -0.00000000000E+00 -0.16909266810E+04  0.16909266810E+04  0.00000000000E+00 0. -1.
         23    2    1    2    0    0  0.34378323280E+03 -0.46618774161E+03  0.73429957788E+02  0.59054541702E+03  0.88509938838E+02 0.  0.
         11    1    3    3    0    0  0.25337029835E+03 -0.27802955505E+03  0.30268176616E+02  0.37737660776E+03  0.00000000000E+00 0. -1.
        -11    1    3    3    0    0  0.90412934454E+02 -0.18815818657E+03  0.43161781173E+02  0.21316880926E+03  0.00000000000E+00 0.  1.
         22    1    1    2    0    0 -0.34378323280E+03  0.46618774161E+03 -0.13738089831E+04  0.14909289197E+04  0.00000000000E+00 0. -1.
<mgrwt>
<rscale>  0 0.16252845E+04</rscale>
<asrwt>0</asrwt>
<pdfrwt beam="1">  1        2 0.26014256E+00 0.16252845E+04</pdfrwt>
<pdfrwt beam="2">  1       -2 0.60084256E-01 0.16252845E+04</pdfrwt>
<totfact> 0.24517722E+01</totfact>
</mgrwt>
</event>
<event>
 6    1  0.2236204E-005  0.1557168E+04  0.7818608E-02  0.8847302E-01
          2   -1    0    0  501    0  0.00000000000E+00  0.00000000000E+00  0.19908979540E+04  0.19908979540E+04  0.00000000000E+00 0. -1.
         -2   -1    0    0    0  501 -0.00000000000E+00 -0.00000000000E+00 -0.30448211045E+03  0.30448211045E+03  0.00000000000E+00 0.  1.
         23    2    1    2    0    0 -0.97567601870E+02  0.68709865258E+03  0.33466869985E+03  0.77589188226E+03  0.91548233112E+02 0.  0.
         11    1    3    3    0    0 -0.12617160260E+02  0.37528754101E+03  0.20363700355E+03  0.42716268609E+03  0.00000000000E+00 0.  1.
        -11    1    3    3    0    0 -0.84950441610E+02  0.31181111157E+03  0.13103169630E+03  0.34872919617E+03  0.00000000000E+00 0. -1.
         22    1    1    2    0    0  0.97567601870E+02 -0.68709865258E+03  0.13517471437E+04  0.15194881821E+04  0.00000000000E+00 0. -1.
<mgrwt>
<rscale>  0 0.15571677E+04</rscale>
<asrwt>0</asrwt>
<pdfrwt beam="1">  1        2 0.30629199E+00 0.15571677E+04</pdfrwt>
<pdfrwt beam="2">  1       -2 0.46843403E-01 0.15571677E+04</pdfrwt>
<totfact> 0.28100987E+01</totfact>
</mgrwt>
</event>
<event>
 6    1  0.2236204E-005  0.2430099E+04  0.7818608E-02  0.8428320E-01
         -2   -1    0    0    0  501 -0.00000000000E+00  0.00000000000E+00  0.92046938744E+03  0.92046938744E+03  0.00000000000E+00 0. -1.
          2   -1    0    0  501    0  0.00000000000E+00 -0.00000000000E+00 -0.16039051012E+04  0.16039051012E+04  0.00000000000E+00 0.  1.
         23    2    1    2    0    0  0.15206314743E+03  0.50763526411E+02 -0.15915453066E+04  0.16022231080E+04  0.91663997037E+02 0.  0.
         13    1    3    3    0    0  0.14328179500E+03  0.60976355101E+02 -0.11525963171E+04  0.11630675212E+04  0.00000000000E+00 0. -1.
        -13    1    3    3    0    0  0.87813524256E+01 -0.10212828690E+02 -0.43894898949E+03  0.43915558678E+03  0.00000000000E+00 0.  1.
         22    1    1    2    0    0 -0.15206314743E+03 -0.50763526411E+02  0.90810959280E+03  0.92215138071E+03  0.00000000000E+00 0. -1.
<mgrwt>
<rscale>  0 0.24300992E+04</rscale>
<asrwt>0</asrwt>
<pdfrwt beam="1">  1        2 0.24675463E+00 0.24300992E+04</pdfrwt>
<pdfrwt beam="2">  1       -2 0.14161068E+00 0.24300992E+04</pdfrwt>
<totfact> 0.34704033E+00</totfact>
</mgrwt>
</event>
<event>
 6    1  0.2236204E-005  0.1218081E+04  0.7818608E-02  0.9097176E-01
         -2   -1    0    0    0  501 -0.00000000000E+00  0.00000000000E+00  0.65880516564E+03  0.65880516564E+03  0.00000000000E+00 0.  1.
          2   -1    0    0  501    0  0.00000000000E+00 -0.00000000000E+00 -0.56303524758E+03  0.56303524758E+03  0.00000000000E+00 0. -1.
         23    2    1    2    0    0  0.15940177820E+03 -0.40771614267E+03 -0.37185429121E+03  0.58128301457E+03  0.89291372796E+02 0.  0.
         13    1    3    3    0    0  0.10176234015E+03 -0.24582029758E+03 -0.16798500058E+03  0.31464607577E+03  0.00000000000E+00 0. -1.
        -13    1    3    3    0    0  0.57639438046E+02 -0.16189584509E+03 -0.20386929062E+03  0.26663693880E+03  0.00000000000E+00 0.  1.
         22    1    1    2    0    0 -0.15940177820E+03  0.40771614267E+03  0.46762420926E+03  0.64055739866E+03  0.00000000000E+00 0.  1.
<mgrwt>
<rscale>  0 0.12180813E+04</rscale>
<asrwt>0</asrwt>
<pdfrwt beam="1">  1        2 0.86620808E-01 0.12180813E+04</pdfrwt>
<pdfrwt beam="2">  1       -2 0.10135464E+00 0.12180813E+04</pdfrwt>
<totfact> 0.42220086E+01</totfact>
</mgrwt>
</event>
<event>
 6    1  0.2236204E-005  0.2357480E+04  0.7818608E-02  0.8455596E-01
          2   -1    0    0  501    0  0.00000000000E+00  0.00000000000E+00  0.11481223497E+04  0.11481223497E+04  0.00000000000E+00 0. -1.
         -2   -1    0    0    0  501 -0.00000000000E+00 -0.00000000000E+00 -0.12101743580E+04  0.12101743580E+04  0.00000000000E+00 0.  1.
         23    2    1    2    0    0 -0.51035500716E+02 -0.52116416134E+03  0.10233112577E+04  0.11532115968E+04  0.92273243245E+02 0.  0.
         13    1    3    3    0    0  0.24057973215E+02 -0.22057799411E+03  0.43120235041E+03  0.48494216620E+03  0.00000000000E+00 0. -1.
        -13    1    3    3    0    0 -0.75093473931E+02 -0.30058616723E+03  0.59210890728E+03  0.66826943057E+03  0.00000000000E+00 0.  1.
         22    1    1    2    0    0  0.51035500716E+02  0.52116416134E+03 -0.10853632660E+04  0.12050851109E+04  0.00000000000E+00 0.  1.
<mgrwt>
<rscale>  0 0.23574802E+04</rscale>
<asrwt>0</asrwt>
<pdfrwt beam="1">  1        2 0.17663421E+00 0.23574802E+04</pdfrwt>
<pdfrwt beam="2">  1       -2 0.18618067E+00 0.23574802E+04</pdfrwt>
<totfact> 0.30211252E+00</totfact>
</mgrwt>
</event>
<event>
 6    1  0.2236204E-005  0.1106667E+04  0.7818608E-02  0.9198718E-01
         -1   -1    0    0    0  501 -0.00000000000E+00  0.00000000000E+00  0.25167597896E+03  0.25167597896E+03  0.00000000000E+00 0.  1.
          1   -1    0    0  501    0  0.00000000000E+00 -0.00000000000E+00 -0.12165558084E+04  0.12165558084E+04  0.00000000000E+00 0. -1.
         23    2    1    2    0    0 -0.10489791987E+03  0.16394184536E+03  0.19632060615E+03  0.29083340369E+03  0.90342603749E+02 0.  0.
         13    1    3    3    0    0 -0.94177582785E+02  0.77097739065E+02  0.81529560168E+02  0.14649418981E+03  0.00000000000E+00 0.  1.
        -13    1    3    3    0    0 -0.10720337080E+02  0.86844106292E+02  0.11479104598E+03  0.14433921388E+03  0.00000000000E+00 0. -1.
         22    1    1    2    0    0  0.10489791987E+03 -0.16394184536E+03 -0.11612004356E+04  0.11773983837E+04  0.00000000000E+00 0. -1.
<mgrwt>
<rscale>  0 0.11066668E+04</rscale>
<asrwt>0</asrwt>
<pdfrwt beam="1">  1        1 0.18716244E+00 0.11066668E+04</pdfrwt>
<pdfrwt beam="2">  1       -1 0.38719381E-01 0.11066668E+04</pdfrwt>
<totfact> 0.66864564E+01</totfact>
</mgrwt>
</event>
<event>
 6    1  0.2236204E-005  0.4034372E+04  0.7818608E-02  0.7997648E-01
          2   -1    0    0  501    0  0.00000000000E+00  0.00000000000E+00  0.25105901890E+04  0.25105901890E+04  0.00000000000E+00 0. -1.
         -2   -1    0    0    0  501 -0.00000000000E+00 -0.00000000000E+00 -0.16207499364E+04  0.16207499364E+04  0.00000000000E+00 0.  1.
         23    2    1    2    0    0  0.10872903216E+04 -0.13656905253E+04 -0.58769115449E+03  0.18443311808E+04  0.94158149251E+02 0.  0.
         11    1    3    3    0    0  0.69009712430E+03 -0.80576390630E+03 -0.32944899926E+03  0.11108672994E+04  0.00000000000E+00 0. -1.
        -11    1    3    3    0    0  0.39719319726E+03 -0.55992661897E+03 -0.25824215523E+03  0.73346388140E+03  0.00000000000E+00 0.  1.
         22    1    1    2    0    0 -0.10872903216E+04  0.13656905253E+04  0.14775314071E+04  0.22870089447E+04  0.00000000000E+00 0. -1.
<mgrwt>
<rscale>  0 0.40343718E+04</rscale>
<asrwt>0</asrwt>
<pdfrwt beam="1">  1        2 0.38624464E+00 0.40343718E+04</pdfrwt>
<pdfrwt beam="2">  1       -2 0.24934614E+00 0.40343718E+04</pdfrwt>
<totfact> 0.17512892E-01</totfact>
</mgrwt>
</event>
<event>
 6    1  0.2236204E-005  0.1676222E+04  0.7818608E-02  0.8775043E-01
          1   -1    0    0  501    0  0.00000000000E+00  0.00000000000E+00  0.15637136781E+04  0.15637136781E+04  0.00000000000E+00 0. -1.
         -1   -1    0    0    0  501 -0.00000000000E+00 -0.00000000000E+00 -0.44920626244E+03  0.44920626244E+03  0.00000000000E+00 0.  1.
         23    2    1    2    0    0  0.61786728596E+03  0.54916004431E+03  0.70481933357E+03  0.10903251964E+04  0.93284530208E+02 0.  0.
         11    1    3    3    0    0  0.33962359403E+02  0.45798122848E+02  0.24172270585E+02  0.61929060851E+02  0.00000000000E+00 0. -1.
        -11    1    3    3    0    0  0.58390492656E+03  0.50336192146E+03  0.68064706298E+03  0.10283961355E+04  0.00000000000E+00 0.  1.
         22    1    1    2    0    0 -0.61786728596E+03 -0.54916004431E+03  0.40968808209E+03  0.92259474415E+03  0.00000000000E+00 0. -1.
<mgrwt>
<rscale>  0 0.16762219E+04</rscale>
<asrwt>0</asrwt>
<pdfrwt beam="1">  1        1 0.24057133E+00 0.16762219E+04</pdfrwt>
<pdfrwt beam="2">  1       -1 0.69108656E-01 0.16762219E+04</pdfrwt>
<totfact> 0.11937259E+01</totfact>
</mgrwt>
</event>
<event>
 6    1  0.2236204E-005  0.1071378E+04  0.7818608E-02  0.9233547E-01
          2   -1    0    0  501    0  0.00000000000E+00  0.00000000000E+00  0.11713671637E+04  0.11713671637E+04  0.00000000000E+00 0. -1.
         -2   -1    0    0    0  501 -0.00000000000E+00 -0.00000000000E+00 -0.24498093364E+03  0.24498093364E+03  0.00000000000E+00 0.  1.
         23    2    1    2    0    0 -0.35717153591E+03 -0.32616168219E+03  0.75917330429E+03  0.90457362400E+03  0.89198577853E+02 0.  0.
         11    1    3    3    0    0 -0.32975612328E+03 -0.30824586652E+03  0.73946548435E+03  0.86635086288E+03  0.00000000000E+00 0. -1.
        -11    1    3    3    0    0 -0.27415412631E+02 -0.17915815669E+02  0.19707819946E+02  0.38222761122E+02  0.00000000000E+00 0.  1.
         22    1    1    2    0    0  0.35717153591E+03  0.32616168219E+03  0.16721292572E+03  0.51177447330E+03  0.00000000000E+00 0.  1.
<mgrwt>
<rscale>  0 0.10713778E+04</rscale>
<asrwt>0</asrwt>
<pdfrwt beam="1">  1        2 0.18021033E+00 0.10713778E+04</pdfrwt>
<pdfrwt beam="2">  1       -2 0.37689375E-01 0.10713778E+04</pdfrwt>
<totfact> 0.13004588E+02</totfact>
</mgrwt>
</event>
<event>
 6    1  0.2236204E-005  0.1842461E+04  0.7818608E-02  0.8684040E-01
         -2   -1    0    0    0  501 -0.00000000000E+00  0.00000000000E+00  0.18370179498E+04  0.18370179498E+04  0.00000000000E+00 0.  1.
          2   -1    0    0  501    0  0.00000000000E+00 -0.00000000000E+00 -0.46198001333E+03  0.46198001333E+03  0.00000000000E+00 0. -1.
         23    2    1    2    0    0 -0.16813137745E+03  0.10847488041E+03  0.18083672859E+04  0.18217042540E+04  0.91537908732E+02 0.  0.
         13    1    3    3    0    0 -0.13477650397E+03  0.55968001237E+02  0.15028231501E+04  0.15098922292E+04  0.00000000000E+00 0.  1.
        -13    1    3    3    0    0 -0.33354873477E+02  0.52506879170E+02  0.30554413575E+03  0.31181202484E+03  0.00000000000E+00 0. -1.
         22    1    1    2    0    0  0.16813137745E+03 -0.10847488041E+03 -0.43332934937E+03  0.47729370914E+03  0.00000000000E+00 0. -1.
<mgrwt>
<rscale>  0 0.18424609E+04</rscale>
<asrwt>0</asrwt>
<pdfrwt beam="1">  1        2 0.71073849E-01 0.18424609E+04</pdfrwt>
<pdfrwt beam="2">  1       -2 0.28261814E+00 0.18424609E+04</pdfrwt>
<totfact> 0.25795363E+00</totfact>
</mgrwt>
</event>
<event>
 6    1  0.2236204E-005  0.1289989E+04  0.7818608E-02  0.9037541E-01
          1   -1    0    0  501    0  0.00000000000E+00  0.00000000000E+00  0.41255242553E+03  0.41255242553E+03  0.00000000000E+00 0. -1.
         -1   -1    0    0    0  501 -0.00000000000E+00 -0.00000000000E+00 -0.10084008234E+04  0.10084008234E+04  0.00000000000E+00 0.  1.
         23    2    1    2    0    0 -0.13782566286E+03 -0.12170308416E+03 -0.97666319061E+03  0.99807328911E+03  0.92042101820E+02 0.  0.
         13    1    3    3    0    0 -0.10591272660E+03 -0.38254614441E+02 -0.63583050550E+03  0.64572544700E+03  0.00000000000E+00 0. -1.
        -13    1    3    3    0    0 -0.31912936261E+02 -0.83448469720E+02 -0.34083268511E+03  0.35234784211E+03  0.00000000000E+00 0.  1.
         22    1    1    2    0    0  0.13782566286E+03  0.12170308416E+03  0.38081479275E+03  0.42287995982E+03  0.00000000000E+00 0. -1.
<mgrwt>
<rscale>  0 0.12899895E+04</rscale>
<asrwt>0</asrwt>
<pdfrwt beam="1">  1        1 0.63469605E-01 0.12899895E+04</pdfrwt>
<pdfrwt beam="2">  1       -1 0.15513859E+00 0.12899895E+04</pdfrwt>
<totfact> 0.18019889E+01</totfact>
</mgrwt>
</event>
<event>
 6    1  0.2236204E-005  0.3299979E+04  0.7818608E-02  0.8162901E-01
         -2   -1    0    0    0  501 -0.00000000000E+00  0.00000000000E+00  0.10102308752E+04  0.10102308752E+04  0.00000000000E+00 0.  1.
          2   -1    0    0  501    0  0.00000000000E+00 -0.00000000000E+00 -0.26948948271E+04  0.26948948271E+04  0.00000000000E+00 0. -1.
         23    2    1    2    0    0 -0.16242911916E+04  0.15528221282E+03 -0.57696994583E+03  0.17329643366E+04  0.88524758674E+02 0.  0.
         11    1    3    3    0    0 -0.70880211205E+03  0.10355234028E+03 -0.28033321842E+03  0.76922703707E+03  0.00000000000E+00 0. -1.
        -11    1    3    3    0    0 -0.91548907957E+03  0.51729872537E+02 -0.29663672741E+03  0.96373729957E+03  0.00000000000E+00 0.  1.
         22    1    1    2    0    0  0.16242911916E+04 -0.15528221282E+03 -0.11076940061E+04  0.19721613656E+04  0.00000000000E+00 0. -1.
<mgrwt>
<rscale>  0 0.32999794E+04</rscale>
<asrwt>0</asrwt>
<pdfrwt beam="1">  1        2 0.41459920E+00 0.32999794E+04</pdfrwt>
<pdfrwt beam="2">  1       -2 0.15542014E+00 0.32999794E+04</pdfrwt>
<totfact> 0.60848119E-01</totfact>
</mgrwt>
</event>
<event>
 6    1  0.2236204E-005  0.2064293E+04  0.7818608E-02  0.8577138E-01
          2   -1    0    0  501    0  0.00000000000E+00  0.00000000000E+00  0.63632264986E+03  0.63632264986E+03  0.00000000000E+00 0. -1.
         -2   -1    0    0    0  501 -0.00000000000E+00 -0.00000000000E+00 -0.16741924123E+04  0.16741924123E+04  0.00000000000E+00 0.  1.
         23    2    1    2    0    0  0.45130145069E+03 -0.99136960227E+02  0.51064278854E+03  0.69453478478E+03  0.90118663461E+02 0.  0.
         13    1    3    3    0    0  0.38121717938E+03 -0.48470996019E+02  0.41618863603E+03  0.56647061360E+03  0.00000000000E+00 0. -1.
        -13    1    3    3    0    0  0.70084271308E+02 -0.50665964208E+02  0.94454152517E+02  0.12806417119E+03  0.00000000000E+00 0.  1.
         22    1    1    2    0    0 -0.45130145069E+03  0.99136960227E+02 -0.15485125510E+04  0.16159802774E+04  0.00000000000E+00 0.  1.
<mgrwt>
<rscale>  0 0.20642931E+04</rscale>
<asrwt>0</asrwt>
<pdfrwt beam="1">  1        2 0.97895793E-01 0.20642931E+04</pdfrwt>
<pdfrwt beam="2">  1       -2 0.25756806E+00 0.20642931E+04</pdfrwt>
<totfact> 0.24631028E+00</totfact>
</mgrwt>
</event>
<event>
 6    1  0.2236204E-005  0.1462270E+04  0.7818608E-02  0.8909938E-01
          2   -1    0    0  501    0  0.00000000000E+00  0.00000000000E+00  0.21481746425E+04  0.21481746425E+04  0.00000000000E+00 0. -1.
         -2   -1    0    0    0  501 -0.00000000000E+00 -0.00000000000E+00 -0.24884303761E+03  0.24884303761E+03  0.00000000000E+00 0.  1.
         23    2    1    2    0    0 -0.45514317791E+03 -0.41982834078E+03  0.15818560503E+04  0.17011715219E+04  0.91130867238E+02 0.  0.
         13    1    3    3    0    0 -0.26512431992E+03 -0.30384445463E+03  0.10202085697E+04  0.10970131646E+04  0.00000000000E+00 0.  1.
        -13    1    3    3    0    0 -0.19001885799E+03 -0.11598388614E+03  0.56164748066E+03  0.60415835736E+03  0.00000000000E+00 0. -1.
         22    1    1    2    0    0  0.45514317791E+03  0.41982834078E+03  0.31747555460E+03  0.69584615821E+03  0.00000000000E+00 0.  1.
<mgrwt>
<rscale>  0 0.14622699E+04</rscale>
<asrwt>0</asrwt>
<pdfrwt beam="1">  1        2 0.33048840E+00 0.14622699E+04</pdfrwt>
<pdfrwt beam="2">  1       -2 0.38283546E-01 0.14622699E+04</pdfrwt>
<totfact> 0.34507259E+01</totfact>
</mgrwt>
</event>
<event>
 6    1  0.2236204E-005  0.1569294E+04  0.7818608E-02  0.8839637E-01
          2   -1    0    0  501    0  0.00000000000E+00  0.00000000000E+00  0.10595387678E+04  0.10595387678E+04  0.00000000000E+00 0. -1.
         -2   -1    0    0    0  501 -0.00000000000E+00 -0.00000000000E+00 -0.58107466862E+03  0.58107466862E+03  0.00000000000E+00 0.  1.
         23    2    1    2    0    0  0.31730771900E+03 -0.56904210563E+03 -0.21203419886E+03  0.69125522892E+03  0.91554265321E+02 0.  0.
         11    1    3    3    0    0  0.25156330560E+03 -0.46961401748E+03 -0.13587243431E+03  0.54980245593E+03  0.00000000000E+00 0.  1.
        -11    1    3    3    0    0  0.65744413401E+02 -0.99428088152E+02 -0.76161764550E+02  0.14145277299E+03  0.00000000000E+00 0. -1.
         22    1    1    2    0    0 -0.31730771900E+03  0.56904210563E+03  0.69049829800E+03  0.94935820745E+03  0.00000000000E+00 0.  1.
<mgrwt>
<rscale>  0 0.15692943E+04</rscale>
<asrwt>0</asrwt>
<pdfrwt beam="1">  1        2 0.16300596E+00 0.15692943E+04</pdfrwt>
<pdfrwt beam="2">  1       -2 0.89396103E-01 0.15692943E+04</pdfrwt>
<totfact> 0.23823894E+01</totfact>
</mgrwt>
</event>
<event>
 6    1  0.2236204E-005  0.1167871E+04  0.7818608E-02  0.9141454E-01
         -2   -1    0    0    0  501 -0.00000000000E+00  0.00000000000E+00  0.40719963334E+03  0.40719963334E+03  0.00000000000E+00 0.  1.
          2   -1    0    0  501    0  0.00000000000E+00 -0.00000000000E+00 -0.83737925682E+03  0.83737925682E+03  0.00000000000E+00 0. -1.
         23    2    1    2    0    0 -0.39837026439E+03  0.39583207657E+03 -0.37242146860E+03  0.68002782529E+03  0.91423150814E+02 0.  0.
         11    1    3    3    0    0 -0.14514308511E+03  0.17541210827E+03 -0.10453879548E+03  0.25052800770E+03  0.00000000000E+00 0.  1.
        -11    1    3    3    0    0 -0.25322717928E+03  0.22041996830E+03 -0.26788267312E+03  0.42949981759E+03  0.00000000000E+00 0. -1.
         22    1    1    2    0    0  0.39837026439E+03 -0.39583207657E+03 -0.57758154868E+02  0.56455106487E+03  0.00000000000E+00 0.  1.
<mgrwt>
<rscale>  0 0.11678708E+04</rscale>
<asrwt>0</asrwt>
<pdfrwt beam="1">  1        2 0.12882758E+00 0.11678708E+04</pdfrwt>
<pdfrwt beam="2">  1       -2 0.62646097E-01 0.11678708E+04</pdfrwt>
<totfact> 0.75704091E+01</totfact>
</mgrwt>
</event>
<event>
 6    1  0.2236204E-005  0.7440269E+03  0.7818608E-02  0.9644768E-01
          2   -1    0    0  501    0  0.00000000000E+00  0.00000000000E+00  0.37577907145E+03  0.37577907145E+03  0.00000000000E+00 0. -1.
         -2   -1    0    0    0  501 -0.00000000000E+00 -0.00000000000E+00 -0.36828551748E+03  0.36828551748E+03  0.00000000000E+00 0.  1.
         23    2    1    2    0    0  0.31241792635E+03  0.19092641810E+03 -0.90115921030E+01  0.37755363727E+03  0.91693415217E+02 0.  0.
         11    1    3    3    0    0  0.25496366388E+03  0.10915956808E+03 -0.17207065044E+01  0.27735400129E+03  0.00000000000E+00 0. -1.
        -11    1    3    3    0    0  0.57454262470E+02  0.81766850017E+02 -0.72908855986E+01  0.10019963598E+03  0.00000000000E+00 0.  1.
         22    1    1    2    0    0 -0.31241792635E+03 -0.19092641810E+03  0.16505146076E+02  0.36651095165E+03  0.00000000000E+00 0. -1.
<mgrwt>
<rscale>  0 0.74402685E+03</rscale>
<asrwt>0</asrwt>
<pdfrwt beam="1">  1        2 0.57812165E-01 0.74402685E+03</pdfrwt>
<pdfrwt beam="2">  1       -2 0.56659310E-01 0.74402685E+03</pdfrwt>
<totfact> 0.25152245E+02</totfact>
</mgrwt>
</event>
<event>
 6    1  0.2236204E-005  0.2934398E+04  0.7818608E-02  0.8262716E-01
         -2   -1    0    0    0  501 -0.00000000000E+00  0.00000000000E+00  0.68680364978E+03  0.68680364978E+03  0.00000000000E+00 0.  1.
          2   -1    0    0  501    0  0.00000000000E+00 -0.00000000000E+00 -0.31343342289E+04  0.31343342289E+04  0.00000000000E+00 0. -1.
         23    2    1    2    0    0 -0.12772663109E+04  0.70748733263E+03 -0.13927180777E+04  0.20198669473E+04  0.90836591440E+02 0.  0.
         11    1    3    3    0    0 -0.90574952535E+03  0.46245739028E+03 -0.10013409161E+04  0.14272115017E+04  0.00000000000E+00 0.  1.
        -11    1    3    3    0    0 -0.37151678555E+03  0.24502994235E+03 -0.39137716158E+03  0.59265544560E+03  0.00000000000E+00 0. -1.
         22    1    1    2    0    0  0.12772663109E+04 -0.70748733263E+03 -0.10548125014E+04  0.18012709313E+04  0.00000000000E+00 0.  1.
<mgrwt>
<rscale>  0 0.29343975E+04</rscale>
<asrwt>0</asrwt>
<pdfrwt beam="1">  1        2 0.48220526E+00 0.29343975E+04</pdfrwt>
<pdfrwt beam="2">  1       -2 0.10566210E+00 0.29343975E+04</pdfrwt>
<totfact> 0.89080355E-01</totfact>
</mgrwt>
</event>
<event>
 6    1  0.2236204E-005  0.3685393E+04  0.7818608E-02  0.8071207E-01
          2   -1    0    0  501    0  0.00000000000E+00  0.00000000000E+00  0.31980426669E+04  0.31980426669E+04  0.00000000000E+00 0. -1.
         -2   -1    0    0    0  501 -0.00000000000E+00 -0.00000000000E+00 -0.10617528406E+04  0.10617528406E+04  0.00000000000E+00 0.  1.
         23    2    1    2    0    0  0.12527301412E+04  0.13003712920E+04  0.65030815892E+03  0.19213259611E+04  0.91073835234E+02 0.  0.
         11    1    3    3    0    0  0.72611418930E+03  0.72448256136E+03  0.41205999847E+03  0.11054004885E+04  0.00000000000E+00 0. -1.
        -11    1    3    3    0    0  0.52661595185E+03  0.57588873065E+03  0.23824816045E+03  0.81592547258E+03  0.00000000000E+00 0.  1.
         22    1    1    2    0    0 -0.12527301412E+04 -0.13003712920E+04  0.14859816674E+04  0.23384695464E+04  0.00000000000E+00 0.  1.
<mgrwt>
<rscale>  0 0.36853933E+04</rscale>
<asrwt>0</asrwt>
<pdfrwt beam="1">  1        2 0.49200656E+00 0.36853933E+04</pdfrwt>
<pdfrwt beam="2">  1       -2 0.16334659E+00 0.36853933E+04</pdfrwt>
<totfact> 0.25029263E-01</totfact>
</mgrwt>
</event>
<event>
 6    1  0.2236204E-005  0.3183242E+04  0.7818608E-02  0.8193257E-01
          2   -1    0    0  501    0  0.00000000000E+00  0.00000000000E+00  0.16772247164E+04  0.16772247164E+04  0.00000000000E+00 0. -1.
         -2   -1    0    0    0  501 -0.00000000000E+00 -0.00000000000E+00 -0.15103859768E+04  0.15103859768E+04  0.00000000000E+00 0.  1.
         23    2    1    2    0    0 -0.14583229839E+04 -0.43868322226E+03  0.54180942513E+03  0.16192510693E+04  0.96268777590E+02 0.  0.
         13    1    3    3    0    0 -0.10426100119E+04 -0.33312440920E+03  0.43035690644E+03  0.11761014310E+04  0.00000000000E+00 0. -1.
        -13    1    3    3    0    0 -0.41571297191E+03 -0.10555881306E+03  0.11145251869E+03  0.44314963833E+03  0.00000000000E+00 0.  1.
         22    1    1    2    0    0  0.14583229839E+04  0.43868322226E+03 -0.37497068556E+03  0.15683596239E+04  0.00000000000E+00 0.  1.
<mgrwt>
<rscale>  0 0.31832416E+04</rscale>
<asrwt>0</asrwt>
<pdfrwt beam="1">  1        2 0.25803457E+00 0.31832416E+04</pdfrwt>
<pdfrwt beam="2">  1       -2 0.23236707E+00 0.31832416E+04</pdfrwt>
<totfact> 0.70362971E-01</totfact>
</mgrwt>
</event>
<event>
 6    1  0.2236204E-005  0.1506405E+04  0.7818608E-02  0.8880205E-01
         -1   -1    0    0    0  501 -0.00000000000E+00  0.00000000000E+00  0.69516356015E+03  0.69516356015E+03  0.00000000000E+00 0.  1.
          1   -1    0    0  501    0  0.00000000000E+00 -0.00000000000E+00 -0.81608729017E+03  0.81608729017E+03  0.00000000000E+00 0. -1.
         23    2    1    2    0    0  0.93637304367E+02  0.48627775922E+03 -0.62646241657E+03  0.80357623054E+03  0.89697240958E+02 0.  0.
         13    1    3    3    0    0  0.77858722068E+00  0.22986894617E+03 -0.30761330788E+03  0.38401339274E+03  0.00000000000E+00 0.  1.
        -13    1    3    3    0    0  0.92858717146E+02  0.25640881304E+03 -0.31884910869E+03  0.41956283781E+03  0.00000000000E+00 0. -1.
         22    1    1    2    0    0 -0.93637304367E+02 -0.48627775922E+03  0.50553868655E+03  0.70767461978E+03  0.00000000000E+00 0.  1.
<mgrwt>
<rscale>  0 0.15064052E+04</rscale>
<asrwt>0</asrwt>
<pdfrwt beam="1">  1        1 0.12555189E+00 0.15064052E+04</pdfrwt>
<pdfrwt beam="2">  1       -1 0.10694824E+00 0.15064052E+04</pdfrwt>
<totfact> 0.16886826E+01</totfact>
</mgrwt>
</event>
<event>
 6    1  0.2236204E-005  0.6011911E+03  0.7818608E-02  0.9902938E-01
          1   -1    0    0  501    0  0.00000000000E+00  0.00000000000E+00  0.56742239750E+03  0.56742239750E+03  0.00000000000E+00 0. -1.
         -1   -1    0    0    0  501 -0.00000000000E+00 -0.00000000000E+00 -0.15924238541E+03  0.15924238541E+03  0.00000000000E+00 0.  1.
         23    2    1    2    0    0  0.38343426419E+02 -0.24833983591E+03  0.24963473157E+02  0.26840960491E+03  0.90981583685E+02 0.  0.
         13    1    3    3    0    0  0.54177998971E+02 -0.12850999331E+03 -0.16922254195E+02  0.14048642867E+03  0.00000000000E+00 0.  1.
        -13    1    3    3    0    0 -0.15834572553E+02 -0.11982984259E+03  0.41885727352E+02  0.12792317624E+03  0.00000000000E+00 0. -1.
         22    1    1    2    0    0 -0.38343426419E+02  0.24833983591E+03  0.38321653893E+03  0.45825517799E+03  0.00000000000E+00 0. -1.
<mgrwt>
<rscale>  0 0.60119114E+03</rscale>
<asrwt>0</asrwt>
<pdfrwt beam="1">  1        1 0.87295753E-01 0.60119114E+03</pdfrwt>
<pdfrwt beam="2">  1       -1 0.24498829E-01 0.60119114E+03</pdfrwt>
<totfact> 0.54343169E+02</totfact>
</mgrwt>
</event>
<event>
 6    1  0.2236204E-005  0.2155940E+04  0.7818608E-02  0.8536994E-01
          1   -1    0    0  501    0  0.00000000000E+00  0.00000000000E+00  0.11429818124E+04  0.11429818124E+04  0.00000000000E+00 0. -1.
         -1   -1    0    0    0  501 -0.00000000000E+00 -0.00000000000E+00 -0.10166563039E+04  0.10166563039E+04  0.00000000000E+00 0.  1.
         23    2    1    2    0    0 -0.47187365744E+03  0.12980914582E+03 -0.89649162407E+03  0.10257642038E+04  0.94761842726E+02 0.  0.
         13    1    3    3    0    0 -0.33372968610E+03  0.11005634354E+03 -0.71628711368E+03  0.79784405203E+03  0.00000000000E+00 0.  1.
        -13    1    3    3    0    0 -0.13814397134E+03  0.19752802277E+02 -0.18020451039E+03  0.22792015176E+03  0.00000000000E+00 0. -1.
         22    1    1    2    0    0  0.47187365744E+03 -0.12980914582E+03  0.10228171326E+04  0.11338739126E+04  0.00000000000E+00 0. -1.
<mgrwt>
<rscale>  0 0.21559403E+04</rscale>
<asrwt>0</asrwt>
<pdfrwt beam="1">  1        1 0.17584336E+00 0.21559403E+04</pdfrwt>
<pdfrwt beam="2">  1       -1 0.15640866E+00 0.21559403E+04</pdfrwt>
<totfact> 0.33541141E+00</totfact>
</mgrwt>
</event>
<event>
 6    1  0.2236204E-005  0.5093336E+04  0.7818608E-02  0.7814268E-01
          2   -1    0    0  501    0  0.00000000000E+00  0.00000000000E+00  0.43549743551E+04  0.43549743551E+04  0.00000000000E+00 0. -1.
         -2   -1    0    0    0  501 -0.00000000000E+00 -0.00000000000E+00 -0.14892204925E+04  0.14892204925E+04  0.00000000000E+00 0.  1.
         23    2    1    2    0    0  0.18164266031E+04  0.26383401269E+03  0.34576282598E+04  0.39156385759E+04  0.89544867333E+02 0.  0.
         13    1    3    3    0    0  0.16568953058E+04  0.25310397578E+03  0.31068826156E+04  0.35301675971E+04  0.00000000000E+00 0. -1.
        -13    1    3    3    0    0  0.15953129734E+03  0.10730036916E+02  0.35074564426E+03  0.38547097879E+03  0.00000000000E+00 0.  1.
         22    1    1    2    0    0 -0.18164266031E+04 -0.26383401269E+03 -0.59187439722E+03  0.19285562716E+04  0.00000000000E+00 0.  1.
<mgrwt>
<rscale>  0 0.50933357E+04</rscale>
<asrwt>0</asrwt>
<pdfrwt beam="1">  1        2 0.66999605E+00 0.50933357E+04</pdfrwt>
<pdfrwt beam="2">  1       -2 0.22911085E+00 0.50933357E+04</pdfrwt>
<totfact> 0.10491850E-02</totfact>
</mgrwt>
</event>
<event>
 6    1  0.2236204E-005  0.2762022E+04  0.7818608E-02  0.8315157E-01
         -2   -1    0    0    0  501 -0.00000000000E+00  0.00000000000E+00  0.56570670794E+03  0.56570670794E+03  0.00000000000E+00 0.  1.
          2   -1    0    0  501    0  0.00000000000E+00 -0.00000000000E+00 -0.33713440780E+04  0.33713440780E+04  0.00000000000E+00 0. -1.
         23    2    1    2    0    0 -0.29260525013E+03  0.12600949821E+04 -0.72169493965E+03  0.14842415293E+04  0.93124297791E+02 0.  0.
         13    1    3    3    0    0 -0.16786085965E+03  0.66918172086E+03 -0.43602937546E+03  0.81615137076E+03  0.00000000000E+00 0.  1.
        -13    1    3    3    0    0 -0.12474439049E+03  0.59091326128E+03 -0.28566556419E+03  0.66809015850E+03  0.00000000000E+00 0. -1.
         22    1    1    2    0    0  0.29260525013E+03 -0.12600949821E+04 -0.20839424304E+04  0.24528092567E+04  0.00000000000E+00 0. -1.
<mgrwt>
<rscale>  0 0.27620224E+04</rscale>
<asrwt>0</asrwt>
<pdfrwt beam="1">  1        2 0.51866831E+00 0.27620224E+04</pdfrwt>
<pdfrwt beam="2">  1       -2 0.87031802E-01 0.27620224E+04</pdfrwt>
<totfact> 0.99350976E-01</totfact>
</mgrwt>
</event>
<event>
 6    1  0.2236204E-005  0.1549739E+04  0.7818608E-02  0.8852035E-01
         -2   -1    0    0    0  501 -0.00000000000E+00  0.00000000000E+00  0.25318460914E+03  0.25318460914E+03  0.00000000000E+00 0.  1.
          2   -1    0    0  501    0  0.00000000000E+00 -0.00000000000E+00 -0.23714815870E+04  0.23714815870E+04  0.00000000000E+00 0. -1.
         23    2    1    2    0    0  0.60057782460E+03  0.24458791270E+03 -0.35267426805E+03  0.74372480315E+03  0.90721954579E+02 0.  0.
         13    1    3    3    0    0  0.10539774178E+03  0.74108467388E+02 -0.45849841285E+02  0.13675875423E+03  0.00000000000E+00 0.  1.
        -13    1    3    3    0    0  0.49518008281E+03  0.17047944531E+03 -0.30682442676E+03  0.60696604892E+03  0.00000000000E+00 0. -1.
         22    1    1    2    0    0 -0.60057782460E+03 -0.24458791270E+03 -0.17656227098E+04  0.18809413930E+04  0.00000000000E+00 0. -1.
<mgrwt>
<rscale>  0 0.15497389E+04</rscale>
<asrwt>0</asrwt>
<pdfrwt beam="1">  1        2 0.36484334E+00 0.15497389E+04</pdfrwt>
<pdfrwt beam="2">  1       -2 0.38951476E-01 0.15497389E+04</pdfrwt>
<totfact> 0.24795076E+01</totfact>
</mgrwt>
</event>
<event>
 6    1  0.2236204E-005  0.1295590E+04  0.7818608E-02  0.9033069E-01
          2   -1    0    0  501    0  0.00000000000E+00  0.00000000000E+00  0.58091025821E+03  0.58091025821E+03  0.00000000000E+00 0. -1.
         -2   -1    0    0    0  501 -0.00000000000E+00 -0.00000000000E+00 -0.72238108172E+03  0.72238108172E+03  0.00000000000E+00 0.  1.
         23    2    1    2    0    0 -0.20411493278E+03  0.54655744617E+03  0.20429077678E+03  0.62510328933E+03  0.92905613949E+02 0.  0.
         11    1    3    3    0    0 -0.31791904564E+02  0.14699484012E+03  0.89766344032E+02  0.17514623815E+03  0.00000000000E+00 0.  1.
        -11    1    3    3    0    0 -0.17232302822E+03  0.39956260605E+03  0.11452443275E+03  0.44995705118E+03  0.00000000000E+00 0. -1.
         22    1    1    2    0    0  0.20411493278E+03 -0.54655744617E+03 -0.34576160029E+03  0.67818805061E+03  0.00000000000E+00 0.  1.
<mgrwt>
<rscale>  0 0.12955903E+04</rscale>
<asrwt>0</asrwt>
<pdfrwt beam="1">  1        2 0.89370809E-01 0.12955903E+04</pdfrwt>
<pdfrwt beam="2">  1       -2 0.11113555E+00 0.12955903E+04</pdfrwt>
<totfact> 0.32403376E+01</totfact>
</mgrwt>
</event>
<event>
 6    1  0.2236204E-005  0.2595922E+04  0.7818608E-02  0.8369588E-01
          1   -1    0    0  501    0  0.00000000000E+00  0.00000000000E+00  0.35048707548E+04  0.35048707548E+04  0.00000000000E+00 0. -1.
         -1   -1    0    0    0  501 -0.00000000000E+00 -0.00000000000E+00 -0.48067480068E+03  0.48067480068E+03  0.00000000000E+00 0.  1.
         23    2    1    2    0    0  0.51862869666E+03 -0.10791144137E+04  0.75050848543E+03  0.14158922037E+04  0.89577358403E+02 0.  0.
         11    1    3    3    0    0  0.20717330494E+03 -0.38809232660E+03  0.23011991451E+03  0.49647921135E+03  0.00000000000E+00 0.  1.
        -11    1    3    3    0    0  0.31145539173E+03 -0.69102208707E+03  0.52038857092E+03  0.91941299240E+03  0.00000000000E+00 0. -1.
         22    1    1    2    0    0 -0.51862869666E+03  0.10791144137E+04  0.22736874687E+04  0.25696533517E+04  0.00000000000E+00 0. -1.
<mgrwt>
<rscale>  0 0.25959222E+04</rscale>
<asrwt>0</asrwt>
<pdfrwt beam="1">  1        1 0.53921087E+00 0.25959222E+04</pdfrwt>
<pdfrwt beam="2">  1       -1 0.73949972E-01 0.25959222E+04</pdfrwt>
<totfact> 0.40203468E-01</totfact>
</mgrwt>
</event>
<event>
 6    1  0.2236204E-005  0.3468185E+04  0.7818608E-02  0.8121371E-01
         -2   -1    0    0    0  501 -0.00000000000E+00  0.00000000000E+00  0.21867323292E+04  0.21867323292E+04  0.00000000000E+00 0.  1.
          2   -1    0    0  501    0  0.00000000000E+00 -0.00000000000E+00 -0.13751461845E+04  0.13751461845E+04  0.00000000000E+00 0. -1.
         23    2    1    2    0    0 -0.11009362947E+04 -0.21832162069E+03  0.17619924690E+04  0.20911653409E+04  0.92897617702E+02 0.  0.
         13    1    3    3    0    0 -0.27374006254E+03 -0.88781883206E+02  0.41021567708E+03  0.50109155486E+03  0.00000000000E+00 0.  1.
        -13    1    3    3    0    0 -0.82719623215E+03 -0.12953973748E+03  0.13517767919E+04  0.15900737861E+04  0.00000000000E+00 0. -1.
         22    1    1    2    0    0  0.11009362947E+04  0.21832162069E+03 -0.95040632429E+03  0.14707131727E+04  0.00000000000E+00 0. -1.
<mgrwt>
<rscale>  0 0.34681849E+04</rscale>
<asrwt>0</asrwt>
<pdfrwt beam="1">  1        2 0.21156095E+00 0.34681849E+04</pdfrwt>
<pdfrwt beam="2">  1       -2 0.33642036E+00 0.34681849E+04</pdfrwt>
<totfact> 0.23316233E-01</totfact>
</mgrwt>
</event>
<event>
 6    1  0.2236204E-005  0.1255624E+04  0.7818608E-02  0.9065516E-01
         -2   -1    0    0    0  501 -0.00000000000E+00  0.00000000000E+00  0.24889558705E+03  0.24889558705E+03  0.00000000000E+00 0.  1.
          2   -1    0    0  501    0  0.00000000000E+00 -0.00000000000E+00 -0.15835863336E+04  0.15835863336E+04  0.00000000000E+00 0. -1.
         23    2    1    2    0    0 -0.83091006944E+02 -0.48034563135E+03 -0.10185476544E+03  0.50676679390E+03  0.93819769554E+02 0.  0.
         11    1    3    3    0    0 -0.39136592164E+01 -0.11054049921E+03  0.13374612524E+02  0.11141543410E+03  0.00000000000E+00 0. -1.
        -11    1    3    3    0    0 -0.79177347727E+02 -0.36980513214E+03 -0.11522937796E+03  0.39535135980E+03  0.00000000000E+00 0.  1.
         22    1    1    2    0    0  0.83091006944E+02  0.48034563135E+03 -0.12328359811E+04  0.13257151268E+04  0.00000000000E+00 0. -1.
<mgrwt>
<rscale>  0 0.12556236E+04</rscale>
<asrwt>0</asrwt>
<pdfrwt beam="1">  1        2 0.24362866E+00 0.12556236E+04</pdfrwt>
<pdfrwt beam="2">  1       -2 0.38291629E-01 0.12556236E+04</pdfrwt>
<totfact> 0.72095483E+01</totfact>
</mgrwt>
</event>
<event>
 6    1  0.2236204E-005  0.1158014E+04  0.7818608E-02  0.9150422E-01
          2   -1    0    0  501    0  0.00000000000E+00  0.00000000000E+00  0.64354492597E+03  0.64354492597E+03  0.00000000000E+00 0. -1.
         -2   -1    0    0    0  501 -0.00000000000E+00 -0.00000000000E+00 -0.52094159584E+03  0.52094159584E+03  0.00000000000E+00 0.  1.
         23    2    1    2    0    0 -0.44190243102E+02 -0.50040065783E+03 -0.22080555317E+03  0.55597747744E+03  0.89455392049E+02 0.  0.
         11    1    3    3    0    0 -0.53787480939E+02 -0.37144878256E+03 -0.12700168514E+03  0.39622811510E+03  0.00000000000E+00 0. -1.
        -11    1    3    3    0    0  0.95972378374E+01 -0.12895187528E+03 -0.93803868021E+02  0.15974936234E+03  0.00000000000E+00 0.  1.
         22    1    1    2    0    0  0.44190243102E+02  0.50040065783E+03  0.34340888330E+03  0.60850904436E+03  0.00000000000E+00 0. -1.
<mgrwt>
<rscale>  0 0.11580144E+04</rscale>
<asrwt>0</asrwt>
<pdfrwt beam="1">  1        2 0.99006912E-01 0.11580144E+04</pdfrwt>
<pdfrwt beam="2">  1       -2 0.80144861E-01 0.11580144E+04</pdfrwt>
<totfact> 0.62037207E+01</totfact>
</mgrwt>
</event>
<event>
 6    1  0.4055993E-005  0.2848071E+04  0.7818608E-02  0.8288498E-01
          2   -1    0    0  501    0  0.00000000000E+00  0.00000000000E+00  0.12590944881E+04  0.12590944881E+04  0.00000000000E+00 0. -1.
         -2   -1    0    0    0  501 -0.00000000000E+00 -0.00000000000E+00 -0.16105834677E+04  0.16105834677E+04  0.00000000000E+00 0.  1.
         23    2    1    2    0    0  0.15158397946E+03 -0.12325133624E+04  0.52323843232E+03  0.13507260353E+04  0.92819578145E+02 0.  0.
         11    1    3    3    0    0  0.81831061265E+02 -0.42743725851E+03  0.14715319814E+03  0.45940504598E+03  0.00000000000E+00 0.  1.
        -11    1    3    3    0    0  0.69752918199E+02 -0.80507610391E+03  0.37608523418E+03  0.89132098935E+03  0.00000000000E+00 0. -1.
         22    1    1    2    0    0 -0.15158397946E+03  0.12325133624E+04 -0.87472741196E+03  0.15189519204E+04  0.00000000000E+00 0.  1.
<mgrwt>
<rscale>  0 0.28480708E+04</rscale>
<asrwt>0</asrwt>
<pdfrwt beam="1">  1        2 0.19370684E+00 0.28480708E+04</pdfrwt>
<pdfrwt beam="2">  1       -2 0.24778207E+00 0.28480708E+04</pdfrwt>
<totfact> 0.10041720E+00</totfact>
</mgrwt>
</event>
<event>
 6    1  0.2236204E-005  0.4429263E+04  0.7818608E-02  0.7923139E-01
         -1   -1    0    0    0  501 -0.00000000000E+00  0.00000000000E+00  0.15596466424E+04  0.15596466424E+04  0.00000000000E+00 0.  1.
          1   -1    0    0  501    0  0.00000000000E+00 -0.00000000000E+00 -0.31446817753E+04  0.31446817753E+04  0.00000000000E+00 0. -1.
         23    2    1    2    0    0 -0.71034947671E+03  0.95900879138E+03 -0.27727179124E+04  0.30206168552E+04  0.10893724513E+03 0.  0.
         13    1    3    3    0    0 -0.13613118036E+03  0.23895211179E+03 -0.55995880428E+03  0.62384587238E+03  0.00000000000E+00 0.  1.
        -13    1    3    3    0    0 -0.57421829635E+03  0.72005667959E+03 -0.22127591081E+04  0.23967709829E+04  0.00000000000E+00 0. -1.
         22    1    1    2    0    0  0.71034947671E+03 -0.95900879138E+03  0.11876827795E+04  0.16837115625E+04  0.00000000000E+00 0.  1.
<mgrwt>
<rscale>  0 0.44292629E+04</rscale>
<asrwt>0</asrwt>
<pdfrwt beam="1">  1        1 0.48379719E+00 0.44292629E+04</pdfrwt>
<pdfrwt beam="2">  1       -1 0.23994564E+00 0.44292629E+04</pdfrwt>
<totfact> 0.28656424E-02</totfact>
</mgrwt>
</event>
<event>
 6    1  0.2236204E-005  0.3009749E+04  0.7818608E-02  0.8240952E-01
         -2   -1    0    0    0  501 -0.00000000000E+00  0.00000000000E+00  0.84619676268E+03  0.84619676268E+03  0.00000000000E+00 0.  1.
          2   -1    0    0  501    0  0.00000000000E+00 -0.00000000000E+00 -0.26762655106E+04  0.26762655106E+04  0.00000000000E+00 0. -1.
         23    2    1    2    0    0 -0.10300964640E+04 -0.18342232108E+03 -0.21794732055E+04  0.24193639332E+04  0.92064729290E+02 0.  0.
         11    1    3    3    0    0 -0.83382236451E+03 -0.12059682619E+03 -0.18045993867E+04  0.19915778359E+04  0.00000000000E+00 0. -1.
        -11    1    3    3    0    0 -0.19627409950E+03 -0.62825494894E+02 -0.37487381885E+03  0.42778609726E+03  0.00000000000E+00 0.  1.
         22    1    1    2    0    0  0.10300964640E+04  0.18342232108E+03  0.34940445760E+03  0.11030983401E+04  0.00000000000E+00 0.  1.
<mgrwt>
<rscale>  0 0.30097490E+04</rscale>
<asrwt>0</asrwt>
<pdfrwt beam="1">  1        2 0.41173315E+00 0.30097490E+04</pdfrwt>
<pdfrwt beam="2">  1       -2 0.13018412E+00 0.30097490E+04</pdfrwt>
<totfact> 0.10150513E+00</totfact>
</mgrwt>
</event>
<event>
 6    1  0.2236204E-005  0.1953194E+04  0.7818608E-02  0.8628822E-01
         -1   -1    0    0    0  501 -0.00000000000E+00  0.00000000000E+00  0.51974473262E+03  0.51974473262E+03  0.00000000000E+00 0.  1.
          1   -1    0    0  501    0  0.00000000000E+00 -0.00000000000E+00 -0.18350197643E+04  0.18350197643E+04  0.00000000000E+00 0. -1.
         23    2    1    2    0    0  0.37009131907E+03 -0.32112401113E+03 -0.16746725658E+04  0.17471011012E+04  0.88010454958E+02 0.  0.
         11    1    3    3    0    0  0.32392950489E+03 -0.31096194799E+03 -0.15514552480E+04  0.16151288010E+04  0.00000000000E+00 0. -1.
        -11    1    3    3    0    0  0.46161814180E+02 -0.10162063137E+02 -0.12321731773E+03  0.13197230014E+03  0.00000000000E+00 0.  1.
         22    1    1    2    0    0 -0.37009131907E+03  0.32112401113E+03  0.35939753412E+03  0.60766339573E+03  0.00000000000E+00 0.  1.
<mgrwt>
<rscale>  0 0.19531942E+04</rscale>
<asrwt>0</asrwt>
<pdfrwt beam="1">  1        1 0.28231073E+00 0.19531942E+04</pdfrwt>
<pdfrwt beam="2">  1       -1 0.79960730E-01 0.19531942E+04</pdfrwt>
<totfact> 0.56086073E+00</totfact>
</mgrwt>
</event>
<event>
 6    1  0.2236204E-005  0.1543277E+04  0.7818608E-02  0.8856173E-01
         -1   -1    0    0    0  501 -0.00000000000E+00  0.00000000000E+00  0.13115645247E+04  0.13115645247E+04  0.00000000000E+00 0.  1.
          1   -1    0    0  501    0  0.00000000000E+00 -0.00000000000E+00 -0.45398162485E+03  0.45398162485E+03  0.00000000000E+00 0. -1.
         23    2    1    2    0    0 -0.44287936793E+03 -0.22245020977E+03  0.11030350242E+04  0.12124883083E+04  0.88404767594E+02 0.  0.
         11    1    3    3    0    0 -0.16962468051E+03 -0.91743104807E+02  0.32985845070E+03  0.38209413371E+03  0.00000000000E+00 0. -1.
        -11    1    3    3    0    0 -0.27325468743E+03 -0.13070710497E+03  0.77317657347E+03  0.83039417463E+03  0.00000000000E+00 0.  1.
         22    1    1    2    0    0  0.44287936793E+03  0.22245020977E+03 -0.24545212434E+03  0.55305784120E+03  0.00000000000E+00 0. -1.
<mgrwt>
<rscale>  0 0.15432773E+04</rscale>
<asrwt>0</asrwt>
<pdfrwt beam="1">  1        1 0.69843327E-01 0.15432773E+04</pdfrwt>
<pdfrwt beam="2">  1       -1 0.20177916E+00 0.15432773E+04</pdfrwt>
<totfact> 0.71348005E+00</totfact>
</mgrwt>
</event>
<event>
 6    1  0.2236204E-005  0.2039272E+04  0.7818608E-02  0.8588477E-01
          2   -1    0    0  501    0  0.00000000000E+00  0.00000000000E+00  0.12619510462E+04  0.12619510462E+04  0.00000000000E+00 0. -1.
         -2   -1    0    0    0  501 -0.00000000000E+00 -0.00000000000E+00 -0.82384941412E+03  0.82384941412E+03  0.00000000000E+00 0.  1.
         23    2    1    2    0    0 -0.90645425634E+03  0.45771732747E+03  0.15065601623E+03  0.10304382226E+04  0.89113549546E+02 0.  0.
         13    1    3    3    0    0 -0.56549738014E+03  0.23817317863E+03  0.79933607507E+02  0.61879167058E+03  0.00000000000E+00 0.  1.
        -13    1    3    3    0    0 -0.34095687620E+03  0.21954414883E+03  0.70722408722E+02  0.41164655204E+03  0.00000000000E+00 0. -1.
         22    1    1    2    0    0  0.90645425634E+03 -0.45771732747E+03  0.28744561587E+03  0.10553622377E+04  0.00000000000E+00 0. -1.
<mgrwt>
<rscale>  0 0.20392721E+04</rscale>
<asrwt>0</asrwt>
<pdfrwt beam="1">  1        2 0.19414632E+00 0.20392721E+04</pdfrwt>
<pdfrwt beam="2">  1       -2 0.12674606E+00 0.20392721E+04</pdfrwt>
<totfact> 0.74639888E+00</totfact>
</mgrwt>
</event>
<event>
 6    1  0.2236204E-005  0.6123207E+03  0.7818608E-02  0.9880169E-01
         -2   -1    0    0    0  501 -0.00000000000E+00  0.00000000000E+00  0.13712200144E+03  0.13712200144E+03  0.00000000000E+00 0.  1.
          2   -1    0    0  501    0  0.00000000000E+00 -0.00000000000E+00 -0.68358231347E+03  0.68358231347E+03  0.00000000000E+00 0. -1.
         23    2    1    2    0    0  0.14163003509E+03 -0.21953928237E+03 -0.47540640107E+03  0.54995494445E+03  0.90457898540E+02 0.  0.
         11    1    3    3    0    0  0.62220432932E+02 -0.15304617395E+03 -0.35201897411E+03  0.38885970705E+03  0.00000000000E+00 0.  1.
        -11    1    3    3    0    0  0.79409602154E+02 -0.66493108414E+02 -0.12338742696E+03  0.16109523740E+03  0.00000000000E+00 0. -1.
         22    1    1    2    0    0 -0.14163003509E+03  0.21953928237E+03 -0.71053910954E+02  0.27074937046E+03  0.00000000000E+00 0.  1.
<mgrwt>
<rscale>  0 0.61232075E+03</rscale>
<asrwt>0</asrwt>
<pdfrwt beam="1">  1        2 0.10516651E+00 0.61232075E+03</pdfrwt>
<pdfrwt beam="2">  1       -2 0.21095692E-01 0.61232075E+03</pdfrwt>
<totfact> 0.82426400E+02</totfact>
</mgrwt>
</event>
<event>
 6    1  0.2236204E-005  0.8019534E+03  0.7818608E-02  0.9557194E-01
         -1   -1    0    0    0  501 -0.00000000000E+00  0.00000000000E+00  0.21632142663E+03  0.21632142663E+03  0.00000000000E+00 0.  1.
          1   -1    0    0  501    0  0.00000000000E+00 -0.00000000000E+00 -0.74325662091E+03  0.74325662091E+03  0.00000000000E+00 0. -1.
         23    2    1    2    0    0 -0.12300691211E+03 -0.19943311232E+03  0.11546105408E+03  0.27578187424E+03  0.88431444817E+02 0.  0.
         11    1    3    3    0    0 -0.81073968436E+02 -0.15321045180E+03  0.40068599984E+02  0.17790987495E+03  0.00000000000E+00 0. -1.
        -11    1    3    3    0    0 -0.41932943672E+02 -0.46222660519E+02  0.75392454095E+02  0.97871999289E+02  0.00000000000E+00 0.  1.
         22    1    1    2    0    0  0.12300691211E+03  0.19943311232E+03 -0.64239624837E+03  0.68379617331E+03  0.00000000000E+00 0. -1.
<mgrwt>
<rscale>  0 0.80195345E+03</rscale>
<asrwt>0</asrwt>
<pdfrwt beam="1">  1        1 0.11434717E+00 0.80195345E+03</pdfrwt>
<pdfrwt beam="2">  1       -1 0.33280220E-01 0.80195345E+03</pdfrwt>
<totfact> 0.21301824E+02</totfact>
</mgrwt>
</event>
<event>
 6    1  0.2236204E-005  0.1419311E+04  0.7818608E-02  0.8939958E-01
         -2   -1    0    0    0  501 -0.00000000000E+00  0.00000000000E+00  0.40197395953E+03  0.40197395953E+03  0.00000000000E+00 0. -1.
          2   -1    0    0  501    0  0.00000000000E+00 -0.00000000000E+00 -0.12528449134E+04  0.12528449134E+04  0.00000000000E+00 0.  1.
         23    2    1    2    0    0  0.46283362746E+03 -0.33632677868E+03 -0.91106933186E+03  0.10795324108E+04  0.89511059265E+02 0.  0.
         11    1    3    3    0    0  0.12789635952E+03 -0.10596220735E+03 -0.34183187433E+03  0.38004539002E+03  0.00000000000E+00 0.  1.
        -11    1    3    3    0    0  0.33493726793E+03 -0.23036457133E+03 -0.56923745753E+03  0.69948702077E+03  0.00000000000E+00 0. -1.
         22    1    1    2    0    0 -0.46283362746E+03  0.33632677868E+03  0.60198378023E+02  0.57528646210E+03  0.00000000000E+00 0. -1.
<mgrwt>
<rscale>  0 0.14193111E+04</rscale>
<asrwt>0</asrwt>
<pdfrwt beam="1">  1        2 0.19274537E+00 0.14193111E+04</pdfrwt>
<pdfrwt beam="2">  1       -2 0.61842148E-01 0.14193111E+04</pdfrwt>
<totfact> 0.41593578E+01</totfact>
</mgrwt>
</event>
<event>
 6    1  0.2236204E-005  0.1589642E+04  0.7818608E-02  0.8826937E-01
          1   -1    0    0  501    0  0.00000000000E+00  0.00000000000E+00  0.78774204675E+03  0.78774204675E+03  0.00000000000E+00 0. -1.
         -1   -1    0    0    0  501 -0.00000000000E+00 -0.00000000000E+00 -0.80196342604E+03  0.80196342604E+03  0.00000000000E+00 0.  1.
         23    2    1    2    0    0  0.59992120676E+03 -0.33056967980E+03 -0.40505545413E+03  0.80107815804E+03  0.92057193333E+02 0.  0.
         11    1    3    3    0    0  0.31176772392E+03 -0.18533939642E+03 -0.16270112220E+03  0.39751913250E+03  0.00000000000E+00 0.  1.
        -11    1    3    3    0    0  0.28815348284E+03 -0.14523028338E+03 -0.24235433193E+03  0.40355902554E+03  0.00000000000E+00 0. -1.
         22    1    1    2    0    0 -0.59992120676E+03  0.33056967980E+03  0.39083407483E+03  0.78862731475E+03  0.00000000000E+00 0. -1.
<mgrwt>
<rscale>  0 0.15896419E+04</rscale>
<asrwt>0</asrwt>
<pdfrwt beam="1">  1        1 0.12119108E+00 0.15896419E+04</pdfrwt>
<pdfrwt beam="2">  1       -1 0.12337899E+00 0.15896419E+04</pdfrwt>
<totfact> 0.12585303E+01</totfact>
</mgrwt>
</event>
<event>
 6    1  0.2236204E-005  0.2301282E+04  0.7818608E-02  0.8477416E-01
         -2   -1    0    0    0  501 -0.00000000000E+00  0.00000000000E+00  0.12378320693E+04  0.12378320693E+04  0.00000000000E+00 0.  1.
          2   -1    0    0  501    0  0.00000000000E+00 -0.00000000000E+00 -0.10695911301E+04  0.10695911301E+04  0.00000000000E+00 0. -1.
         23    2    1    2    0    0  0.85623027978E+03  0.41491808489E+03  0.72976212543E+03  0.12026185327E+04  0.91930768679E+02 0.  0.
         13    1    3    3    0    0  0.56004049780E+03  0.22302797614E+03  0.47101492219E+03  0.76501104191E+03  0.00000000000E+00 0.  1.
        -13    1    3    3    0    0  0.29618978197E+03  0.19189010875E+03  0.25874720324E+03  0.43760749076E+03  0.00000000000E+00 0. -1.
         22    1    1    2    0    0 -0.85623027978E+03 -0.41491808489E+03 -0.56152118620E+03  0.11048046668E+04  0.00000000000E+00 0. -1.
<mgrwt>
<rscale>  0 0.23012816E+04</rscale>
<asrwt>0</asrwt>
<pdfrwt beam="1">  1        2 0.16455248E+00 0.23012816E+04</pdfrwt>
<pdfrwt beam="2">  1       -2 0.19043570E+00 0.23012816E+04</pdfrwt>
<totfact> 0.31754341E+00</totfact>
</mgrwt>
</event>
<event>
 6    1  0.2236204E-005  0.2056800E+04  0.7818608E-02  0.8580516E-01
          1   -1    0    0  501    0  0.00000000000E+00  0.00000000000E+00  0.50744606749E+03  0.50744606749E+03  0.00000000000E+00 0. -1.
         -1   -1    0    0    0  501 -0.00000000000E+00 -0.00000000000E+00 -0.20841756958E+04  0.20841756958E+04  0.00000000000E+00 0.  1.
         23    2    1    2    0    0  0.63405171191E+02  0.99402508338E+03 -0.47714941429E+03  0.11079834215E+04  0.88598062365E+02 0.  0.
         13    1    3    3    0    0  0.37819841257E+02  0.91166807981E+03 -0.45126091351E+03  0.10179417666E+04  0.00000000000E+00 0.  1.
        -13    1    3    3    0    0  0.25585329934E+02  0.82357003567E+02 -0.25888500780E+02  0.90041654899E+02  0.00000000000E+00 0. -1.
         22    1    1    2    0    0 -0.63405171191E+02 -0.99402508338E+03 -0.10995802140E+04  0.14836383418E+04  0.00000000000E+00 0.  1.
<mgrwt>
<rscale>  0 0.20568002E+04</rscale>
<asrwt>0</asrwt>
<pdfrwt beam="1">  1        1 0.78068626E-01 0.20568002E+04</pdfrwt>
<pdfrwt beam="2">  1       -1 0.32064242E+00 0.20568002E+04</pdfrwt>
<totfact> 0.97256888E-01</totfact>
</mgrwt>
</event>
<event>
 6    1  0.2236204E-005  0.2483391E+04  0.7818608E-02  0.8408927E-01
          2   -1    0    0  501    0  0.00000000000E+00  0.00000000000E+00  0.66096927384E+03  0.66096927384E+03  0.00000000000E+00 0. -1.
         -2   -1    0    0    0  501 -0.00000000000E+00 -0.00000000000E+00 -0.23326460410E+04  0.23326460410E+04  0.00000000000E+00 0.  1.
         23    2    1    2    0    0 -0.87195701935E+03 -0.33273888660E+03  0.14752017862E+03  0.94898778450E+03  0.88268917452E+02 0.  0.
         13    1    3    3    0    0 -0.17973528594E+03 -0.32181911461E+02  0.20952890986E+02  0.18379192604E+03  0.00000000000E+00 0.  1.
        -13    1    3    3    0    0 -0.69222173341E+03 -0.30055697514E+03  0.12656728763E+03  0.76519585846E+03  0.00000000000E+00 0. -1.
         22    1    1    2    0    0  0.87195701935E+03  0.33273888660E+03 -0.18191969457E+04  0.20446275303E+04  0.00000000000E+00 0.  1.
<mgrwt>
<rscale>  0 0.24833907E+04</rscale>
<asrwt>0</asrwt>
<pdfrwt beam="1">  1        2 0.10168758E+00 0.24833907E+04</pdfrwt>
<pdfrwt beam="2">  1       -2 0.35886863E+00 0.24833907E+04</pdfrwt>
<totfact> 0.53801602E-01</totfact>
</mgrwt>
</event>
<event>
 6    1  0.2236204E-005  0.1493076E+04  0.7818608E-02  0.8889071E-01
          2   -1    0    0  501    0  0.00000000000E+00  0.00000000000E+00  0.11620049487E+04  0.11620049487E+04  0.00000000000E+00 0. -1.
         -2   -1    0    0    0  501 -0.00000000000E+00 -0.00000000000E+00 -0.47961825037E+03  0.47961825037E+03  0.00000000000E+00 0.  1.
         23    2    1    2    0    0  0.32217271467E+03 -0.32337496641E+03 -0.30308870011E+03  0.55556224871E+03  0.91760694608E+02 0.  0.
         13    1    3    3    0    0  0.24067031589E+03 -0.18070125421E+03 -0.20605158771E+03  0.36473607036E+03  0.00000000000E+00 0. -1.
        -13    1    3    3    0    0  0.81502398782E+02 -0.14267371220E+03 -0.97037112396E+02  0.19082617834E+03  0.00000000000E+00 0.  1.
         22    1    1    2    0    0 -0.32217271467E+03  0.32337496641E+03  0.98547539847E+03  0.10860609504E+04  0.00000000000E+00 0. -1.
<mgrwt>
<rscale>  0 0.14930757E+04</rscale>
<asrwt>0</asrwt>
<pdfrwt beam="1">  1        2 0.17876999E+00 0.14930757E+04</pdfrwt>
<pdfrwt beam="2">  1       -2 0.73787424E-01 0.14930757E+04</pdfrwt>
<totfact> 0.31955804E+01</totfact>
</mgrwt>
</event>
<event>
 6    1  0.2236204E-005  0.1826163E+04  0.7818608E-02  0.8692509E-01
          2   -1    0    0  501    0  0.00000000000E+00  0.00000000000E+00  0.13030919702E+04  0.13030919702E+04  0.00000000000E+00 0. -1.
         -2   -1    0    0    0  501 -0.00000000000E+00 -0.00000000000E+00 -0.63979962415E+03  0.63979962415E+03  0.00000000000E+00 0.  1.
         23    2    1    2    0    0  0.50341523495E+03  0.67712808320E+02 -0.47184912790E+03  0.69928470748E+03  0.91354142912E+02 0.  0.
         13    1    3    3    0    0  0.97903342725E+02  0.50503684426E+02 -0.10510590364E+03  0.15225944187E+03  0.00000000000E+00 0.  1.
        -13    1    3    3    0    0  0.40551189223E+03  0.17209123894E+02 -0.36674322425E+03  0.54702526561E+03  0.00000000000E+00 0. -1.
         22    1    1    2    0    0 -0.50341523495E+03 -0.67712808320E+02  0.11351414739E+04  0.12436068869E+04  0.00000000000E+00 0. -1.
<mgrwt>
<rscale>  0 0.18261629E+04</rscale>
<asrwt>0</asrwt>
<pdfrwt beam="1">  1        2 0.20047569E+00 0.18261629E+04</pdfrwt>
<pdfrwt beam="2">  1       -2 0.98430711E-01 0.18261629E+04</pdfrwt>
<totfact> 0.13301322E+01</totfact>
</mgrwt>
</event>
<event>
 6    1  0.2236204E-005  0.1884960E+04  0.7818608E-02  0.8662379E-01
         -2   -1    0    0    0  501 -0.00000000000E+00  0.00000000000E+00  0.89090677019E+03  0.89090677019E+03  0.00000000000E+00 0.  1.
          2   -1    0    0  501    0  0.00000000000E+00 -0.00000000000E+00 -0.99703832438E+03  0.99703832438E+03  0.00000000000E+00 0. -1.
         23    2    1    2    0    0 -0.45248332402E+03 -0.74305387070E+03  0.30400458338E+03  0.92613333304E+03  0.91836542677E+02 0.  0.
         13    1    3    3    0    0 -0.37656112163E+03 -0.54763414446E+03  0.21684458422E+03  0.69908726795E+03  0.00000000000E+00 0.  1.
        -13    1    3    3    0    0 -0.75922202389E+02 -0.19541972624E+03  0.87159999160E+02  0.22704606509E+03  0.00000000000E+00 0. -1.
         22    1    1    2    0    0  0.45248332402E+03  0.74305387070E+03 -0.41013613757E+03  0.96181176153E+03  0.00000000000E+00 0. -1.
<mgrwt>
<rscale>  0 0.18849596E+04</rscale>
<asrwt>0</asrwt>
<pdfrwt beam="1">  1        2 0.15339051E+00 0.18849596E+04</pdfrwt>
<pdfrwt beam="2">  1       -2 0.13706258E+00 0.18849596E+04</pdfrwt>
<totfact> 0.90015811E+00</totfact>
</mgrwt>
</event>
<event>
 6    1  0.2236204E-005  0.5231738E+04  0.7818608E-02  0.7793721E-01
          2   -1    0    0  501    0  0.00000000000E+00  0.00000000000E+00  0.48198023323E+04  0.48198023323E+04  0.00000000000E+00 0. -1.
         -2   -1    0    0    0  501 -0.00000000000E+00 -0.00000000000E+00 -0.14197200750E+04  0.14197200750E+04  0.00000000000E+00 0.  1.
         23    2    1    2    0    0  0.20190893400E+04 -0.14968222191E+04  0.25617182189E+04  0.35899841873E+04  0.91584461077E+02 0.  0.
         11    1    3    3    0    0  0.12415186278E+04 -0.95069099469E+03  0.15401476808E+04  0.21948204367E+04  0.00000000000E+00 0. -1.
        -11    1    3    3    0    0  0.77757071219E+03 -0.54613122444E+03  0.10215705381E+04  0.13951637507E+04  0.00000000000E+00 0.  1.
         22    1    1    2    0    0 -0.20190893400E+04  0.14968222191E+04  0.83836403831E+03  0.26495382200E+04  0.00000000000E+00 0.  1.
<mgrwt>
<rscale>  0 0.52317378E+04</rscale>
<asrwt>0</asrwt>
<pdfrwt beam="1">  1        2 0.74150804E+00 0.52317378E+04</pdfrwt>
<pdfrwt beam="2">  1       -2 0.21841847E+00 0.52317378E+04</pdfrwt>
<totfact> 0.40250356E-03</totfact>
</mgrwt>
</event>
<event>
 6    1  0.2236204E-005  0.2339588E+04  0.7818608E-02  0.8462474E-01
         -2   -1    0    0    0  501 -0.00000000000E+00  0.00000000000E+00  0.92658985347E+03  0.92658985347E+03  0.00000000000E+00 0. -1.
          2   -1    0    0  501    0  0.00000000000E+00 -0.00000000000E+00 -0.14768327536E+04  0.14768327536E+04  0.00000000000E+00 0.  1.
         23    2    1    2    0    0  0.54190266154E+03 -0.25594473212E+03 -0.13054592909E+04  0.14393074700E+04  0.90641229828E+02 0.  0.
         11    1    3    3    0    0  0.31769138207E+03 -0.10070946767E+03 -0.70242364347E+03  0.77747616429E+03  0.00000000000E+00 0. -1.
        -11    1    3    3    0    0  0.22421127947E+03 -0.15523526445E+03 -0.60303564746E+03  0.66183130575E+03  0.00000000000E+00 0.  1.
         22    1    1    2    0    0 -0.54190266154E+03  0.25594473212E+03  0.75521639081E+03  0.96411513702E+03  0.00000000000E+00 0. -1.
<mgrwt>
<rscale>  0 0.23395882E+04</rscale>
<asrwt>0</asrwt>
<pdfrwt beam="1">  1        2 0.22720504E+00 0.23395882E+04</pdfrwt>
<pdfrwt beam="2">  1       -2 0.14255229E+00 0.23395882E+04</pdfrwt>
<totfact> 0.40516001E+00</totfact>
</mgrwt>
</event>
<event>
 6    1  0.2236204E-005  0.1838129E+04  0.7818608E-02  0.8686282E-01
         -1   -1    0    0    0  501 -0.00000000000E+00  0.00000000000E+00  0.17808522737E+04  0.17808522737E+04  0.00000000000E+00 0.  1.
          1   -1    0    0  501    0  0.00000000000E+00 -0.00000000000E+00 -0.47431184392E+03  0.47431184392E+03  0.00000000000E+00 0. -1.
         23    2    1    2    0    0  0.32163176817E+03  0.16468971170E+03 -0.37835369167E+03  0.53195841431E+03  0.96221323596E+02 0.  0.
         11    1    3    3    0    0  0.27993083620E+03  0.10568781996E+03 -0.32748713032E+03  0.44359780079E+03  0.00000000000E+00 0. -1.
        -11    1    3    3    0    0  0.41700931967E+02  0.59001891748E+02 -0.50866561349E+02  0.88360613512E+02  0.00000000000E+00 0.  1.
         22    1    1    2    0    0 -0.32163176817E+03 -0.16468971170E+03  0.16848941215E+04  0.17232057033E+04  0.00000000000E+00 0.  1.
<mgrwt>
<rscale>  0 0.18381288E+04</rscale>
<asrwt>0</asrwt>
<pdfrwt beam="1">  1        1 0.72971054E-01 0.18381288E+04</pdfrwt>
<pdfrwt beam="2">  1       -1 0.27397727E+00 0.18381288E+04</pdfrwt>
<totfact> 0.21835784E+00</totfact>
</mgrwt>
</event>
<event>
 6    1  0.2236204E-005  0.3805271E+04  0.7818608E-02  0.8045025E-01
         -2   -1    0    0    0  501 -0.00000000000E+00  0.00000000000E+00  0.13656475768E+04  0.13656475768E+04  0.00000000000E+00 0.  1.
          2   -1    0    0  501    0  0.00000000000E+00 -0.00000000000E+00 -0.26507736901E+04  0.26507736901E+04  0.00000000000E+00 0. -1.
         23    2    1    2    0    0 -0.93177419361E+03 -0.25432988963E+03 -0.23714216170E+04  0.25628309664E+04  0.10758827030E+03 0.  0.
         13    1    3    3    0    0 -0.49204449566E+03 -0.83636812662E+02 -0.12782115727E+04  0.13721981368E+04  0.00000000000E+00 0. -1.
        -13    1    3    3    0    0 -0.43972969795E+03 -0.17069307697E+03 -0.10932100443E+04  0.11906328295E+04  0.00000000000E+00 0.  1.
         22    1    1    2    0    0  0.93177419361E+03  0.25432988963E+03  0.10862955037E+04  0.14535903006E+04  0.00000000000E+00 0.  1.
<mgrwt>
<rscale>  0 0.38052714E+04</rscale>
<asrwt>0</asrwt>
<pdfrwt beam="1">  1        2 0.40781133E+00 0.38052714E+04</pdfrwt>
<pdfrwt beam="2">  1       -2 0.21009963E+00 0.38052714E+04</pdfrwt>
<totfact> 0.26026047E-01</totfact>
</mgrwt>
</event>
<event>
 6    1  0.2236204E-005  0.1604178E+04  0.7818608E-02  0.8817985E-01
         -1   -1    0    0    0  501 -0.00000000000E+00  0.00000000000E+00  0.14460772797E+04  0.14460772797E+04  0.00000000000E+00 0.  1.
          1   -1    0    0  501    0  0.00000000000E+00 -0.00000000000E+00 -0.44489098703E+03  0.44489098703E+03  0.00000000000E+00 0. -1.
         23    2    1    2    0    0  0.13213691500E+03  0.49076646435E+03  0.12296907876E+04  0.13337194973E+04  0.91413223904E+02 0.  0.
         11    1    3    3    0    0  0.73731700280E+02  0.30830402517E+03  0.64976287661E+03  0.72296578853E+03  0.00000000000E+00 0.  1.
        -11    1    3    3    0    0  0.58405214717E+02  0.18246243918E+03  0.57992791103E+03  0.61075370880E+03  0.00000000000E+00 0. -1.
         22    1    1    2    0    0 -0.13213691500E+03 -0.49076646435E+03 -0.22850449493E+03  0.55724876944E+03  0.00000000000E+00 0. -1.
<mgrwt>
<rscale>  0 0.16041780E+04</rscale>
<asrwt>0</asrwt>
<pdfrwt beam="1">  1        1 0.68444768E-01 0.16041780E+04</pdfrwt>
<pdfrwt beam="2">  1       -1 0.22247343E+00 0.16041780E+04</pdfrwt>
<totfact> 0.52837967E+00</totfact>
</mgrwt>
</event>
<event>
 6    1  0.2236204E-005  0.1021252E+04  0.7818608E-02  0.9285539E-01
          1   -1    0    0  501    0  0.00000000000E+00  0.00000000000E+00  0.21260172546E+04  0.21260172546E+04  0.00000000000E+00 0. -1.
         -1   -1    0    0    0  501 -0.00000000000E+00 -0.00000000000E+00 -0.12264186690E+03  0.12264186690E+03  0.00000000000E+00 0.  1.
         23    2    1    2    0    0 -0.17211106020E+03  0.28031639574E+03  0.16024016064E+03  0.37640193725E+03  0.88328990267E+02 0.  0.
         11    1    3    3    0    0 -0.16034195673E+03  0.19705066002E+03  0.13934776081E+03  0.28975214260E+03  0.00000000000E+00 0. -1.
        -11    1    3    3    0    0 -0.11769103472E+02  0.83265735725E+02  0.20892399831E+02  0.86649794651E+02  0.00000000000E+00 0.  1.
         22    1    1    2    0    0  0.17211106020E+03 -0.28031639574E+03  0.18431352270E+04  0.18722571842E+04  0.00000000000E+00 0. -1.
<mgrwt>
<rscale>  0 0.10212516E+04</rscale>
<asrwt>0</asrwt>
<pdfrwt beam="1">  1        1 0.32707955E+00 0.10212516E+04</pdfrwt>
<pdfrwt beam="2">  1       -1 0.18867981E-01 0.10212516E+04</pdfrwt>
<totfact> 0.55568282E+01</totfact>
</mgrwt>
</event>
<event>
 6    1  0.2236204E-005  0.2094540E+04  0.7818608E-02  0.8563652E-01
          2   -1    0    0  501    0  0.00000000000E+00  0.00000000000E+00  0.12501454232E+04  0.12501454232E+04  0.00000000000E+00 0. -1.
         -2   -1    0    0    0  501 -0.00000000000E+00 -0.00000000000E+00 -0.87731724684E+03  0.87731724684E+03  0.00000000000E+00 0.  1.
         23    2    1    2    0    0 -0.19774350370E+03  0.99937127895E+03  0.42466937926E+03  0.11073974972E+04  0.90220222992E+02 0.  0.
         13    1    3    3    0    0 -0.13296847911E+03  0.52059124783E+03  0.18659044643E+03  0.56878102856E+03  0.00000000000E+00 0. -1.
        -13    1    3    3    0    0 -0.64775024597E+02  0.47878003112E+03  0.23807893284E+03  0.53861646862E+03  0.00000000000E+00 0.  1.
         22    1    1    2    0    0  0.19774350370E+03 -0.99937127895E+03 -0.51841202953E+02  0.10200651728E+04  0.00000000000E+00 0.  1.
<mgrwt>
<rscale>  0 0.20945397E+04</rscale>
<asrwt>0</asrwt>
<pdfrwt beam="1">  1        2 0.19233006E+00 0.20945397E+04</pdfrwt>
<pdfrwt beam="2">  1       -2 0.13497188E+00 0.20945397E+04</pdfrwt>
<totfact> 0.64365708E+00</totfact>
</mgrwt>
</event>
<event>
 6    1  0.2236204E-005  0.4627179E+04  0.7818608E-02  0.7888742E-01
          2   -1    0    0  501    0  0.00000000000E+00  0.00000000000E+00  0.14247206330E+04  0.14247206330E+04  0.00000000000E+00 0.  1.
         -2   -1    0    0    0  501 -0.00000000000E+00 -0.00000000000E+00 -0.37570140953E+04  0.37570140953E+04  0.00000000000E+00 0. -1.
         23    2    1    2    0    0  0.20789161231E+04  0.89307676147E+03 -0.17024751222E+04  0.28330862892E+04  0.92076225769E+02 0.  0.
         13    1    3    3    0    0  0.12251342199E+04  0.48918510334E+03 -0.10295339268E+04  0.16733786268E+04  0.00000000000E+00 0. -1.
        -13    1    3    3    0    0  0.85378190321E+03  0.40389165813E+03 -0.67294119539E+03  0.11597076624E+04  0.00000000000E+00 0.  1.
         22    1    1    2    0    0 -0.20789161231E+04 -0.89307676147E+03 -0.62981834015E+03  0.23486484391E+04  0.00000000000E+00 0. -1.
<mgrwt>
<rscale>  0 0.46271786E+04</rscale>
<asrwt>0</asrwt>
<pdfrwt beam="1">  1        2 0.21918779E+00 0.46271786E+04</pdfrwt>
<pdfrwt beam="2">  1       -2 0.57800217E+00 0.46271786E+04</pdfrwt>
<totfact> 0.66319850E-03</totfact>
</mgrwt>
</event>
<event>
 6    1  0.2236204E-005  0.3425778E+04  0.7818608E-02  0.8131608E-01
         -1   -1    0    0    0  501 -0.00000000000E+00  0.00000000000E+00  0.19014979830E+04  0.19014979830E+04  0.00000000000E+00 0.  1.
          1   -1    0    0  501    0  0.00000000000E+00 -0.00000000000E+00 -0.15429877386E+04  0.15429877386E+04  0.00000000000E+00 0. -1.
         23    2    1    2    0    0 -0.43412790079E+03  0.27941508500E+03  0.18202605186E+04  0.18942426154E+04  0.90922528091E+02 0.  0.
         11    1    3    3    0    0 -0.14960022800E+03  0.14772474188E+03  0.76942798270E+03  0.79763541054E+03  0.00000000000E+00 0.  1.
        -11    1    3    3    0    0 -0.28452767279E+03  0.13169034312E+03  0.10508325359E+04  0.10966072048E+04  0.00000000000E+00 0. -1.
         22    1    1    2    0    0  0.43412790079E+03 -0.27941508500E+03 -0.14617502743E+04  0.15502431063E+04  0.00000000000E+00 0. -1.
<mgrwt>
<rscale>  0 0.34257776E+04</rscale>
<asrwt>0</asrwt>
<pdfrwt beam="1">  1        1 0.23738273E+00 0.34257776E+04</pdfrwt>
<pdfrwt beam="2">  1       -1 0.29253815E+00 0.34257776E+04</pdfrwt>
<totfact> 0.18509442E-01</totfact>
</mgrwt>
</event>
<event>
 6    1  0.2236204E-005  0.6718269E+03  0.7818608E-02  0.9766663E-01
         -2   -1    0    0    0  501 -0.00000000000E+00  0.00000000000E+00  0.79606615881E+02  0.79606615881E+02  0.00000000000E+00 0.  1.
          2   -1    0    0  501    0  0.00000000000E+00 -0.00000000000E+00 -0.14174429989E+04  0.14174429989E+04  0.00000000000E+00 0. -1.
         23    2    1    2    0    0 -0.23759867496E+03  0.65020046522E+02 -0.19304953006E+03  0.32605957405E+03  0.91465774905E+02 0.  0.
         13    1    3    3    0    0 -0.56163528927E+02  0.52643874510E+02 -0.84338081263E+02  0.11418682698E+03  0.00000000000E+00 0.  1.
        -13    1    3    3    0    0 -0.18143514603E+03  0.12376172012E+02 -0.10871144880E+03  0.21187274706E+03  0.00000000000E+00 0. -1.
         22    1    1    2    0    0  0.23759867496E+03 -0.65020046522E+02 -0.11447868530E+04  0.11709900408E+04  0.00000000000E+00 0. -1.
<mgrwt>
<rscale>  0 0.67182688E+03</rscale>
<asrwt>0</asrwt>
<pdfrwt beam="1">  1        2 0.21806816E+00 0.67182688E+03</pdfrwt>
<pdfrwt beam="2">  1       -2 0.12247171E-01 0.67182688E+03</pdfrwt>
<totfact> 0.70586106E+02</totfact>
</mgrwt>
</event>
<event>
 6    1  0.2236204E-005  0.2587373E+04  0.7818608E-02  0.8372503E-01
          2   -1    0    0  501    0  0.00000000000E+00  0.00000000000E+00  0.20219022054E+04  0.20219022054E+04  0.00000000000E+00 0. -1.
         -2   -1    0    0    0  501 -0.00000000000E+00 -0.00000000000E+00 -0.82774769458E+03  0.82774769458E+03  0.00000000000E+00 0.  1.
         23    2    1    2    0    0 -0.87737795972E+03  0.21816569315E+03 -0.41891003496E+03  0.10004972338E+04  0.90115168765E+02 0.  0.
         13    1    3    3    0    0 -0.58483331136E+03  0.11269580207E+03 -0.24336723015E+03  0.64339564390E+03  0.00000000000E+00 0.  1.
        -13    1    3    3    0    0 -0.29254464836E+03  0.10546989108E+03 -0.17554280482E+03  0.35710158993E+03  0.00000000000E+00 0. -1.
         22    1    1    2    0    0  0.87737795972E+03 -0.21816569315E+03  0.16130645458E+04  0.18491526662E+04  0.00000000000E+00 0. -1.
<mgrwt>
<rscale>  0 0.25873731E+04</rscale>
<asrwt>0</asrwt>
<pdfrwt beam="1">  1        2 0.31106187E+00 0.25873731E+04</pdfrwt>
<pdfrwt beam="2">  1       -2 0.12734580E+00 0.25873731E+04</pdfrwt>
<totfact> 0.26320225E+00</totfact>
</mgrwt>
</event>
<event>
 6    1  0.2236204E-005  0.2449433E+04  0.7818608E-02  0.8421225E-01
          2   -1    0    0  501    0  0.00000000000E+00  0.00000000000E+00  0.20336624087E+04  0.20336624087E+04  0.00000000000E+00 0.  1.
         -2   -1    0    0    0  501 -0.00000000000E+00 -0.00000000000E+00 -0.73755145982E+03  0.73755145982E+03  0.00000000000E+00 0. -1.
         23    2    1    2    0    0  0.82999444241E+03 -0.84949433442E+03  0.31922711603E+03  0.12334123789E+04  0.94174020693E+02 0.  0.
         13    1    3    3    0    0  0.33138719865E+03 -0.39125602095E+03  0.16778972921E+03  0.53949248613E+03  0.00000000000E+00 0. -1.
        -13    1    3    3    0    0  0.49860724375E+03 -0.45823831347E+03  0.15143738682E+03  0.69391989277E+03  0.00000000000E+00 0.  1.
         22    1    1    2    0    0 -0.82999444241E+03  0.84949433442E+03  0.97688383287E+03  0.15378014896E+04  0.00000000000E+00 0.  1.
<mgrwt>
<rscale>  0 0.24494331E+04</rscale>
<asrwt>0</asrwt>
<pdfrwt beam="1">  1        2 0.31287114E+00 0.24494331E+04</pdfrwt>
<pdfrwt beam="2">  1       -2 0.11346946E+00 0.24494331E+04</pdfrwt>
<totfact> 0.34913770E+00</totfact>
</mgrwt>
</event>
<event>
 6    1  0.2236204E-005  0.4166960E+04  0.7818608E-02  0.7971687E-01
          2   -1    0    0  501    0  0.00000000000E+00  0.00000000000E+00  0.28244346546E+04  0.28244346546E+04  0.00000000000E+00 0. -1.
         -2   -1    0    0    0  501 -0.00000000000E+00 -0.00000000000E+00 -0.15369050946E+04  0.15369050946E+04  0.00000000000E+00 0.  1.
         23    2    1    2    0    0  0.19255927603E+04  0.78708886011E+03  0.74630477654E+03  0.22118419896E+04  0.88644318809E+02 0.  0.
         13    1    3    3    0    0  0.14010511267E+04  0.53596787275E+03  0.51578110582E+03  0.15862647854E+04  0.00000000000E+00 0.  1.
        -13    1    3    3    0    0  0.52454163366E+03  0.25112098736E+03  0.23052367072E+03  0.62557720427E+03  0.00000000000E+00 0. -1.
         22    1    1    2    0    0 -0.19255927603E+04 -0.78708886011E+03  0.54122478348E+03  0.21494977596E+04  0.00000000000E+00 0.  1.
<mgrwt>
<rscale>  0 0.41669596E+04</rscale>
<asrwt>0</asrwt>
<pdfrwt beam="1">  1        2 0.43452841E+00 0.41669596E+04</pdfrwt>
<pdfrwt beam="2">  1       -2 0.23644694E+00 0.41669596E+04</pdfrwt>
<totfact> 0.13552132E-01</totfact>
</mgrwt>
</event>
<event>
 6    1  0.2236204E-005  0.4514970E+04  0.7818608E-02  0.7908021E-01
          2   -1    0    0  501    0  0.00000000000E+00  0.00000000000E+00  0.25386060728E+04  0.25386060728E+04  0.00000000000E+00 0. -1.
         -2   -1    0    0    0  501 -0.00000000000E+00 -0.00000000000E+00 -0.20074943698E+04  0.20074943698E+04  0.00000000000E+00 0.  1.
         23    2    1    2    0    0 -0.10512729980E+04 -0.14088088718E+04  0.16902614025E+04  0.24405018628E+04  0.95647162833E+02 0.  0.
         13    1    3    3    0    0 -0.24289366092E+03 -0.39125700172E+03  0.46294534241E+03  0.65299139502E+03  0.00000000000E+00 0. -1.
        -13    1    3    3    0    0 -0.80837933708E+03 -0.10175518701E+04  0.12273160601E+04  0.17875104678E+04  0.00000000000E+00 0.  1.
         22    1    1    2    0    0  0.10512729980E+04  0.14088088718E+04 -0.11591496995E+04  0.21055985798E+04  0.00000000000E+00 0. -1.
<mgrwt>
<rscale>  0 0.45149695E+04</rscale>
<asrwt>0</asrwt>
<pdfrwt beam="1">  1        2 0.39055478E+00 0.45149695E+04</pdfrwt>
<pdfrwt beam="2">  1       -2 0.30884529E+00 0.45149695E+04</pdfrwt>
<totfact> 0.70173688E-02</totfact>
</mgrwt>
</event>
<event>
 6    1  0.2236204E-005  0.3238115E+04  0.7818608E-02  0.8178823E-01
          2   -1    0    0  501    0  0.00000000000E+00  0.00000000000E+00  0.28305687820E+04  0.28305687820E+04  0.00000000000E+00 0. -1.
         -2   -1    0    0    0  501 -0.00000000000E+00 -0.00000000000E+00 -0.92608500279E+03  0.92608500279E+03  0.00000000000E+00 0.  1.
         23    2    1    2    0    0  0.14041470770E+04  0.72333715571E+03  0.54754736304E+03  0.16743180549E+04  0.93205039827E+02 0.  0.
         11    1    3    3    0    0  0.48174766711E+03  0.20119029186E+03  0.16669001951E+03  0.54803641386E+03  0.00000000000E+00 0. -1.
        -11    1    3    3    0    0  0.92239940986E+03  0.52214686385E+03  0.38085734353E+03  0.11262816410E+04  0.00000000000E+00 0.  1.
         22    1    1    2    0    0 -0.14041470770E+04 -0.72333715571E+03  0.13569364162E+04  0.20823357299E+04  0.00000000000E+00 0. -1.
<mgrwt>
<rscale>  0 0.32381151E+04</rscale>
<asrwt>0</asrwt>
<pdfrwt beam="1">  1        2 0.43547212E+00 0.32381151E+04</pdfrwt>
<pdfrwt beam="2">  1       -2 0.14247462E+00 0.32381151E+04</pdfrwt>
<totfact> 0.63782984E-01</totfact>
</mgrwt>
</event>
<event>
 6    1  0.2236204E-005  0.2095272E+04  0.7818608E-02  0.8563329E-01
         -2   -1    0    0    0  501 -0.00000000000E+00  0.00000000000E+00  0.62729584522E+03  0.62729584522E+03  0.00000000000E+00 0.  1.
          2   -1    0    0  501    0  0.00000000000E+00 -0.00000000000E+00 -0.17496383263E+04  0.17496383263E+04  0.00000000000E+00 0. -1.
         23    2    1    2    0    0  0.87822511159E+03  0.40391044598E+03 -0.10143857260E+04  0.14042689382E+04  0.92573509887E+02 0.  0.
         11    1    3    3    0    0  0.80815502949E+03  0.35978439708E+03 -0.89010893447E+03  0.12549315835E+04  0.00000000000E+00 0. -1.
        -11    1    3    3    0    0  0.70070082103E+02  0.44126048895E+02 -0.12427679155E+03  0.14933735472E+03  0.00000000000E+00 0.  1.
         22    1    1    2    0    0 -0.87822511159E+03 -0.40391044598E+03 -0.10795675501E+03  0.97266523324E+03  0.00000000000E+00 0.  1.
<mgrwt>
<rscale>  0 0.20952717E+04</rscale>
<asrwt>0</asrwt>
<pdfrwt beam="1">  1        2 0.26917512E+00 0.20952717E+04</pdfrwt>
<pdfrwt beam="2">  1       -2 0.96507054E-01 0.20952717E+04</pdfrwt>
<totfact> 0.76210364E+00</totfact>
</mgrwt>
</event>
<event>
 6    1  0.2236204E-005  0.1828506E+04  0.7818608E-02  0.8691285E-01
         -2   -1    0    0    0  501 -0.00000000000E+00  0.00000000000E+00  0.48586772642E+03  0.48586772642E+03  0.00000000000E+00 0.  1.
          2   -1    0    0  501    0  0.00000000000E+00 -0.00000000000E+00 -0.17203426103E+04  0.17203426103E+04  0.00000000000E+00 0. -1.
         23    2    1    2    0    0 -0.27644985354E+02 -0.73389675101E+03  0.32989464536E+02  0.74134359846E+03  0.95568508696E+02 0.  0.
         13    1    3    3    0    0  0.23305744139E+02 -0.41208458337E+03 -0.89150119770E+01  0.41283936223E+03  0.00000000000E+00 0. -1.
        -13    1    3    3    0    0 -0.50950729493E+02 -0.32181216763E+03  0.41904476513E+02  0.32850423624E+03  0.00000000000E+00 0.  1.
         22    1    1    2    0    0  0.27644985354E+02  0.73389675101E+03 -0.12674643484E+04  0.14648667383E+04  0.00000000000E+00 0. -1.
<mgrwt>
<rscale>  0 0.18285064E+04</rscale>
<asrwt>0</asrwt>
<pdfrwt beam="1">  1        2 0.26466809E+00 0.18285064E+04</pdfrwt>
<pdfrwt beam="2">  1       -2 0.74748881E-01 0.18285064E+04</pdfrwt>
<totfact> 0.14476685E+01</totfact>
</mgrwt>
</event>
<event>
 6    1  0.2236204E-005  0.1875741E+04  0.7818608E-02  0.8667027E-01
         -2   -1    0    0    0  501 -0.00000000000E+00  0.00000000000E+00  0.35552322915E+03  0.35552322915E+03  0.00000000000E+00 0.  1.
          2   -1    0    0  501    0  0.00000000000E+00 -0.00000000000E+00 -0.24741037307E+04  0.24741037307E+04  0.00000000000E+00 0. -1.
         23    2    1    2    0    0 -0.16729891435E+01  0.87269774645E+03 -0.15708463827E+04  0.17992790475E+04  0.90788639947E+02 0.  0.
         13    1    3    3    0    0  0.31792777206E+02  0.47638470512E+03 -0.79260935007E+03  0.92530143725E+03  0.00000000000E+00 0.  1.
        -13    1    3    3    0    0 -0.33465766350E+02  0.39631304132E+03 -0.77823703268E+03  0.87397761028E+03  0.00000000000E+00 0. -1.
         22    1    1    2    0    0  0.16729891435E+01 -0.87269774645E+03 -0.54773411883E+03  0.10303479123E+04  0.00000000000E+00 0. -1.
<mgrwt>
<rscale>  0 0.18757413E+04</rscale>
<asrwt>0</asrwt>
<pdfrwt beam="1">  1        2 0.38063133E+00 0.18757413E+04</pdfrwt>
<pdfrwt beam="2">  1       -2 0.54695883E-01 0.18757413E+04</pdfrwt>
<totfact> 0.10643413E+01</totfact>
</mgrwt>
</event>
<event>
 6    1  0.2236204E-005  0.2470730E+04  0.7818608E-02  0.8413488E-01
         -2   -1    0    0    0  501 -0.00000000000E+00  0.00000000000E+00  0.48305318304E+03  0.48305318304E+03  0.00000000000E+00 0.  1.
          2   -1    0    0  501    0  0.00000000000E+00 -0.00000000000E+00 -0.31593352362E+04  0.31593352362E+04  0.00000000000E+00 0. -1.
         23    2    1    2    0    0  0.12051780286E+04  0.95108559764E+01 -0.95264290315E+03  0.15391821867E+04  0.94914519764E+02 0.  0.
         13    1    3    3    0    0  0.57916180928E+03 -0.67963616292E+01 -0.51646179780E+03  0.77602021910E+03  0.00000000000E+00 0. -1.
        -13    1    3    3    0    0  0.62601621931E+03  0.16307217606E+02 -0.43618110535E+03  0.76316196764E+03  0.00000000000E+00 0.  1.
         22    1    1    2    0    0 -0.12051780286E+04 -0.95108559764E+01 -0.17236391500E+04  0.21032062325E+04  0.00000000000E+00 0.  1.
<mgrwt>
<rscale>  0 0.24707302E+04</rscale>
<asrwt>0</asrwt>
<pdfrwt beam="1">  1        2 0.48605155E+00 0.24707302E+04</pdfrwt>
<pdfrwt beam="2">  1       -2 0.74315878E-01 0.24707302E+04</pdfrwt>
<totfact> 0.20089509E+00</totfact>
</mgrwt>
</event>
<event>
 6    1  0.2236204E-005  0.1467398E+04  0.7818608E-02  0.8906427E-01
          2   -1    0    0  501    0  0.00000000000E+00  0.00000000000E+00  0.25931853525E+04  0.25931853525E+04  0.00000000000E+00 0. -1.
         -2   -1    0    0    0  501 -0.00000000000E+00 -0.00000000000E+00 -0.20758802374E+03  0.20758802374E+03  0.00000000000E+00 0.  1.
         23    2    1    2    0    0  0.60316043950E+03 -0.71238852633E+02  0.42168646565E+03  0.74509262084E+03  0.92011131953E+02 0.  0.
         11    1    3    3    0    0  0.41182685820E+03 -0.85628992520E+01  0.26274645001E+03  0.48857996415E+03  0.00000000000E+00 0. -1.
        -11    1    3    3    0    0  0.19133358131E+03 -0.62675953381E+02  0.15894001564E+03  0.25651265668E+03  0.00000000000E+00 0.  1.
         22    1    1    2    0    0 -0.60316043950E+03  0.71238852633E+02  0.19639108631E+04  0.20556807554E+04  0.00000000000E+00 0. -1.
<mgrwt>
<rscale>  0 0.14673980E+04</rscale>
<asrwt>0</asrwt>
<pdfrwt beam="1">  1        2 0.39895157E+00 0.14673980E+04</pdfrwt>
<pdfrwt beam="2">  1       -2 0.31936621E-01 0.14673980E+04</pdfrwt>
<totfact> 0.27227409E+01</totfact>
</mgrwt>
</event>
<event>
 6    1  0.2236204E-005  0.4098933E+04  0.7818608E-02  0.7984881E-01
         -1   -1    0    0    0  501 -0.00000000000E+00  0.00000000000E+00  0.15236778535E+04  0.15236778535E+04  0.00000000000E+00 0.  1.
          1   -1    0    0  501    0  0.00000000000E+00 -0.00000000000E+00 -0.27566937436E+04  0.27566937436E+04  0.00000000000E+00 0. -1.
         23    2    1    2    0    0  0.23118935772E+03  0.20078873145E+04 -0.26904557386E+03  0.20411086028E+04  0.93160189806E+02 0.  0.
         11    1    3    3    0    0  0.11644482919E+02  0.29695024943E+03 -0.64078714682E+02  0.30400843129E+03  0.00000000000E+00 0. -1.
        -11    1    3    3    0    0  0.21954487480E+03  0.17109370651E+04 -0.20496685918E+03  0.17371001715E+04  0.00000000000E+00 0.  1.
         22    1    1    2    0    0 -0.23118935772E+03 -0.20078873145E+04 -0.96397031628E+03  0.22392629943E+04  0.00000000000E+00 0. -1.
<mgrwt>
<rscale>  0 0.40989331E+04</rscale>
<asrwt>0</asrwt>
<pdfrwt beam="1">  1        1 0.42410673E+00 0.40989331E+04</pdfrwt>
<pdfrwt beam="2">  1       -1 0.23441198E+00 0.40989331E+04</pdfrwt>
<totfact> 0.61290347E-02</totfact>
</mgrwt>
</event>
<event>
 6    1  0.2236204E-005  0.1594664E+04  0.7818608E-02  0.8823833E-01
         -2   -1    0    0    0  501 -0.00000000000E+00  0.00000000000E+00  0.36087888342E+03  0.36087888342E+03  0.00000000000E+00 0.  1.
          2   -1    0    0  501    0  0.00000000000E+00 -0.00000000000E+00 -0.17616398282E+04  0.17616398282E+04  0.00000000000E+00 0. -1.
         23    2    1    2    0    0 -0.63127393420E+03  0.11504684633E+03 -0.78874982850E+02  0.65312255905E+03  0.92764526495E+02 0.  0.
         11    1    3    3    0    0 -0.30439082522E+03  0.92959597557E+01 -0.28081673142E+02  0.30582473692E+03  0.00000000000E+00 0. -1.
        -11    1    3    3    0    0 -0.32688310897E+03  0.10575088658E+03 -0.50793309708E+02  0.34729782213E+03  0.00000000000E+00 0.  1.
         22    1    1    2    0    0  0.63127393420E+03 -0.11504684633E+03 -0.13218859619E+04  0.14693961525E+04  0.00000000000E+00 0. -1.
<mgrwt>
<rscale>  0 0.15946644E+04</rscale>
<asrwt>0</asrwt>
<pdfrwt beam="1">  1        2 0.27102152E+00 0.15946644E+04</pdfrwt>
<pdfrwt beam="2">  1       -2 0.55519827E-01 0.15946644E+04</pdfrwt>
<totfact> 0.26502471E+01</totfact>
</mgrwt>
</event>
<event>
 6    1  0.2236204E-005  0.1384828E+04  0.7818608E-02  0.8964874E-01
         -2   -1    0    0    0  501 -0.00000000000E+00  0.00000000000E+00  0.44617067677E+03  0.44617067677E+03  0.00000000000E+00 0.  1.
          2   -1    0    0  501    0  0.00000000000E+00 -0.00000000000E+00 -0.10745604204E+04  0.10745604204E+04  0.00000000000E+00 0. -1.
         23    2    1    2    0    0  0.34505019082E+03  0.88210212821E+02 -0.96367836519E+03  0.10315898746E+04  0.93064505014E+02 0.  0.
         11    1    3    3    0    0  0.25043072868E+03  0.10252401252E+03 -0.75455756817E+03  0.80161327752E+03  0.00000000000E+00 0. -1.
        -11    1    3    3    0    0  0.94619462143E+02 -0.14313799698E+02 -0.20912079702E+03  0.22997659712E+03  0.00000000000E+00 0.  1.
         22    1    1    2    0    0 -0.34505019082E+03 -0.88210212821E+02  0.33528862156E+03  0.48914122253E+03  0.00000000000E+00 0.  1.
<mgrwt>
<rscale>  0 0.13848283E+04</rscale>
<asrwt>0</asrwt>
<pdfrwt beam="1">  1        2 0.16531699E+00 0.13848283E+04</pdfrwt>
<pdfrwt beam="2">  1       -2 0.68641643E-01 0.13848283E+04</pdfrwt>
<totfact> 0.42717087E+01</totfact>
</mgrwt>
</event>
<event>
 6    1  0.3134467E-005  0.4351638E+04  0.7818608E-02  0.7937138E-01
         -2   -1    0    0    0  501 -0.00000000000E+00  0.00000000000E+00  0.18579059921E+04  0.18579059921E+04  0.00000000000E+00 0.  1.
          2   -1    0    0  501    0  0.00000000000E+00 -0.00000000000E+00 -0.25481307590E+04  0.25481307590E+04  0.00000000000E+00 0. -1.
         23    2    1    2    0    0 -0.53258494348E+03 -0.19890356035E+04 -0.10540795201E+04  0.23150322950E+04  0.91550743320E+02 0.  0.
         13    1    3    3    0    0 -0.13801465471E+03 -0.66041682829E+03 -0.32166079472E+03  0.74743835790E+03  0.00000000000E+00 0.  1.
        -13    1    3    3    0    0 -0.39457028877E+03 -0.13286187752E+04 -0.73241872534E+03  0.15675939371E+04  0.00000000000E+00 0. -1.
         22    1    1    2    0    0  0.53258494348E+03  0.19890356035E+04  0.36385475316E+03  0.20910044561E+04  0.00000000000E+00 0. -1.
<mgrwt>
<rscale>  0 0.43516376E+04</rscale>
<asrwt>0</asrwt>
<pdfrwt beam="1">  1        2 0.39202012E+00 0.43516376E+04</pdfrwt>
<pdfrwt beam="2">  1       -2 0.28583169E+00 0.43516376E+04</pdfrwt>
<totfact> 0.97102605E-02</totfact>
</mgrwt>
</event>
<event>
 6    1  0.2236204E-005  0.1848455E+04  0.7818608E-02  0.8680948E-01
         -2   -1    0    0    0  501 -0.00000000000E+00  0.00000000000E+00  0.63827413329E+03  0.63827413329E+03  0.00000000000E+00 0.  1.
          2   -1    0    0  501    0  0.00000000000E+00 -0.00000000000E+00 -0.13382904707E+04  0.13382904707E+04  0.00000000000E+00 0. -1.
         23    2    1    2    0    0  0.70348694513E+03 -0.74538513934E+02  0.28138150774E+03  0.76677470384E+03  0.91203188116E+02 0.  0.
         11    1    3    3    0    0  0.38992362009E+03 -0.11048657212E+02  0.19097323786E+03  0.43431932942E+03  0.00000000000E+00 0.  1.
        -11    1    3    3    0    0  0.31356332504E+03 -0.63489856721E+02  0.90408269878E+02  0.33245537442E+03  0.00000000000E+00 0. -1.
         22    1    1    2    0    0 -0.70348694513E+03  0.74538513934E+02 -0.98139784512E+03  0.12097899001E+04  0.00000000000E+00 0. -1.
<mgrwt>
<rscale>  0 0.18484547E+04</rscale>
<asrwt>0</asrwt>
<pdfrwt beam="1">  1        2 0.20589084E+00 0.18484547E+04</pdfrwt>
<pdfrwt beam="2">  1       -2 0.98196021E-01 0.18484547E+04</pdfrwt>
<totfact> 0.12737870E+01</totfact>
</mgrwt>
</event>
<event>
 6    1  0.2236204E-005  0.1401099E+04  0.7818608E-02  0.8953023E-01
          2   -1    0    0  501    0  0.00000000000E+00  0.00000000000E+00  0.85215957308E+03  0.85215957308E+03  0.00000000000E+00 0. -1.
         -2   -1    0    0    0  501 -0.00000000000E+00 -0.00000000000E+00 -0.57591289103E+03  0.57591289103E+03  0.00000000000E+00 0.  1.
         23    2    1    2    0    0 -0.45984299586E+03 -0.47044976857E+03  0.37502954153E+03  0.76283820544E+03  0.92175946317E+02 0.  0.
         13    1    3    3    0    0 -0.36908374569E+03 -0.37697224588E+03  0.25616053897E+03  0.58647174461E+03  0.00000000000E+00 0.  1.
        -13    1    3    3    0    0 -0.90759250169E+02 -0.93477522686E+02  0.11886900256E+03  0.17636646084E+03  0.00000000000E+00 0. -1.
         22    1    1    2    0    0  0.45984299586E+03  0.47044976857E+03 -0.98782859479E+02  0.66523425867E+03  0.00000000000E+00 0.  1.
<mgrwt>
<rscale>  0 0.14010991E+04</rscale>
<asrwt>0</asrwt>
<pdfrwt beam="1">  1        2 0.13110147E+00 0.14010991E+04</pdfrwt>
<pdfrwt beam="2">  1       -2 0.88601983E-01 0.14010991E+04</pdfrwt>
<totfact> 0.33737108E+01</totfact>
</mgrwt>
</event>
<event>
 6    1  0.2236204E-005  0.1702127E+04  0.7818608E-02  0.8760152E-01
         -1   -1    0    0    0  501 -0.00000000000E+00  0.00000000000E+00  0.60804539838E+03  0.60804539838E+03  0.00000000000E+00 0.  1.
          1   -1    0    0  501    0  0.00000000000E+00 -0.00000000000E+00 -0.11912083577E+04  0.11912083577E+04  0.00000000000E+00 0. -1.
         23    2    1    2    0    0 -0.68461824866E+03 -0.11878782932E+03  0.22272894924E+03  0.73516989517E+03  0.89743496383E+02 0.  0.
         13    1    3    3    0    0 -0.58912104049E+03 -0.72855666228E+02  0.20314003531E+03  0.62740530950E+03  0.00000000000E+00 0. -1.
        -13    1    3    3    0    0 -0.95497208169E+02 -0.45932163091E+02  0.19588913924E+02  0.10776458566E+03  0.00000000000E+00 0.  1.
         22    1    1    2    0    0  0.68461824866E+03  0.11878782932E+03 -0.80589190860E+03  0.10640838610E+04  0.00000000000E+00 0. -1.
<mgrwt>
<rscale>  0 0.17021266E+04</rscale>
<asrwt>0</asrwt>
<pdfrwt beam="1">  1        1 0.18326282E+00 0.17021266E+04</pdfrwt>
<pdfrwt beam="2">  1       -1 0.93545446E-01 0.17021266E+04</pdfrwt>
<totfact> 0.11439460E+01</totfact>
</mgrwt>
</event>
<event>
 6    1  0.2236204E-005  0.4971054E+04  0.7818608E-02  0.7832988E-01
          2   -1    0    0  501    0  0.00000000000E+00  0.00000000000E+00  0.36550770077E+04  0.36550770077E+04  0.00000000000E+00 0. -1.
         -2   -1    0    0    0  501 -0.00000000000E+00 -0.00000000000E+00 -0.16902088257E+04  0.16902088257E+04  0.00000000000E+00 0.  1.
         23    2    1    2    0    0  0.93855400305E+03 -0.21015023057E+04 -0.23954823721E+02  0.23034751053E+04  0.90709258383E+02 0.  0.
         13    1    3    3    0    0  0.76296910195E+03 -0.16866247424E+04 -0.54154448035E+02  0.18519604684E+04  0.00000000000E+00 0.  1.
        -13    1    3    3    0    0  0.17558490110E+03 -0.41487756326E+03  0.30199624314E+02  0.45151463686E+03  0.00000000000E+00 0. -1.
         22    1    1    2    0    0 -0.93855400305E+03  0.21015023057E+04  0.19888230058E+04  0.30418107281E+04  0.00000000000E+00 0. -1.
<mgrwt>
<rscale>  0 0.49710536E+04</rscale>
<asrwt>0</asrwt>
<pdfrwt beam="1">  1        2 0.56231954E+00 0.49710536E+04</pdfrwt>
<pdfrwt beam="2">  1       -2 0.26003213E+00 0.49710536E+04</pdfrwt>
<totfact> 0.25559926E-02</totfact>
</mgrwt>
</event>
<event>
 6    1  0.2236204E-005  0.1468238E+04  0.7818608E-02  0.8905853E-01
         -2   -1    0    0    0  501 -0.00000000000E+00  0.00000000000E+00  0.57588573782E+03  0.57588573782E+03  0.00000000000E+00 0.  1.
          2   -1    0    0  501    0  0.00000000000E+00 -0.00000000000E+00 -0.93582922274E+03  0.93582922274E+03  0.00000000000E+00 0. -1.
         23    2    1    2    0    0 -0.31035696508E+03 -0.11993303968E+03 -0.85109871434E+03  0.91847062712E+03  0.92270751364E+02 0.  0.
         13    1    3    3    0    0 -0.15778510832E+03 -0.18783113402E+02 -0.45949908992E+03  0.48619786033E+03  0.00000000000E+00 0.  1.
        -13    1    3    3    0    0 -0.15257185676E+03 -0.10114992628E+03 -0.39159962442E+03  0.43227276679E+03  0.00000000000E+00 0. -1.
         22    1    1    2    0    0  0.31035696508E+03  0.11993303968E+03  0.49115522941E+03  0.59324433344E+03  0.00000000000E+00 0.  1.
<mgrwt>
<rscale>  0 0.14682380E+04</rscale>
<asrwt>0</asrwt>
<pdfrwt beam="1">  1        2 0.14397372E+00 0.14682380E+04</pdfrwt>
<pdfrwt beam="2">  1       -2 0.88597807E-01 0.14682380E+04</pdfrwt>
<totfact> 0.29449256E+01</totfact>
</mgrwt>
</event>
<event>
 6    1  0.2236204E-005  0.2267123E+04  0.7818608E-02  0.8490998E-01
         -2   -1    0    0    0  501 -0.00000000000E+00  0.00000000000E+00  0.86716748440E+03  0.86716748440E+03  0.00000000000E+00 0.  1.
          2   -1    0    0  501    0  0.00000000000E+00 -0.00000000000E+00 -0.14817920010E+04  0.14817920010E+04  0.00000000000E+00 0. -1.
         23    2    1    2    0    0 -0.17437415483E+02  0.10508308587E+04 -0.74199567575E+03  0.12902938304E+04  0.98747298113E+02 0.  0.
         13    1    3    3    0    0 -0.32934702204E+02  0.54555869264E+03 -0.43814509670E+03  0.70049276048E+03  0.00000000000E+00 0. -1.
        -13    1    3    3    0    0  0.15497286721E+02  0.50527216604E+03 -0.30385057905E+03  0.58980106990E+03  0.00000000000E+00 0.  1.
         22    1    1    2    0    0  0.17437415483E+02 -0.10508308587E+04  0.12737115913E+03  0.10586656551E+04  0.00000000000E+00 0.  1.
<mgrwt>
<rscale>  0 0.22671231E+04</rscale>
<asrwt>0</asrwt>
<pdfrwt beam="1">  1        2 0.22796800E+00 0.22671231E+04</pdfrwt>
<pdfrwt beam="2">  1       -2 0.13341038E+00 0.22671231E+04</pdfrwt>
<totfact> 0.48057314E+00</totfact>
</mgrwt>
</event>
<event>
 6    1  0.2236204E-005  0.2855175E+04  0.7818608E-02  0.8286341E-01
          2   -1    0    0  501    0  0.00000000000E+00  0.00000000000E+00  0.20783798135E+04  0.20783798135E+04  0.00000000000E+00 0. -1.
         -2   -1    0    0    0  501 -0.00000000000E+00 -0.00000000000E+00 -0.98057442807E+03  0.98057442807E+03  0.00000000000E+00 0.  1.
         23    2    1    2    0    0  0.14110244194E+04 -0.15498376145E+03  0.40271333496E+03  0.14783964802E+04  0.92023062949E+02 0.  0.
         13    1    3    3    0    0  0.48153962564E+03 -0.91370577676E+02  0.16092122316E+03  0.51587269126E+03  0.00000000000E+00 0. -1.
        -13    1    3    3    0    0  0.92948479375E+03 -0.63613183769E+02  0.24179211180E+03  0.96252378895E+03  0.00000000000E+00 0.  1.
         22    1    1    2    0    0 -0.14110244194E+04  0.15498376145E+03  0.69509205049E+03  0.15805577614E+04  0.00000000000E+00 0.  1.
<mgrwt>
<rscale>  0 0.28551750E+04</rscale>
<asrwt>0</asrwt>
<pdfrwt beam="1">  1        2 0.31975074E+00 0.28551750E+04</pdfrwt>
<pdfrwt beam="2">  1       -2 0.15085760E+00 0.28551750E+04</pdfrwt>
<totfact> 0.15445380E+00</totfact>
</mgrwt>
</event>
<event>
 6    1  0.2236204E-005  0.1194767E+04  0.7818608E-02  0.9117449E-01
          2   -1    0    0  501    0  0.00000000000E+00  0.00000000000E+00  0.53142444683E+03  0.53142444683E+03  0.00000000000E+00 0. -1.
         -2   -1    0    0    0  501 -0.00000000000E+00 -0.00000000000E+00 -0.67152978281E+03  0.67152978281E+03  0.00000000000E+00 0.  1.
         23    2    1    2    0    0 -0.40918019628E+03 -0.14698645881E+02 -0.50377791460E+03  0.65532093294E+03  0.89492204648E+02 0.  0.
         13    1    3    3    0    0 -0.27040360990E+03 -0.30891463915E+01 -0.26330877044E+03  0.37743762884E+03  0.00000000000E+00 0. -1.
        -13    1    3    3    0    0 -0.13877658638E+03 -0.11609499490E+02 -0.24046914416E+03  0.27788330410E+03  0.00000000000E+00 0.  1.
         22    1    1    2    0    0  0.40918019628E+03  0.14698645881E+02  0.36367257862E+03  0.54763329670E+03  0.00000000000E+00 0. -1.
<mgrwt>
<rscale>  0 0.11947675E+04</rscale>
<asrwt>0</asrwt>
<pdfrwt beam="1">  1        2 0.81757608E-01 0.11947675E+04</pdfrwt>
<pdfrwt beam="2">  1       -2 0.10331227E+00 0.11947675E+04</pdfrwt>
<totfact> 0.43257216E+01</totfact>
</mgrwt>
</event>
<event>
 6    1  0.2236204E-005  0.2590458E+04  0.7818608E-02  0.8371450E-01
         -2   -1    0    0    0  501 -0.00000000000E+00  0.00000000000E+00  0.77005079622E+03  0.77005079622E+03  0.00000000000E+00 0.  1.
          2   -1    0    0  501    0  0.00000000000E+00 -0.00000000000E+00 -0.21785809001E+04  0.21785809001E+04  0.00000000000E+00 0. -1.
         23    2    1    2    0    0 -0.37663932912E+03 -0.11741151863E+04 -0.11504903614E+04  0.16888745120E+04  0.90914193565E+02 0.  0.
         11    1    3    3    0    0 -0.27822009491E+03 -0.82998915255E+03 -0.76119662563E+03  0.11600468600E+04  0.00000000000E+00 0. -1.
        -11    1    3    3    0    0 -0.98419234210E+02 -0.34412603372E+03 -0.38929373578E+03  0.52882765195E+03  0.00000000000E+00 0.  1.
         22    1    1    2    0    0  0.37663932912E+03  0.11741151863E+04 -0.25803974248E+03  0.12597571844E+04  0.00000000000E+00 0.  1.
<mgrwt>
<rscale>  0 0.25904578E+04</rscale>
<asrwt>0</asrwt>
<pdfrwt beam="1">  1        2 0.33516629E+00 0.25904578E+04</pdfrwt>
<pdfrwt beam="2">  1       -2 0.11846936E+00 0.25904578E+04</pdfrwt>
<totfact> 0.25763142E+00</totfact>
</mgrwt>
</event>
<event>
 6    1  0.2236204E-005  0.1044325E+04  0.7818608E-02  0.9261222E-01
         -2   -1    0    0    0  501 -0.00000000000E+00  0.00000000000E+00  0.13662319097E+03  0.13662319097E+03  0.00000000000E+00 0.  1.
          2   -1    0    0  501    0  0.00000000000E+00 -0.00000000000E+00 -0.19956632426E+04  0.19956632426E+04  0.00000000000E+00 0. -1.
         23    2    1    2    0    0  0.41677197909E+01  0.31058966791E+03 -0.17813210370E+04  0.18120934341E+04  0.11872095488E+03 0.  0.
         13    1    3    3    0    0  0.54185276329E+02  0.23857106692E+03 -0.12829909364E+04  0.13061079362E+04  0.00000000000E+00 0. -1.
        -13    1    3    3    0    0 -0.50017556538E+02  0.72018600991E+02 -0.49833010057E+03  0.50598549780E+03  0.00000000000E+00 0.  1.
         22    1    1    2    0    0 -0.41677197909E+01 -0.31058966791E+03 -0.77719014609E+02  0.32019299950E+03  0.00000000000E+00 0.  1.
<mgrwt>
<rscale>  0 0.10443254E+04</rscale>
<asrwt>0</asrwt>
<pdfrwt beam="1">  1        2 0.30702510E+00 0.10443254E+04</pdfrwt>
<pdfrwt beam="2">  1       -2 0.21018953E-01 0.10443254E+04</pdfrwt>
<totfact> 0.13139684E+02</totfact>
</mgrwt>
</event>
<event>
 6    1  0.2236204E-005  0.1683707E+04  0.7818608E-02  0.8770712E-01
         -2   -1    0    0    0  501 -0.00000000000E+00  0.00000000000E+00  0.25599800230E+04  0.25599800230E+04  0.00000000000E+00 0.  1.
          2   -1    0    0  501    0  0.00000000000E+00 -0.00000000000E+00 -0.27684483090E+03  0.27684483090E+03  0.00000000000E+00 0. -1.
         23    2    1    2    0    0  0.61950080811E+03 -0.49998407595E+03  0.15928379151E+04  0.17831286652E+04  0.93004760083E+02 0.  0.
         11    1    3    3    0    0  0.40308634770E+03 -0.34434050837E+03  0.96477193827E+03  0.11008332672E+04  0.00000000000E+00 0. -1.
        -11    1    3    3    0    0  0.21641446041E+03 -0.15564356759E+03  0.62806597688E+03  0.68229539799E+03  0.00000000000E+00 0.  1.
         22    1    1    2    0    0 -0.61950080811E+03  0.49998407595E+03  0.69029727697E+03  0.10536961887E+04  0.00000000000E+00 0. -1.
<mgrwt>
<rscale>  0 0.16837069E+04</rscale>
<asrwt>0</asrwt>
<pdfrwt beam="1">  1        2 0.42591514E-01 0.16837069E+04</pdfrwt>
<pdfrwt beam="2">  1       -2 0.39384306E+00 0.16837069E+04</pdfrwt>
<totfact> 0.93740408E-01</totfact>
</mgrwt>
</event>
<event>
 6    1  0.2236204E-005  0.1016395E+04  0.7818608E-02  0.9290744E-01
         -1   -1    0    0    0  501 -0.00000000000E+00  0.00000000000E+00  0.12261609675E+03  0.12261609675E+03  0.00000000000E+00 0.  1.
          1   -1    0    0  501    0  0.00000000000E+00 -0.00000000000E+00 -0.21062853219E+04  0.21062853219E+04  0.00000000000E+00 0. -1.
         23    2    1    2    0    0 -0.39136476830E+03 -0.30442497075E+03 -0.79269913139E+03  0.93884300566E+03  0.84931335173E+02 0.  0.
         11    1    3    3    0    0 -0.20810005830E+03 -0.12136445612E+03 -0.33007702455E+03  0.40863896977E+03  0.00000000000E+00 0.  1.
        -11    1    3    3    0    0 -0.18326471000E+03 -0.18306051463E+03 -0.46262210683E+03  0.53020403589E+03  0.00000000000E+00 0. -1.
         22    1    1    2    0    0  0.39136476830E+03  0.30442497075E+03 -0.11909700938E+04  0.12900584130E+04  0.00000000000E+00 0. -1.
<mgrwt>
<rscale>  0 0.10163946E+04</rscale>
<asrwt>0</asrwt>
<pdfrwt beam="1">  1        1 0.32404387E+00 0.10163946E+04</pdfrwt>
<pdfrwt beam="2">  1       -1 0.18864016E-01 0.10163946E+04</pdfrwt>
<totfact> 0.57341705E+01</totfact>
</mgrwt>
</event>
<event>
 6    1  0.2236204E-005  0.1569143E+04  0.7818608E-02  0.8839732E-01
         -2   -1    0    0    0  501 -0.00000000000E+00  0.00000000000E+00  0.23113503657E+03  0.23113503657E+03  0.00000000000E+00 0.  1.
          2   -1    0    0  501    0  0.00000000000E+00 -0.00000000000E+00 -0.26631736220E+04  0.26631736220E+04  0.00000000000E+00 0. -1.
         23    2    1    2    0    0 -0.57195076579E+02  0.83657764037E+02 -0.26503927769E+04  0.26535838131E+04  0.81579918814E+02 0.  0.
         13    1    3    3    0    0  0.35350088308E+01  0.66603278327E+02 -0.12689199383E+04  0.12706715952E+04  0.00000000000E+00 0.  1.
        -13    1    3    3    0    0 -0.60730085410E+02  0.17054485709E+02 -0.13814728386E+04  0.13829122179E+04  0.00000000000E+00 0. -1.
         22    1    1    2    0    0  0.57195076579E+02 -0.83657764037E+02  0.21835419149E+03  0.24072484543E+03  0.00000000000E+00 0.  1.
<mgrwt>
<rscale>  0 0.15691434E+04</rscale>
<asrwt>0</asrwt>
<pdfrwt beam="1">  1        2 0.40971904E+00 0.15691434E+04</pdfrwt>
<pdfrwt beam="2">  1       -2 0.35559235E-01 0.15691434E+04</pdfrwt>
<totfact> 0.20017298E+01</totfact>
</mgrwt>
</event>
<event>
 6    1  0.2236204E-005  0.1400048E+04  0.7818608E-02  0.8953783E-01
          2   -1    0    0  501    0  0.00000000000E+00  0.00000000000E+00  0.89498497775E+03  0.89498497775E+03  0.00000000000E+00 0. -1.
         -2   -1    0    0    0  501 -0.00000000000E+00 -0.00000000000E+00 -0.54753310604E+03  0.54753310604E+03  0.00000000000E+00 0.  1.
         23    2    1    2    0    0 -0.14593999481E+03  0.40653270760E+03 -0.38919461134E+03  0.58857700537E+03  0.91559386893E+02 0.  0.
         11    1    3    3    0    0 -0.57232185181E+02  0.91438772676E+02 -0.14229190198E+03  0.17855967500E+03  0.00000000000E+00 0. -1.
        -11    1    3    3    0    0 -0.88707809629E+02  0.31509393492E+03 -0.24690270936E+03  0.41001733037E+03  0.00000000000E+00 0.  1.
         22    1    1    2    0    0  0.14593999481E+03 -0.40653270760E+03  0.73664648304E+03  0.85394107842E+03  0.00000000000E+00 0. -1.
<mgrwt>
<rscale>  0 0.14000484E+04</rscale>
<asrwt>0</asrwt>
<pdfrwt beam="1">  1        2 0.13769000E+00 0.14000484E+04</pdfrwt>
<pdfrwt beam="2">  1       -2 0.84235863E-01 0.14000484E+04</pdfrwt>
<totfact> 0.35388592E+01</totfact>
</mgrwt>
</event>
<event>
 6    1  0.2236204E-005  0.2249641E+04  0.7818608E-02  0.8498046E-01
          2   -1    0    0  501    0  0.00000000000E+00  0.00000000000E+00  0.28331260354E+04  0.28331260354E+04  0.00000000000E+00 0.  1.
         -2   -1    0    0    0  501 -0.00000000000E+00 -0.00000000000E+00 -0.44658151579E+03  0.44658151579E+03  0.00000000000E+00 0. -1.
         23    2    1    2    0    0  0.55081379151E+03 -0.93209989428E+03  0.76085424082E+03  0.13264858719E+04  0.91975794719E+02 0.  0.
         13    1    3    3    0    0  0.28434255523E+03 -0.51339986276E+03  0.46428308740E+03  0.74832405617E+03  0.00000000000E+00 0.  1.
        -13    1    3    3    0    0  0.26647123627E+03 -0.41870003151E+03  0.29657115342E+03  0.57816181575E+03  0.00000000000E+00 0. -1.
         22    1    1    2    0    0 -0.55081379151E+03  0.93209989428E+03  0.16256902788E+04  0.19532216793E+04  0.00000000000E+00 0. -1.
<mgrwt>
<rscale>  0 0.22496415E+04</rscale>
<asrwt>0</asrwt>
<pdfrwt beam="1">  1        2 0.43586553E+00 0.22496415E+04</pdfrwt>
<pdfrwt beam="2">  1       -2 0.68704850E-01 0.22496415E+04</pdfrwt>
<totfact> 0.38936819E+00</totfact>
</mgrwt>
</event>
<event>
 6    1  0.2236204E-005  0.2724822E+04  0.7818608E-02  0.8326996E-01
          2   -1    0    0  501    0  0.00000000000E+00  0.00000000000E+00  0.12512605615E+04  0.12512605615E+04  0.00000000000E+00 0. -1.
         -2   -1    0    0    0  501 -0.00000000000E+00 -0.00000000000E+00 -0.14834349969E+04  0.14834349969E+04  0.00000000000E+00 0.  1.
         23    2    1    2    0    0  0.81417182753E+03 -0.50728173174E+03 -0.10850193671E+04  0.14511243692E+04  0.91018613147E+02 0.  0.
         11    1    3    3    0    0  0.23637391780E+03 -0.12388524792E+03 -0.24949808235E+03  0.36533474618E+03  0.00000000000E+00 0. -1.
        -11    1    3    3    0    0  0.57779790973E+03 -0.38339648382E+03 -0.83552128474E+03  0.10857896231E+04  0.00000000000E+00 0.  1.
         22    1    1    2    0    0 -0.81417182753E+03  0.50728173174E+03  0.85284493164E+03  0.12835711891E+04  0.00000000000E+00 0. -1.
<mgrwt>
<rscale>  0 0.27248220E+04</rscale>
<asrwt>0</asrwt>
<pdfrwt beam="1">  1        2 0.19250163E+00 0.27248220E+04</pdfrwt>
<pdfrwt beam="2">  1       -2 0.22822077E+00 0.27248220E+04</pdfrwt>
<totfact> 0.13561405E+00</totfact>
</mgrwt>
</event>
<event>
 6    1  0.2236204E-005  0.1211025E+04  0.7818608E-02  0.9103260E-01
         -2   -1    0    0    0  501 -0.00000000000E+00  0.00000000000E+00  0.25571719884E+03  0.25571719884E+03  0.00000000000E+00 0.  1.
          2   -1    0    0  501    0  0.00000000000E+00 -0.00000000000E+00 -0.14337932877E+04  0.14337932877E+04  0.00000000000E+00 0. -1.
         23    2    1    2    0    0 -0.36330842349E+03  0.36672398544E+03 -0.15996329338E+03  0.54800570934E+03  0.90788271059E+02 0.  0.
         13    1    3    3    0    0 -0.74457949772E+02  0.81095989485E+02 -0.74379715523E+02  0.13286417078E+03  0.00000000000E+00 0. -1.
        -13    1    3    3    0    0 -0.28885047372E+03  0.28562799595E+03 -0.85583577860E+02  0.41514153856E+03  0.00000000000E+00 0.  1.
         22    1    1    2    0    0  0.36330842349E+03 -0.36672398544E+03 -0.10181127954E+04  0.11415047772E+04  0.00000000000E+00 0. -1.
<mgrwt>
<rscale>  0 0.12110254E+04</rscale>
<asrwt>0</asrwt>
<pdfrwt beam="1">  1        2 0.22058358E+00 0.12110254E+04</pdfrwt>
<pdfrwt beam="2">  1       -2 0.39341108E-01 0.12110254E+04</pdfrwt>
<totfact> 0.83336678E+01</totfact>
</mgrwt>
</event>
<event>
 6    1  0.2236204E-005  0.1971188E+04  0.7818608E-02  0.8620211E-01
          2   -1    0    0  501    0  0.00000000000E+00  0.00000000000E+00  0.24719452234E+04  0.24719452234E+04  0.00000000000E+00 0. -1.
         -2   -1    0    0    0  501 -0.00000000000E+00 -0.00000000000E+00 -0.39296811271E+03  0.39296811271E+03  0.00000000000E+00 0.  1.
         23    2    1    2    0    0  0.35303564899E+03 -0.86055237222E+03  0.15057187198E+04  0.17722973297E+04  0.93082795178E+02 0.  0.
         11    1    3    3    0    0  0.20777994711E+03 -0.50474126455E+03  0.96919617236E+03  0.11123297493E+04  0.00000000000E+00 0. -1.
        -11    1    3    3    0    0  0.14525570188E+03 -0.35581110767E+03  0.53652254747E+03  0.65996758043E+03  0.00000000000E+00 0.  1.
         22    1    1    2    0    0 -0.35303564899E+03  0.86055237222E+03  0.57325839084E+03  0.10926160064E+04  0.00000000000E+00 0. -1.
<mgrwt>
<rscale>  0 0.19711881E+04</rscale>
<asrwt>0</asrwt>
<pdfrwt beam="1">  1        2 0.38029925E+00 0.19711881E+04</pdfrwt>
<pdfrwt beam="2">  1       -2 0.60456634E-01 0.19711881E+04</pdfrwt>
<totfact> 0.85817463E+00</totfact>
</mgrwt>
</event>
<event>
 6    1  0.2236204E-005  0.2648854E+04  0.7818608E-02  0.8351794E-01
         -1   -1    0    0    0  501 -0.00000000000E+00  0.00000000000E+00  0.48653759442E+03  0.48653759442E+03  0.00000000000E+00 0.  1.
          1   -1    0    0  501    0  0.00000000000E+00 -0.00000000000E+00 -0.36052843083E+04  0.36052843083E+04  0.00000000000E+00 0. -1.
         23    2    1    2    0    0  0.22359708131E+02  0.71568375409E+03 -0.32793684849E+04  0.33579945758E+04  0.95742983103E+02 0.  0.
         11    1    3    3    0    0 -0.33530034244E+02  0.40272950177E+03 -0.17814215908E+04  0.18266850300E+04  0.00000000000E+00 0. -1.
        -11    1    3    3    0    0  0.55889742374E+02  0.31295425232E+03 -0.14979468941E+04  0.15313095458E+04  0.00000000000E+00 0.  1.
         22    1    1    2    0    0 -0.22359708131E+02 -0.71568375409E+03  0.16062177103E+03  0.73382732693E+03  0.00000000000E+00 0.  1.
<mgrwt>
<rscale>  0 0.26488536E+04</rscale>
<asrwt>0</asrwt>
<pdfrwt beam="1">  1        1 0.55465913E+00 0.26488536E+04</pdfrwt>
<pdfrwt beam="2">  1       -1 0.74851937E-01 0.26488536E+04</pdfrwt>
<totfact> 0.32447053E-01</totfact>
</mgrwt>
</event>
<event>
 6    1  0.2236204E-005  0.1635942E+04  0.7818608E-02  0.8798767E-01
          2   -1    0    0  501    0  0.00000000000E+00  0.00000000000E+00  0.30093242788E+04  0.30093242788E+04  0.00000000000E+00 0. -1.
         -2   -1    0    0    0  501 -0.00000000000E+00 -0.00000000000E+00 -0.22233442381E+03  0.22233442381E+03  0.00000000000E+00 0.  1.
         23    2    1    2    0    0 -0.30732673834E+03 -0.41443375971E+03  0.26452137889E+04  0.26965834572E+04  0.90560961390E+02 0.  0.
         11    1    3    3    0    0 -0.13275988022E+03 -0.11526213424E+03  0.99432162297E+03  0.10097455300E+04  0.00000000000E+00 0. -1.
        -11    1    3    3    0    0 -0.17456685813E+03 -0.29917162547E+03  0.16508921659E+04  0.16868379273E+04  0.00000000000E+00 0.  1.
         22    1    1    2    0    0  0.30732673834E+03  0.41443375971E+03  0.14177606611E+03  0.53507524537E+03  0.00000000000E+00 0.  1.
<mgrwt>
<rscale>  0 0.16359418E+04</rscale>
<asrwt>0</asrwt>
<pdfrwt beam="1">  1        2 0.46297294E+00 0.16359418E+04</pdfrwt>
<pdfrwt beam="2">  1       -2 0.34205298E-01 0.16359418E+04</pdfrwt>
<totfact> 0.13224125E+01</totfact>
</mgrwt>
</event>
<event>
 6    1  0.2236204E-005  0.2606047E+04  0.7818608E-02  0.8366150E-01
          2   -1    0    0  501    0  0.00000000000E+00  0.00000000000E+00  0.11541632220E+04  0.11541632220E+04  0.00000000000E+00 0. -1.
         -2   -1    0    0    0  501 -0.00000000000E+00 -0.00000000000E+00 -0.14710831593E+04  0.14710831593E+04  0.00000000000E+00 0.  1.
         23    2    1    2    0    0 -0.51904923979E+03  0.48505803215E+02 -0.13599204278E+04  0.14592211031E+04  0.90430810311E+02 0.  0.
         13    1    3    3    0    0 -0.34426652555E+03 -0.31985224107E+01 -0.81912626545E+03  0.88853672401E+03  0.00000000000E+00 0. -1.
        -13    1    3    3    0    0 -0.17478271424E+03  0.51704325626E+02 -0.54079416234E+03  0.57068437906E+03  0.00000000000E+00 0.  1.
         22    1    1    2    0    0  0.51904923979E+03 -0.48505803215E+02  0.10430004905E+04  0.11660252782E+04  0.00000000000E+00 0. -1.
<mgrwt>
<rscale>  0 0.26060469E+04</rscale>
<asrwt>0</asrwt>
<pdfrwt beam="1">  1        2 0.17756357E+00 0.26060469E+04</pdfrwt>
<pdfrwt beam="2">  1       -2 0.22632048E+00 0.26060469E+04</pdfrwt>
<totfact> 0.16089323E+00</totfact>
</mgrwt>
</event>
<event>
 6    1  0.2236204E-005  0.1491315E+04  0.7818608E-02  0.8890249E-01
         -3   -1    0    0    0  501 -0.00000000000E+00  0.00000000000E+00  0.45538840100E+03  0.45538840100E+03  0.00000000000E+00 0.  1.
          3   -1    0    0  501    0  0.00000000000E+00 -0.00000000000E+00 -0.12209469239E+04  0.12209469239E+04  0.00000000000E+00 0. -1.
         23    2    1    2    0    0  0.14413115747E+02  0.20206835510E+03 -0.11876001986E+04  0.12081916139E+04  0.91068029485E+02 0.  0.
         13    1    3    3    0    0  0.44319138814E+02  0.52354618631E+02 -0.41857320927E+03  0.42415648490E+03  0.00000000000E+00 0.  1.
        -13    1    3    3    0    0 -0.29906023067E+02  0.14971373647E+03 -0.76902698937E+03  0.78403512899E+03  0.00000000000E+00 0. -1.
         22    1    1    2    0    0 -0.14413115747E+02 -0.20206835510E+03  0.42204167578E+03  0.46814371098E+03  0.00000000000E+00 0.  1.
<mgrwt>
<rscale>  0 0.14913149E+04</rscale>
<asrwt>0</asrwt>
<pdfrwt beam="1">  1        3 0.18783799E+00 0.14913149E+04</pdfrwt>
<pdfrwt beam="2">  1       -3 0.70059754E-01 0.14913149E+04</pdfrwt>
<totfact> 0.86970317E-01</totfact>
</mgrwt>
</event>
<event>
 6    1  0.2236204E-005  0.1776098E+04  0.7818608E-02  0.8719115E-01
         -2   -1    0    0    0  501 -0.00000000000E+00  0.00000000000E+00  0.65667353168E+03  0.65667353168E+03  0.00000000000E+00 0. -1.
          2   -1    0    0  501    0  0.00000000000E+00 -0.00000000000E+00 -0.12009482517E+04  0.12009482517E+04  0.00000000000E+00 0.  1.
         23    2    1    2    0    0  0.34533140073E+03 -0.31388138877E+03  0.51452829667E+03  0.70053962092E+03  0.90780448657E+02 0.  0.
         11    1    3    3    0    0  0.29469917077E+03 -0.26966861582E+03  0.38595278393E+03  0.55545325189E+03  0.00000000000E+00 0.  1.
        -11    1    3    3    0    0  0.50632229961E+02 -0.44212772952E+02  0.12857551274E+03  0.14508636903E+03  0.00000000000E+00 0. -1.
         22    1    1    2    0    0 -0.34533140073E+03  0.31388138877E+03 -0.10588030167E+04  0.11570821625E+04  0.00000000000E+00 0.  1.
<mgrwt>
<rscale>  0 0.17760979E+04</rscale>
<asrwt>0</asrwt>
<pdfrwt beam="1">  1        2 0.18476127E+00 0.17760979E+04</pdfrwt>
<pdfrwt beam="2">  1       -2 0.10102670E+00 0.17760979E+04</pdfrwt>
<totfact> 0.14426659E+01</totfact>
</mgrwt>
</event>
<event>
 6    1  0.2236204E-005  0.3480337E+04  0.7818608E-02  0.8118466E-01
          2   -1    0    0  501    0  0.00000000000E+00  0.00000000000E+00  0.25672256291E+04  0.25672256291E+04  0.00000000000E+00 0. -1.
         -2   -1    0    0    0  501 -0.00000000000E+00 -0.00000000000E+00 -0.11795557364E+04  0.11795557364E+04  0.00000000000E+00 0.  1.
         23    2    1    2    0    0 -0.30389995667E+03  0.15444093957E+04 -0.10147776580E+03  0.15799596576E+04  0.91756293602E+02 0.  0.
         13    1    3    3    0    0 -0.26148936776E+03  0.12125282617E+04 -0.10999594023E+03  0.12452712884E+04  0.00000000000E+00 0. -1.
        -13    1    3    3    0    0 -0.42410588908E+02  0.33188113402E+03  0.85181744263E+01  0.33468836918E+03  0.00000000000E+00 0.  1.
         22    1    1    2    0    0  0.30389995667E+03 -0.15444093957E+04  0.14891476585E+04  0.21668217079E+04  0.00000000000E+00 0. -1.
<mgrwt>
<rscale>  0 0.34803366E+04</rscale>
<asrwt>0</asrwt>
<pdfrwt beam="1">  1        2 0.39495779E+00 0.34803366E+04</pdfrwt>
<pdfrwt beam="2">  1       -2 0.18147011E+00 0.34803366E+04</pdfrwt>
<totfact> 0.46367451E-01</totfact>
</mgrwt>
</event>
<event>
 6    1  0.2236204E-005  0.4303375E+04  0.7818608E-02  0.7945994E-01
         -2   -1    0    0    0  501 -0.00000000000E+00  0.00000000000E+00  0.13989595070E+04  0.13989595070E+04  0.00000000000E+00 0.  1.
          2   -1    0    0  501    0  0.00000000000E+00 -0.00000000000E+00 -0.33094297386E+04  0.33094297386E+04  0.00000000000E+00 0. -1.
         23    2    1    2    0    0 -0.86474636896E+03 -0.10892644988E+04 -0.27505880580E+04  0.30835565179E+04  0.91119168541E+02 0.  0.
         11    1    3    3    0    0 -0.70025969201E+03 -0.83275152197E+03 -0.20993188100E+04  0.23645249417E+04  0.00000000000E+00 0.  1.
        -11    1    3    3    0    0 -0.16448667694E+03 -0.25651297684E+03 -0.65126924800E+03  0.71903157620E+03  0.00000000000E+00 0. -1.
         22    1    1    2    0    0  0.86474636896E+03  0.10892644988E+04  0.84011782640E+03  0.16248327278E+04  0.00000000000E+00 0.  1.
<mgrwt>
<rscale>  0 0.43033746E+04</rscale>
<asrwt>0</asrwt>
<pdfrwt beam="1">  1        2 0.50914303E+00 0.43033746E+04</pdfrwt>
<pdfrwt beam="2">  1       -2 0.21522454E+00 0.43033746E+04</pdfrwt>
<totfact> 0.89467733E-02</totfact>
</mgrwt>
</event>
<event>
 6    1  0.2236204E-005  0.2410042E+04  0.7818608E-02  0.8435754E-01
          2   -1    0    0  501    0  0.00000000000E+00  0.00000000000E+00  0.11386542778E+04  0.11386542778E+04  0.00000000000E+00 0. -1.
         -2   -1    0    0    0  501 -0.00000000000E+00 -0.00000000000E+00 -0.12752560405E+04  0.12752560405E+04  0.00000000000E+00 0.  1.
         23    2    1    2    0    0 -0.60260308212E+03  0.54652638815E+02 -0.11100573955E+04  0.12677282846E+04  0.93756048080E+02 0.  0.
         13    1    3    3    0    0 -0.23321815203E+03  0.45473360971E+02 -0.51689470288E+03  0.56889249147E+03  0.00000000000E+00 0. -1.
        -13    1    3    3    0    0 -0.36938493009E+03  0.91792778439E+01 -0.59316269267E+03  0.69883579308E+03  0.00000000000E+00 0.  1.
         22    1    1    2    0    0  0.60260308212E+03 -0.54652638815E+02  0.97345563285E+03  0.11461820338E+04  0.00000000000E+00 0. -1.
<mgrwt>
<rscale>  0 0.24100421E+04</rscale>
<asrwt>0</asrwt>
<pdfrwt beam="1">  1        2 0.17517758E+00 0.24100421E+04</pdfrwt>
<pdfrwt beam="2">  1       -2 0.19619324E+00 0.24100421E+04</pdfrwt>
<totfact> 0.26116535E+00</totfact>
</mgrwt>
</event>
<event>
 6    1  0.2236204E-005  0.2149017E+04  0.7818608E-02  0.8539953E-01
          2   -1    0    0  501    0  0.00000000000E+00  0.00000000000E+00  0.30597043322E+04  0.30597043322E+04  0.00000000000E+00 0. -1.
         -2   -1    0    0    0  501 -0.00000000000E+00 -0.00000000000E+00 -0.37734635643E+03  0.37734635643E+03  0.00000000000E+00 0.  1.
         23    2    1    2    0    0  0.88326868235E+03  0.33139644237E+03  0.21624008149E+04  0.23598586832E+04  0.54484433636E+02 0.  0.
         11    1    3    3    0    0  0.40090861746E+03  0.12244641669E+03  0.94229326720E+03  0.10313280011E+04  0.00000000000E+00 0.  1.
        -11    1    3    3    0    0  0.48236006489E+03  0.20895002568E+03  0.12201075477E+04  0.13285306821E+04  0.00000000000E+00 0. -1.
         22    1    1    2    0    0 -0.88326868235E+03 -0.33139644237E+03  0.51995716088E+03  0.10771920053E+04  0.00000000000E+00 0.  1.
<mgrwt>
<rscale>  0 0.21490168E+04</rscale>
<asrwt>0</asrwt>
<pdfrwt beam="1">  1        2 0.47072373E+00 0.21490168E+04</pdfrwt>
<pdfrwt beam="2">  1       -2 0.58053287E-01 0.21490168E+04</pdfrwt>
<totfact> 0.40758690E+00</totfact>
</mgrwt>
</event>
<event>
 6    1  0.2236204E-005  0.3183683E+04  0.7818608E-02  0.8193140E-01
         -2   -1    0    0    0  501 -0.00000000000E+00  0.00000000000E+00  0.13979204693E+04  0.13979204693E+04  0.00000000000E+00 0.  1.
          2   -1    0    0  501    0  0.00000000000E+00 -0.00000000000E+00 -0.18126632574E+04  0.18126632574E+04  0.00000000000E+00 0. -1.
         23    2    1    2    0    0  0.41722996204E+03 -0.30224279211E+03  0.13099326473E+04  0.14106012534E+04  0.91873874345E+02 0.  0.
         13    1    3    3    0    0  0.25032549209E+03 -0.16791901185E+03  0.64396602755E+03  0.71102172342E+03  0.00000000000E+00 0. -1.
        -13    1    3    3    0    0  0.16690446994E+03 -0.13432378027E+03  0.66596661978E+03  0.69957952993E+03  0.00000000000E+00 0.  1.
         22    1    1    2    0    0 -0.41722996204E+03  0.30224279211E+03 -0.17246754355E+04  0.17999824734E+04  0.00000000000E+00 0. -1.
<mgrwt>
<rscale>  0 0.31836828E+04</rscale>
<asrwt>0</asrwt>
<pdfrwt beam="1">  1        2 0.27887127E+00 0.31836828E+04</pdfrwt>
<pdfrwt beam="2">  1       -2 0.21506469E+00 0.31836828E+04</pdfrwt>
<totfact> 0.76069993E-01</totfact>
</mgrwt>
</event>
<event>
 6    1  0.2236204E-005  0.3906072E+04  0.7818608E-02  0.8023768E-01
         -2   -1    0    0    0  501 -0.00000000000E+00  0.00000000000E+00  0.17955579120E+04  0.17955579120E+04  0.00000000000E+00 0. -1.
          2   -1    0    0  501    0  0.00000000000E+00 -0.00000000000E+00 -0.21243257160E+04  0.21243257160E+04  0.00000000000E+00 0.  1.
         23    2    1    2    0    0 -0.69515943973E+03 -0.12905130401E+04 -0.14578719790E+04  0.20696007330E+04  0.95843277183E+02 0.  0.
         11    1    3    3    0    0 -0.13493857507E+03 -0.21245977419E+03 -0.29587940974E+03  0.38844845192E+03  0.00000000000E+00 0. -1.
        -11    1    3    3    0    0 -0.56022086466E+03 -0.10780532659E+04 -0.11619925692E+04  0.16811522811E+04  0.00000000000E+00 0.  1.
         22    1    1    2    0    0  0.69515943973E+03  0.12905130401E+04  0.11291041750E+04  0.18502828949E+04  0.00000000000E+00 0. -1.
<mgrwt>
<rscale>  0 0.39060721E+04</rscale>
<asrwt>0</asrwt>
<pdfrwt beam="1">  1        2 0.32681934E+00 0.39060721E+04</pdfrwt>
<pdfrwt beam="2">  1       -2 0.27623968E+00 0.39060721E+04</pdfrwt>
<totfact> 0.20097536E-01</totfact>
</mgrwt>
</event>
<event>
 6    1  0.2236204E-005  0.2954363E+04  0.7818608E-02  0.8256884E-01
          2   -1    0    0  501    0  0.00000000000E+00  0.00000000000E+00  0.14214542775E+04  0.14214542775E+04  0.00000000000E+00 0. -1.
         -2   -1    0    0    0  501 -0.00000000000E+00 -0.00000000000E+00 -0.15350930757E+04  0.15350930757E+04  0.00000000000E+00 0.  1.
         23    2    1    2    0    0 -0.84920493283E+03 -0.12011799313E+04  0.62201125291E+02  0.14750272136E+04  0.88623110185E+02 0.  0.
         11    1    3    3    0    0 -0.35857901865E+03 -0.58303945698E+03  0.34971305886E+02  0.68537355745E+03  0.00000000000E+00 0.  1.
        -11    1    3    3    0    0 -0.49062591418E+03 -0.61814047430E+03  0.27229819406E+02  0.78965365616E+03  0.00000000000E+00 0. -1.
         22    1    1    2    0    0  0.84920493283E+03  0.12011799313E+04 -0.17583992348E+03  0.14815201396E+04  0.00000000000E+00 0. -1.
<mgrwt>
<rscale>  0 0.29543626E+04</rscale>
<asrwt>0</asrwt>
<pdfrwt beam="1">  1        2 0.21868527E+00 0.29543626E+04</pdfrwt>
<pdfrwt beam="2">  1       -2 0.23616817E+00 0.29543626E+04</pdfrwt>
<totfact> 0.94579939E-01</totfact>
</mgrwt>
</event>
<event>
 6    1  0.2236204E-005  0.1866308E+04  0.7818608E-02  0.8671811E-01
         -2   -1    0    0    0  501 -0.00000000000E+00  0.00000000000E+00  0.92756426255E+03  0.92756426255E+03  0.00000000000E+00 0.  1.
          2   -1    0    0  501    0  0.00000000000E+00 -0.00000000000E+00 -0.93877777475E+03  0.93877777475E+03  0.00000000000E+00 0. -1.
         23    2    1    2    0    0 -0.41056093616E+03 -0.28253267914E+02  0.82906209206E+03  0.93070235207E+03  0.97490441613E+02 0.  0.
         11    1    3    3    0    0 -0.30359804701E+03 -0.14585127877E+02  0.50768151198E+03  0.59171362812E+03  0.00000000000E+00 0.  1.
        -11    1    3    3    0    0 -0.10696288915E+03 -0.13668140037E+02  0.32138058009E+03  0.33898872395E+03  0.00000000000E+00 0. -1.
         22    1    1    2    0    0  0.41056093616E+03  0.28253267914E+02 -0.84027560426E+03  0.93563968522E+03  0.00000000000E+00 0. -1.
<mgrwt>
<rscale>  0 0.18663084E+04</rscale>
<asrwt>0</asrwt>
<pdfrwt beam="1">  1        2 0.14442735E+00 0.18663084E+04</pdfrwt>
<pdfrwt beam="2">  1       -2 0.14270219E+00 0.18663084E+04</pdfrwt>
<totfact> 0.88607273E+00</totfact>
</mgrwt>
</event>
<event>
 6    1  0.2236204E-005  0.2241592E+04  0.7818608E-02  0.8501313E-01
         -2   -1    0    0    0  501 -0.00000000000E+00  0.00000000000E+00  0.33108084225E+03  0.33108084225E+03  0.00000000000E+00 0.  1.
          2   -1    0    0  501    0  0.00000000000E+00 -0.00000000000E+00 -0.37941899411E+04  0.37941899411E+04  0.00000000000E+00 0. -1.
         23    2    1    2    0    0 -0.14596246151E+01 -0.11190111632E+04 -0.17361115149E+04  0.20674299808E+04  0.89417107607E+02 0.  0.
         11    1    3    3    0    0  0.26786241156E+02 -0.61072236969E+03 -0.10113219771E+04  0.11817239343E+04  0.00000000000E+00 0.  1.
        -11    1    3    3    0    0 -0.28245865771E+02 -0.50828879353E+03 -0.72478953785E+03  0.88570604646E+03  0.00000000000E+00 0. -1.
         22    1    1    2    0    0  0.14596246151E+01  0.11190111632E+04 -0.17269975839E+04  0.20578408025E+04  0.00000000000E+00 0. -1.
<mgrwt>
<rscale>  0 0.22415919E+04</rscale>
<asrwt>0</asrwt>
<pdfrwt beam="1">  1        2 0.58372151E+00 0.22415919E+04</pdfrwt>
<pdfrwt beam="2">  1       -2 0.50935516E-01 0.22415919E+04</pdfrwt>
<totfact> 0.16548833E+00</totfact>
</mgrwt>
</event>
<event>
 6    1  0.2236204E-005  0.1823996E+04  0.7818608E-02  0.8693642E-01
         -2   -1    0    0    0  501 -0.00000000000E+00  0.00000000000E+00  0.33937485889E+03  0.33937485889E+03  0.00000000000E+00 0. -1.
          2   -1    0    0  501    0  0.00000000000E+00 -0.00000000000E+00 -0.24508001645E+04  0.24508001645E+04  0.00000000000E+00 0.  1.
         23    2    1    2    0    0 -0.26097266819E+03  0.29641015158E+03  0.19556207209E+03  0.44962883236E+03  0.89195579209E+02 0.  0.
         11    1    3    3    0    0 -0.63170012797E+02  0.75797166280E+02  0.94339445347E+02  0.13651224077E+03  0.00000000000E+00 0.  1.
        -11    1    3    3    0    0 -0.19780265540E+03  0.22061298530E+03  0.10122262674E+03  0.31311659159E+03  0.00000000000E+00 0. -1.
         22    1    1    2    0    0  0.26097266819E+03 -0.29641015158E+03 -0.23069873777E+04  0.23405461911E+04  0.00000000000E+00 0.  1.
<mgrwt>
<rscale>  0 0.18239956E+04</rscale>
<asrwt>0</asrwt>
<pdfrwt beam="1">  1        2 0.37704618E+00 0.18239956E+04</pdfrwt>
<pdfrwt beam="2">  1       -2 0.52211517E-01 0.18239956E+04</pdfrwt>
<totfact> 0.12138263E+01</totfact>
</mgrwt>
</event>
<event>
 6    1  0.2236204E-005  0.2673336E+04  0.7818608E-02  0.8343709E-01
          2   -1    0    0  501    0  0.00000000000E+00  0.00000000000E+00  0.18195314784E+04  0.18195314784E+04  0.00000000000E+00 0. -1.
         -2   -1    0    0    0  501 -0.00000000000E+00 -0.00000000000E+00 -0.98194613011E+03  0.98194613011E+03  0.00000000000E+00 0.  1.
         23    2    1    2    0    0 -0.11044505970E+04  0.60117160584E+03 -0.51551580429E+02  0.12614182269E+04  0.85439785386E+02 0.  0.
         11    1    3    3    0    0 -0.14741975585E+03  0.93658442145E+02 -0.34399515683E+02  0.17801071563E+03  0.00000000000E+00 0. -1.
        -11    1    3    3    0    0 -0.95703084112E+03  0.50751316370E+03 -0.17152064746E+02  0.10834075113E+04  0.00000000000E+00 0.  1.
         22    1    1    2    0    0  0.11044505970E+04 -0.60117160584E+03  0.88913692868E+03  0.15400593816E+04  0.00000000000E+00 0.  1.
<mgrwt>
<rscale>  0 0.26733364E+04</rscale>
<asrwt>0</asrwt>
<pdfrwt beam="1">  1        2 0.27992792E+00 0.26733364E+04</pdfrwt>
<pdfrwt beam="2">  1       -2 0.15106863E+00 0.26733364E+04</pdfrwt>
<totfact> 0.21759048E+00</totfact>
</mgrwt>
</event>
<event>
 6    1  0.2236204E-005  0.4355063E+04  0.7818608E-02  0.7936514E-01
          2   -1    0    0  501    0  0.00000000000E+00  0.00000000000E+00  0.13654744577E+04  0.13654744577E+04  0.00000000000E+00 0. -1.
         -2   -1    0    0    0  501 -0.00000000000E+00 -0.00000000000E+00 -0.34725247121E+04  0.34725247121E+04  0.00000000000E+00 0.  1.
         23    2    1    2    0    0 -0.88620264325E+03  0.15484804544E+04 -0.24389878122E+04  0.30232459124E+04  0.90595011113E+02 0.  0.
         11    1    3    3    0    0 -0.42143321270E+03  0.64621614376E+03 -0.10485356947E+04  0.13017789214E+04  0.00000000000E+00 0. -1.
        -11    1    3    3    0    0 -0.46476943055E+03  0.90226431069E+03 -0.13904521175E+04  0.17214669910E+04  0.00000000000E+00 0.  1.
         22    1    1    2    0    0  0.88620264325E+03 -0.15484804544E+04  0.33193755782E+03  0.18147532573E+04  0.00000000000E+00 0. -1.
<mgrwt>
<rscale>  0 0.43550632E+04</rscale>
<asrwt>0</asrwt>
<pdfrwt beam="1">  1        2 0.21007300E+00 0.43550632E+04</pdfrwt>
<pdfrwt beam="2">  1       -2 0.53423457E+00 0.43550632E+04</pdfrwt>
<totfact> 0.12085558E-02</totfact>
</mgrwt>
</event>
<event>
 6    1  0.2236204E-005  0.1131269E+04  0.7818608E-02  0.9175239E-01
          2   -1    0    0  501    0  0.00000000000E+00  0.00000000000E+00  0.64723799353E+03  0.64723799353E+03  0.00000000000E+00 0.  1.
         -2   -1    0    0    0  501 -0.00000000000E+00 -0.00000000000E+00 -0.49431987506E+03  0.49431987506E+03  0.00000000000E+00 0. -1.
         23    2    1    2    0    0 -0.16328871606E+03  0.53770910790E+03  0.72464315341E+02  0.57387212458E+03  0.91015651747E+02 0.  0.
         13    1    3    3    0    0 -0.40060780518E+02  0.83871880916E+02 -0.18795911764E+02  0.94829556801E+02  0.00000000000E+00 0. -1.
        -13    1    3    3    0    0 -0.12322793554E+03  0.45383722699E+03  0.91260227105E+02  0.47904256778E+03  0.00000000000E+00 0.  1.
         22    1    1    2    0    0  0.16328871606E+03 -0.53770910790E+03  0.80453803127E+02  0.56768574401E+03  0.00000000000E+00 0. -1.
<mgrwt>
<rscale>  0 0.11312694E+04</rscale>
<asrwt>0</asrwt>
<pdfrwt beam="1">  1        2 0.99575076E-01 0.11312694E+04</pdfrwt>
<pdfrwt beam="2">  1       -2 0.76049211E-01 0.11312694E+04</pdfrwt>
<totfact> 0.69393850E+01</totfact>
</mgrwt>
</event>
<event>
 6    1  0.2236204E-005  0.1431112E+04  0.7818608E-02  0.8931601E-01
          3   -1    0    0  501    0  0.00000000000E+00  0.00000000000E+00  0.23781729120E+03  0.23781729120E+03  0.00000000000E+00 0. -1.
         -3   -1    0    0    0  501 -0.00000000000E+00 -0.00000000000E+00 -0.21529993874E+04  0.21529993874E+04  0.00000000000E+00 0.  1.
         23    2    1    2    0    0 -0.60492191080E+03 -0.34565653141E+03 -0.71125575726E+03  0.99982868963E+03  0.91453269517E+02 0.  0.
         13    1    3    3    0    0 -0.52624522264E+03 -0.26444972730E+03 -0.61225347735E+03  0.84954223742E+03  0.00000000000E+00 0. -1.
        -13    1    3    3    0    0 -0.78676688152E+02 -0.81206804109E+02 -0.99002279912E+02  0.15028645222E+03  0.00000000000E+00 0.  1.
         22    1    1    2    0    0  0.60492191080E+03  0.34565653141E+03 -0.12039263390E+04  0.13909879890E+04  0.00000000000E+00 0.  1.
<mgrwt>
<rscale>  0 0.14311121E+04</rscale>
<asrwt>0</asrwt>
<pdfrwt beam="1">  1        3 0.36587276E-01 0.14311121E+04</pdfrwt>
<pdfrwt beam="2">  1       -3 0.33123067E+00 0.14311121E+04</pdfrwt>
<totfact> 0.48304624E-01</totfact>
</mgrwt>
</event>
<event>
 6    1  0.2236204E-005  0.1385630E+04  0.7818608E-02  0.8964287E-01
          1   -1    0    0  501    0  0.00000000000E+00  0.00000000000E+00  0.11538396114E+04  0.11538396114E+04  0.00000000000E+00 0. -1.
         -1   -1    0    0    0  501 -0.00000000000E+00 -0.00000000000E+00 -0.41599569476E+03  0.41599569476E+03  0.00000000000E+00 0.  1.
         23    2    1    2    0    0 -0.31024068424E+03  0.12083905275E+03  0.10547463991E+04  0.11101848495E+04  0.95755286994E+02 0.  0.
         13    1    3    3    0    0 -0.29799220815E+02  0.24845679123E+02  0.24163259965E+03  0.24472763339E+03  0.00000000000E+00 0.  1.
        -13    1    3    3    0    0 -0.28044146342E+03  0.95993373626E+02  0.81311379941E+03  0.86545721615E+03  0.00000000000E+00 0. -1.
         22    1    1    2    0    0  0.31024068424E+03 -0.12083905275E+03 -0.31690248247E+03  0.45965045657E+03  0.00000000000E+00 0.  1.
<mgrwt>
<rscale>  0 0.13856295E+04</rscale>
<asrwt>0</asrwt>
<pdfrwt beam="1">  1        1 0.17751378E+00 0.13856295E+04</pdfrwt>
<pdfrwt beam="2">  1       -1 0.63999338E-01 0.13856295E+04</pdfrwt>
<totfact> 0.27930708E+01</totfact>
</mgrwt>
</event>
<event>
 6    1  0.2236204E-005  0.1363124E+04  0.7818608E-02  0.8980952E-01
         -2   -1    0    0    0  501 -0.00000000000E+00  0.00000000000E+00  0.21053583180E+03  0.21053583180E+03  0.00000000000E+00 0.  1.
          2   -1    0    0  501    0  0.00000000000E+00 -0.00000000000E+00 -0.22064034580E+04  0.22064034580E+04  0.00000000000E+00 0. -1.
         23    2    1    2    0    0  0.61450186381E+03 -0.12226681044E+03 -0.14642195831E+04  0.15952268369E+04  0.90818280515E+02 0.  0.
         11    1    3    3    0    0  0.28282820836E+03 -0.92678366799E+02 -0.76177591520E+03  0.81785305532E+03  0.00000000000E+00 0. -1.
        -11    1    3    3    0    0  0.33167365545E+03 -0.29588443638E+02 -0.70244366786E+03  0.77737378155E+03  0.00000000000E+00 0.  1.
         22    1    1    2    0    0 -0.61450186381E+03  0.12226681044E+03 -0.53164804317E+03  0.82171245297E+03  0.00000000000E+00 0.  1.
<mgrwt>
<rscale>  0 0.13631243E+04</rscale>
<asrwt>0</asrwt>
<pdfrwt beam="1">  1        2 0.33944669E+00 0.13631243E+04</pdfrwt>
<pdfrwt beam="2">  1       -2 0.32390128E-01 0.13631243E+04</pdfrwt>
<totfact> 0.44449257E+01</totfact>
</mgrwt>
</event>
<event>
 6    1  0.2236204E-005  0.2065813E+04  0.7818608E-02  0.8576454E-01
          2   -1    0    0  501    0  0.00000000000E+00  0.00000000000E+00  0.98552966522E+03  0.98552966522E+03  0.00000000000E+00 0. -1.
         -2   -1    0    0    0  501 -0.00000000000E+00 -0.00000000000E+00 -0.10825606948E+04  0.10825606948E+04  0.00000000000E+00 0.  1.
         23    2    1    2    0    0 -0.65232122919E+03  0.27234542467E+03 -0.80007927717E+03  0.10711089886E+04  0.86328439130E+02 0.  0.
         13    1    3    3    0    0 -0.44051166624E+03  0.19967037095E+03 -0.60134728885E+03  0.77171066271E+03  0.00000000000E+00 0.  1.
        -13    1    3    3    0    0 -0.21180956295E+03  0.72675053712E+02 -0.19873198831E+03  0.29939832593E+03  0.00000000000E+00 0. -1.
         22    1    1    2    0    0  0.65232122919E+03 -0.27234542467E+03  0.70304824760E+03  0.99698137137E+03  0.00000000000E+00 0. -1.
<mgrwt>
<rscale>  0 0.20658128E+04</rscale>
<asrwt>0</asrwt>
<pdfrwt beam="1">  1        2 0.15161995E+00 0.20658128E+04</pdfrwt>
<pdfrwt beam="2">  1       -2 0.16654780E+00 0.20658128E+04</pdfrwt>
<totfact> 0.53651071E+00</totfact>
</mgrwt>
</event>
<event>
 6    1  0.2236204E-005  0.3707797E+04  0.7818608E-02  0.8066236E-01
         -2   -1    0    0    0  501 -0.00000000000E+00  0.00000000000E+00  0.16003578098E+04  0.16003578098E+04  0.00000000000E+00 0.  1.
          2   -1    0    0  501    0  0.00000000000E+00 -0.00000000000E+00 -0.21476065846E+04  0.21476065846E+04  0.00000000000E+00 0. -1.
         23    2    1    2    0    0  0.14474668016E+04  0.10359591984E+04  0.24609076230E+03  0.17991803573E+04  0.90098236370E+02 0.  0.
         13    1    3    3    0    0  0.33395474449E+03  0.22710895402E+03  0.19155523331E+02  0.40431569650E+03  0.00000000000E+00 0.  1.
        -13    1    3    3    0    0  0.11135120571E+04  0.80885024434E+03  0.22693523897E+03  0.13948646608E+04  0.00000000000E+00 0. -1.
         22    1    1    2    0    0 -0.14474668016E+04 -0.10359591984E+04 -0.79333953704E+03  0.19487840372E+04  0.00000000000E+00 0. -1.
<mgrwt>
<rscale>  0 0.37077966E+04</rscale>
<asrwt>0</asrwt>
<pdfrwt beam="1">  1        2 0.33040102E+00 0.37077966E+04</pdfrwt>
<pdfrwt beam="2">  1       -2 0.24620889E+00 0.37077966E+04</pdfrwt>
<totfact> 0.30276212E-01</totfact>
</mgrwt>
</event>
<event>
 6    1  0.2236204E-005  0.1801431E+04  0.7818608E-02  0.8705539E-01
         -2   -1    0    0    0  501 -0.00000000000E+00  0.00000000000E+00  0.15501162715E+04  0.15501162715E+04  0.00000000000E+00 0.  1.
          2   -1    0    0  501    0  0.00000000000E+00 -0.00000000000E+00 -0.52337246491E+03  0.52337246491E+03  0.00000000000E+00 0. -1.
         23    2    1    2    0    0  0.30899299330E+03 -0.17411533810E+03  0.14647890043E+04  0.15098608307E+04  0.90994946277E+02 0.  0.
         11    1    3    3    0    0  0.53264758526E+02 -0.64815173867E+02  0.25215380935E+03  0.26574364496E+03  0.00000000000E+00 0.  1.
        -11    1    3    3    0    0  0.25572823478E+03 -0.10930016423E+03  0.12126351949E+04  0.12441171857E+04  0.00000000000E+00 0. -1.
         22    1    1    2    0    0 -0.30899299330E+03  0.17411533810E+03 -0.43804519767E+03  0.56362790569E+03  0.00000000000E+00 0. -1.
<mgrwt>
<rscale>  0 0.18014307E+04</rscale>
<asrwt>0</asrwt>
<pdfrwt beam="1">  1        2 0.80518841E-01 0.18014307E+04</pdfrwt>
<pdfrwt beam="2">  1       -2 0.23847942E+00 0.18014307E+04</pdfrwt>
<totfact> 0.41699081E+00</totfact>
</mgrwt>
</event>
<event>
 6    1  0.2236204E-005  0.2158176E+04  0.7818608E-02  0.8536041E-01
         -2   -1    0    0    0  501 -0.00000000000E+00  0.00000000000E+00  0.10806003363E+04  0.10806003363E+04  0.00000000000E+00 0. -1.
          2   -1    0    0  501    0  0.00000000000E+00 -0.00000000000E+00 -0.10775773175E+04  0.10775773175E+04  0.00000000000E+00 0.  1.
         23    2    1    2    0    0 -0.58202696665E+02  0.27753435502E+03  0.10406802869E+04  0.10824706871E+04  0.91183643530E+02 0.  0.
         13    1    3    3    0    0 -0.15756126612E+02  0.23837459707E+03  0.87440369849E+03  0.90645051271E+03  0.00000000000E+00 0. -1.
        -13    1    3    3    0    0 -0.42446570053E+02  0.39159757946E+02  0.16627658839E+03  0.17602017441E+03  0.00000000000E+00 0.  1.
         22    1    1    2    0    0  0.58202696665E+02 -0.27753435502E+03 -0.10376572681E+04  0.10757069667E+04  0.00000000000E+00 0.  1.
<mgrwt>
<rscale>  0 0.21581755E+04</rscale>
<asrwt>0</asrwt>
<pdfrwt beam="1">  1        2 0.16578113E+00 0.21581755E+04</pdfrwt>
<pdfrwt beam="2">  1       -2 0.16624621E+00 0.21581755E+04</pdfrwt>
<totfact> 0.46782283E+00</totfact>
</mgrwt>
</event>
<event>
 6    1  0.2236204E-005  0.2971664E+04  0.7818608E-02  0.8251869E-01
          2   -1    0    0  501    0  0.00000000000E+00  0.00000000000E+00  0.26054402762E+04  0.26054402762E+04  0.00000000000E+00 0.  1.
         -2   -1    0    0    0  501 -0.00000000000E+00 -0.00000000000E+00 -0.84734134879E+03  0.84734134879E+03  0.00000000000E+00 0. -1.
         23    2    1    2    0    0 -0.99593104221E+03  0.51275197714E+03  0.20115698221E+04  0.23042866422E+04  0.92360973788E+02 0.  0.
         11    1    3    3    0    0 -0.17654665540E+03  0.11229776321E+03  0.44113990688E+03  0.48824576454E+03  0.00000000000E+00 0. -1.
        -11    1    3    3    0    0 -0.81938438682E+03  0.40045421393E+03  0.15704299152E+04  0.18160408777E+04  0.00000000000E+00 0.  1.
         22    1    1    2    0    0  0.99593104221E+03 -0.51275197714E+03 -0.25347089471E+03  0.11484949827E+04  0.00000000000E+00 0. -1.
<mgrwt>
<rscale>  0 0.29716644E+04</rscale>
<asrwt>0</asrwt>
<pdfrwt beam="1">  1        2 0.40083696E+00 0.29716644E+04</pdfrwt>
<pdfrwt beam="2">  1       -2 0.13036021E+00 0.29716644E+04</pdfrwt>
<totfact> 0.11174927E+00</totfact>
</mgrwt>
</event>
<event>
 6    1  0.2236204E-005  0.1616337E+04  0.7818608E-02  0.8810574E-01
          2   -1    0    0  501    0  0.00000000000E+00  0.00000000000E+00  0.10013920074E+04  0.10013920074E+04  0.00000000000E+00 0. -1.
         -2   -1    0    0    0  501 -0.00000000000E+00 -0.00000000000E+00 -0.65222823897E+03  0.65222823897E+03  0.00000000000E+00 0.  1.
         23    2    1    2    0    0  0.76287759201E+03 -0.22919511509E+03  0.58611694970E+02  0.80572100200E+03  0.10601123103E+03 0.  0.
         13    1    3    3    0    0  0.22616970756E+03 -0.11645166554E+03  0.21241966168E+01  0.25439779723E+03  0.00000000000E+00 0. -1.
        -13    1    3    3    0    0  0.53670788445E+03 -0.11274344955E+03  0.56487498353E+02  0.55132320477E+03  0.00000000000E+00 0.  1.
         22    1    1    2    0    0 -0.76287759201E+03  0.22919511509E+03  0.29055207342E+03  0.84789924433E+03  0.00000000000E+00 0.  1.
<mgrwt>
<rscale>  0 0.16163368E+04</rscale>
<asrwt>0</asrwt>
<pdfrwt beam="1">  1        2 0.15406031E+00 0.16163368E+04</pdfrwt>
<pdfrwt beam="2">  1       -2 0.10034281E+00 0.16163368E+04</pdfrwt>
<totfact> 0.19728188E+01</totfact>
</mgrwt>
</event>
<event>
 6    1  0.2236204E-005  0.3101242E+04  0.7818608E-02  0.8215397E-01
         -1   -1    0    0    0  501 -0.00000000000E+00  0.00000000000E+00  0.15045897584E+04  0.15045897584E+04  0.00000000000E+00 0.  1.
          1   -1    0    0  501    0  0.00000000000E+00 -0.00000000000E+00 -0.15980610080E+04  0.15980610080E+04  0.00000000000E+00 0. -1.
         23    2    1    2    0    0 -0.14775846812E+04  0.11282270684E+03 -0.49884497744E+03  0.15663196456E+04  0.92333458522E+02 0.  0.
         13    1    3    3    0    0 -0.11789760951E+04  0.12688596841E+03 -0.39405094835E+03  0.12495442496E+04  0.00000000000E+00 0.  1.
        -13    1    3    3    0    0 -0.29860858612E+03 -0.14063261576E+02 -0.10479402909E+03  0.31677539608E+03  0.00000000000E+00 0. -1.
         22    1    1    2    0    0  0.14775846812E+04 -0.11282270684E+03  0.40537372789E+03  0.15363311207E+04  0.00000000000E+00 0.  1.
<mgrwt>
<rscale>  0 0.31012425E+04</rscale>
<asrwt>0</asrwt>
<pdfrwt beam="1">  1        1 0.24585554E+00 0.31012425E+04</pdfrwt>
<pdfrwt beam="2">  1       -1 0.23147535E+00 0.31012425E+04</pdfrwt>
<totfact> 0.43586288E-01</totfact>
</mgrwt>
</event>
<event>
 6    1  0.2236204E-005  0.3671037E+04  0.7818608E-02  0.8074411E-01
         -1   -1    0    0    0  501 -0.00000000000E+00  0.00000000000E+00  0.17011467351E+04  0.17011467351E+04  0.00000000000E+00 0.  1.
          1   -1    0    0  501    0  0.00000000000E+00 -0.00000000000E+00 -0.19805041827E+04  0.19805041827E+04  0.00000000000E+00 0. -1.
         23    2    1    2    0    0 -0.59354520341E+03 -0.10922140590E+04  0.12131114742E+04  0.17393093048E+04  0.91268559144E+02 0.  0.
         11    1    3    3    0    0 -0.50715515609E+03 -0.89784662412E+03  0.96224070259E+03  0.14104049357E+04  0.00000000000E+00 0. -1.
        -11    1    3    3    0    0 -0.86390047318E+02 -0.19436743484E+03  0.25087077164E+03  0.32890436918E+03  0.00000000000E+00 0.  1.
         22    1    1    2    0    0  0.59354520341E+03  0.10922140590E+04 -0.14924689218E+04  0.19423416130E+04  0.00000000000E+00 0. -1.
<mgrwt>
<rscale>  0 0.36710370E+04</rscale>
<asrwt>0</asrwt>
<pdfrwt beam="1">  1        1 0.30469295E+00 0.36710370E+04</pdfrwt>
<pdfrwt beam="2">  1       -1 0.26171488E+00 0.36710370E+04</pdfrwt>
<totfact> 0.14450875E-01</totfact>
</mgrwt>
</event>
<event>
 6    1  0.2236204E-005  0.3227658E+04  0.7818608E-02  0.8181551E-01
         -2   -1    0    0    0  501 -0.00000000000E+00  0.00000000000E+00  0.16402886664E+04  0.16402886664E+04  0.00000000000E+00 0.  1.
          2   -1    0    0  501    0  0.00000000000E+00 -0.00000000000E+00 -0.15877958602E+04  0.15877958602E+04  0.00000000000E+00 0. -1.
         23    2    1    2    0    0 -0.70627205452E+02  0.27330082435E+03 -0.15615550471E+04  0.15895388252E+04  0.92184430479E+02 0.  0.
         11    1    3    3    0    0 -0.64256961063E+02  0.78332861256E+02 -0.58110602815E+03  0.58987219815E+03  0.00000000000E+00 0.  1.
        -11    1    3    3    0    0 -0.63702443887E+01  0.19496796310E+03 -0.98044901890E+03  0.99966662709E+03  0.00000000000E+00 0. -1.
         22    1    1    2    0    0  0.70627205452E+02 -0.27330082435E+03  0.16140478533E+04  0.16385457014E+04  0.00000000000E+00 0.  1.
<mgrwt>
<rscale>  0 0.32276577E+04</rscale>
<asrwt>0</asrwt>
<pdfrwt beam="1">  1        2 0.24427628E+00 0.32276577E+04</pdfrwt>
<pdfrwt beam="2">  1       -2 0.25235210E+00 0.32276577E+04</pdfrwt>
<totfact> 0.59161269E-01</totfact>
</mgrwt>
</event>
<event>
 6    1  0.2236204E-005  0.2006264E+04  0.7818608E-02  0.8603698E-01
         -2   -1    0    0    0  501 -0.00000000000E+00  0.00000000000E+00  0.22030872460E+04  0.22030872460E+04  0.00000000000E+00 0.  1.
          2   -1    0    0  501    0  0.00000000000E+00 -0.00000000000E+00 -0.45675611359E+03  0.45675611359E+03  0.00000000000E+00 0. -1.
         23    2    1    2    0    0 -0.68743395709E+03  0.50137098951E+02 -0.87614231587E+02  0.70065098205E+03  0.90312629422E+02 0.  0.
         11    1    3    3    0    0 -0.44790432721E+03 -0.77027261416E+01 -0.72238658189E+02  0.45375769091E+03  0.00000000000E+00 0. -1.
        -11    1    3    3    0    0 -0.23952962988E+03  0.57839825093E+02 -0.15375573398E+02  0.24689329115E+03  0.00000000000E+00 0.  1.
         22    1    1    2    0    0  0.68743395709E+03 -0.50137098951E+02  0.18339453640E+04  0.19591923775E+04  0.00000000000E+00 0.  1.
<mgrwt>
<rscale>  0 0.20062638E+04</rscale>
<asrwt>0</asrwt>
<pdfrwt beam="1">  1        2 0.70270172E-01 0.20062638E+04</pdfrwt>
<pdfrwt beam="2">  1       -2 0.33893649E+00 0.20062638E+04</pdfrwt>
<totfact> 0.11616186E+00</totfact>
</mgrwt>
</event>
<event>
 6    1  0.2236204E-005  0.2066437E+04  0.7818608E-02  0.8576174E-01
         -2   -1    0    0    0  501 -0.00000000000E+00  0.00000000000E+00  0.57221907114E+03  0.57221907114E+03  0.00000000000E+00 0.  1.
          2   -1    0    0  501    0  0.00000000000E+00 -0.00000000000E+00 -0.18656150784E+04  0.18656150784E+04  0.00000000000E+00 0. -1.
         23    2    1    2    0    0 -0.51486494548E+03 -0.40514668454E+03 -0.15873218964E+04  0.17197657848E+04  0.93668585311E+02 0.  0.
         11    1    3    3    0    0 -0.24609304078E+03 -0.15826930693E+03 -0.61043572986E+03  0.67693628838E+03  0.00000000000E+00 0.  1.
        -11    1    3    3    0    0 -0.26877190470E+03 -0.24687737760E+03 -0.97688616650E+03  0.10428294964E+04  0.00000000000E+00 0. -1.
         22    1    1    2    0    0  0.51486494548E+03  0.40514668454E+03  0.29392588913E+03  0.71806836470E+03  0.00000000000E+00 0. -1.
<mgrwt>
<rscale>  0 0.20664371E+04</rscale>
<asrwt>0</asrwt>
<pdfrwt beam="1">  1        2 0.28701770E+00 0.20664371E+04</pdfrwt>
<pdfrwt beam="2">  1       -2 0.88033704E-01 0.20664371E+04</pdfrwt>
<totfact> 0.81527592E+00</totfact>
</mgrwt>
</event>
<event>
 6    1  0.2236204E-005  0.8857684E+03  0.7818608E-02  0.9443549E-01
         -2   -1    0    0    0  501 -0.00000000000E+00  0.00000000000E+00  0.15922166589E+03  0.15922166589E+03  0.00000000000E+00 0.  1.
          2   -1    0    0  501    0  0.00000000000E+00 -0.00000000000E+00 -0.12319077064E+04  0.12319077064E+04  0.00000000000E+00 0. -1.
         23    2    1    2    0    0  0.22561191043E+03 -0.26115862407E+03 -0.96657664655E+03  0.10300701465E+04  0.87575863827E+02 0.  0.
         11    1    3    3    0    0  0.13816377152E+02 -0.48310166246E+02 -0.84781801871E+02  0.98553124602E+02  0.00000000000E+00 0.  1.
        -11    1    3    3    0    0  0.21179553328E+03 -0.21284845782E+03 -0.88179484468E+03  0.93151702187E+03  0.00000000000E+00 0. -1.
         22    1    1    2    0    0 -0.22561191043E+03  0.26115862407E+03 -0.10610939394E+03  0.36105922580E+03  0.00000000000E+00 0.  1.
<mgrwt>
<rscale>  0 0.88576836E+03</rscale>
<asrwt>0</asrwt>
<pdfrwt beam="1">  1        2 0.18952427E+00 0.88576836E+03</pdfrwt>
<pdfrwt beam="2">  1       -2 0.24495640E-01 0.88576836E+03</pdfrwt>
<totfact> 0.27032947E+02</totfact>
</mgrwt>
</event>
<event>
 6    1  0.2236204E-005  0.1073958E+04  0.7818608E-02  0.9230952E-01
          1   -1    0    0  501    0  0.00000000000E+00  0.00000000000E+00  0.17983596192E+04  0.17983596192E+04  0.00000000000E+00 0. -1.
         -1   -1    0    0    0  501 -0.00000000000E+00 -0.00000000000E+00 -0.16033863204E+03  0.16033863204E+03  0.00000000000E+00 0.  1.
         23    2    1    2    0    0 -0.51578030110E+03 -0.13387034107E+03  0.82975525224E+03  0.99058457740E+03  0.93879918753E+02 0.  0.
         13    1    3    3    0    0 -0.39652927240E+03 -0.10112592875E+03  0.70344084327E+03  0.81381259349E+03  0.00000000000E+00 0.  1.
        -13    1    3    3    0    0 -0.11925102870E+03 -0.32744412319E+02  0.12631440897E+03  0.17677198391E+03  0.00000000000E+00 0. -1.
         22    1    1    2    0    0  0.51578030110E+03  0.13387034107E+03  0.80826573494E+03  0.96811367386E+03  0.00000000000E+00 0. -1.
<mgrwt>
<rscale>  0 0.10739581E+04</rscale>
<asrwt>0</asrwt>
<pdfrwt beam="1">  1        1 0.27667070E+00 0.10739581E+04</pdfrwt>
<pdfrwt beam="2">  1       -1 0.24667483E-01 0.10739581E+04</pdfrwt>
<totfact> 0.58522361E+01</totfact>
</mgrwt>
</event>
<event>
 6    1  0.2236204E-005  0.1492200E+04  0.7818608E-02  0.8889656E-01
         -2   -1    0    0    0  501 -0.00000000000E+00  0.00000000000E+00  0.11815247532E+04  0.11815247532E+04  0.00000000000E+00 0.  1.
          2   -1    0    0  501    0  0.00000000000E+00 -0.00000000000E+00 -0.47114151389E+03  0.47114151389E+03  0.00000000000E+00 0. -1.
         23    2    1    2    0    0  0.68214154300E+03  0.49906810496E+02  0.67882605159E+03  0.96797390514E+03  0.91437947818E+02 0.  0.
         13    1    3    3    0    0  0.20475208418E+03  0.57238796795E+02  0.21016637154E+03  0.29894748630E+03  0.00000000000E+00 0.  1.
        -13    1    3    3    0    0  0.47738945882E+03 -0.73319862987E+01  0.46865968004E+03  0.66902641885E+03  0.00000000000E+00 0. -1.
         22    1    1    2    0    0 -0.68214154300E+03 -0.49906810496E+02  0.31557187725E+02  0.68469236196E+03  0.00000000000E+00 0. -1.
<mgrwt>
<rscale>  0 0.14922002E+04</rscale>
<asrwt>0</asrwt>
<pdfrwt beam="1">  1        2 0.72483310E-01 0.14922002E+04</pdfrwt>
<pdfrwt beam="2">  1       -2 0.18177304E+00 0.14922002E+04</pdfrwt>
<totfact> 0.11231338E+01</totfact>
</mgrwt>
</event>
<event>
 6    1  0.2236204E-005  0.2283275E+04  0.7818608E-02  0.8484545E-01
         -2   -1    0    0    0  501 -0.00000000000E+00  0.00000000000E+00  0.12069522694E+04  0.12069522694E+04  0.00000000000E+00 0.  1.
          2   -1    0    0  501    0  0.00000000000E+00 -0.00000000000E+00 -0.10798572986E+04  0.10798572986E+04  0.00000000000E+00 0. -1.
         23    2    1    2    0    0 -0.89481276738E+03 -0.68858371994E+03 -0.92363350635E+02  0.11365924655E+04  0.92054418593E+02 0.  0.
         13    1    3    3    0    0 -0.23082232852E+03 -0.21762860377E+03 -0.52582994804E+02  0.32156823205E+03  0.00000000000E+00 0. -1.
        -13    1    3    3    0    0 -0.66399043886E+03 -0.47095511617E+03 -0.39780355831E+02  0.81502423341E+03  0.00000000000E+00 0.  1.
         22    1    1    2    0    0  0.89481276738E+03  0.68858371994E+03  0.21945832140E+03  0.11502171025E+04  0.00000000000E+00 0. -1.
<mgrwt>
<rscale>  0 0.22832750E+04</rscale>
<asrwt>0</asrwt>
<pdfrwt beam="1">  1        2 0.16613189E+00 0.22832750E+04</pdfrwt>
<pdfrwt beam="2">  1       -2 0.18568496E+00 0.22832750E+04</pdfrwt>
<totfact> 0.33738414E+00</totfact>
</mgrwt>
</event>
<event>
 6    1  0.2236204E-005  0.9146150E+03  0.7818608E-02  0.9407494E-01
         -2   -1    0    0    0  501 -0.00000000000E+00  0.00000000000E+00  0.20942983638E+03  0.20942983638E+03  0.00000000000E+00 0. -1.
          2   -1    0    0  501    0  0.00000000000E+00 -0.00000000000E+00 -0.99856898628E+03  0.99856898628E+03  0.00000000000E+00 0.  1.
         23    2    1    2    0    0 -0.30489799151E+02  0.44424604679E+03 -0.50748753399E+03  0.68111001970E+03  0.89905972165E+02 0.  0.
         11    1    3    3    0    0 -0.27351288814E+02  0.11692261187E+03 -0.19218601935E+03  0.22661521617E+03  0.00000000000E+00 0. -1.
        -11    1    3    3    0    0 -0.31385103373E+01  0.32732343493E+03 -0.31530151464E+03  0.45449480353E+03  0.00000000000E+00 0.  1.
         22    1    1    2    0    0  0.30489799151E+02 -0.44424604679E+03 -0.28165161591E+03  0.52688880297E+03  0.00000000000E+00 0. -1.
<mgrwt>
<rscale>  0 0.91461498E+03</rscale>
<asrwt>0</asrwt>
<pdfrwt beam="1">  1        2 0.15362600E+00 0.91461498E+03</pdfrwt>
<pdfrwt beam="2">  1       -2 0.32219975E-01 0.91461498E+03</pdfrwt>
<totfact> 0.22651540E+02</totfact>
</mgrwt>
</event>
<event>
 6    1  0.2236204E-005  0.2722881E+04  0.7818608E-02  0.8327619E-01
         -2   -1    0    0    0  501 -0.00000000000E+00  0.00000000000E+00  0.75562338769E+03  0.75562338769E+03  0.00000000000E+00 0.  1.
          2   -1    0    0  501    0  0.00000000000E+00 -0.00000000000E+00 -0.24529691336E+04  0.24529691336E+04  0.00000000000E+00 0. -1.
         23    2    1    2    0    0  0.39858208054E+03 -0.17091017391E+03 -0.23684584353E+04  0.24095492157E+04  0.90852080969E+02 0.  0.
         13    1    3    3    0    0  0.33156896766E+03 -0.14724179272E+03 -0.17635108185E+04  0.18004412050E+04  0.00000000000E+00 0. -1.
        -13    1    3    3    0    0  0.67013112876E+02 -0.23668381183E+02 -0.60494761678E+03  0.60910801063E+03  0.00000000000E+00 0.  1.
         22    1    1    2    0    0 -0.39858208054E+03  0.17091017391E+03  0.67111268936E+03  0.79904330564E+03  0.00000000000E+00 0.  1.
<mgrwt>
<rscale>  0 0.27228814E+04</rscale>
<asrwt>0</asrwt>
<pdfrwt beam="1">  1        2 0.37737986E+00 0.27228814E+04</pdfrwt>
<pdfrwt beam="2">  1       -2 0.11624975E+00 0.27228814E+04</pdfrwt>
<totfact> 0.18632776E+00</totfact>
</mgrwt>
</event>
<event>
 6    1  0.2236204E-005  0.1988878E+04  0.7818608E-02  0.8611838E-01
         -2   -1    0    0    0  501 -0.00000000000E+00  0.00000000000E+00  0.19872125977E+04  0.19872125977E+04  0.00000000000E+00 0.  1.
          2   -1    0    0  501    0  0.00000000000E+00 -0.00000000000E+00 -0.49763612629E+03  0.49763612629E+03  0.00000000000E+00 0. -1.
         23    2    1    2    0    0 -0.70050311503E+03 -0.16002487653E+03 -0.10872950348E+03  0.73245191829E+03  0.91384530484E+02 0.  0.
         11    1    3    3    0    0 -0.33226169743E+03 -0.94811350123E+02 -0.94482166413E+02  0.35820930678E+03  0.00000000000E+00 0.  1.
        -11    1    3    3    0    0 -0.36824141759E+03 -0.65213526407E+02 -0.14247337063E+02  0.37424261151E+03  0.00000000000E+00 0. -1.
         22    1    1    2    0    0  0.70050311503E+03  0.16002487653E+03  0.15983059749E+04  0.17523968057E+04  0.00000000000E+00 0. -1.
<mgrwt>
<rscale>  0 0.19888779E+04</rscale>
<asrwt>0</asrwt>
<pdfrwt beam="1">  1        2 0.76559405E-01 0.19888779E+04</pdfrwt>
<pdfrwt beam="2">  1       -2 0.30572501E+00 0.19888779E+04</pdfrwt>
<totfact> 0.16900738E+00</totfact>
</mgrwt>
</event>
<event>
 6    1  0.3054791E-005  0.3406751E+04  0.7818608E-02  0.8136251E-01
          2   -1    0    0  501    0  0.00000000000E+00  0.00000000000E+00  0.24028847521E+04  0.24028847521E+04  0.00000000000E+00 0. -1.
         -2   -1    0    0    0  501 -0.00000000000E+00 -0.00000000000E+00 -0.12075020258E+04  0.12075020258E+04  0.00000000000E+00 0.  1.
         23    2    1    2    0    0 -0.11065852371E+04  0.10774220633E+04 -0.16015498882E+03  0.15554289471E+04  0.91325786736E+02 0.  0.
         11    1    3    3    0    0 -0.38577290235E+03  0.35477291070E+03 -0.95220325650E+02  0.53268326496E+03  0.00000000000E+00 0.  1.
        -11    1    3    3    0    0 -0.72081233479E+03  0.72264915264E+03 -0.64934663171E+02  0.10227456821E+04  0.00000000000E+00 0. -1.
         22    1    1    2    0    0  0.11065852371E+04 -0.10774220633E+04  0.13555377151E+04  0.20549578309E+04  0.00000000000E+00 0. -1.
<mgrwt>
<rscale>  0 0.34067511E+04</rscale>
<asrwt>0</asrwt>
<pdfrwt beam="1">  1        2 0.36967458E+00 0.34067511E+04</pdfrwt>
<pdfrwt beam="2">  1       -2 0.18576954E+00 0.34067511E+04</pdfrwt>
<totfact> 0.54279894E-01</totfact>
</mgrwt>
</event>
<event>
 6    1  0.2236204E-005  0.8987909E+03  0.7818608E-02  0.9427094E-01
          2   -1    0    0  501    0  0.00000000000E+00  0.00000000000E+00  0.38207610413E+03  0.38207610413E+03  0.00000000000E+00 0. -1.
         -2   -1    0    0    0  501 -0.00000000000E+00 -0.00000000000E+00 -0.52857606400E+03  0.52857606400E+03  0.00000000000E+00 0.  1.
         23    2    1    2    0    0 -0.26389441027E+03  0.44935847496E+02  0.28544975161E+03  0.40247892660E+03  0.94065059922E+02 0.  0.
         13    1    3    3    0    0 -0.14915540523E+03  0.32146658060E+02  0.22583115503E+03  0.27254440577E+03  0.00000000000E+00 0. -1.
        -13    1    3    3    0    0 -0.11473900504E+03  0.12789189435E+02  0.59618596578E+02  0.12993452083E+03  0.00000000000E+00 0.  1.
         22    1    1    2    0    0  0.26389441027E+03 -0.44935847496E+02 -0.43194971147E+03  0.50817324153E+03  0.00000000000E+00 0.  1.
<mgrwt>
<rscale>  0 0.89879093E+03</rscale>
<asrwt>0</asrwt>
<pdfrwt beam="1">  1        2 0.58780939E-01 0.89879093E+03</pdfrwt>
<pdfrwt beam="2">  1       -2 0.81319395E-01 0.89879093E+03</pdfrwt>
<totfact> 0.11200249E+02</totfact>
</mgrwt>
</event>
<event>
 6    1  0.2236204E-005  0.2370587E+04  0.7818608E-02  0.8450598E-01
         -3   -1    0    0    0  501 -0.00000000000E+00  0.00000000000E+00  0.77556626122E+03  0.77556626122E+03  0.00000000000E+00 0.  1.
          3   -1    0    0  501    0  0.00000000000E+00 -0.00000000000E+00 -0.18114765992E+04  0.18114765992E+04  0.00000000000E+00 0. -1.
         23    2    1    2    0    0  0.16924044883E+03  0.79690636058E+03  0.41816546243E+03  0.92029797580E+03  0.91563820492E+02 0.  0.
         13    1    3    3    0    0  0.39716933354E+02  0.39795038937E+03  0.21894073221E+03  0.45593529301E+03  0.00000000000E+00 0.  1.
        -13    1    3    3    0    0  0.12952351547E+03  0.39895597122E+03  0.19922473022E+03  0.46436268278E+03  0.00000000000E+00 0. -1.
         22    1    1    2    0    0 -0.16924044883E+03 -0.79690636058E+03 -0.14540758004E+04  0.16667448846E+04  0.00000000000E+00 0. -1.
<mgrwt>
<rscale>  0 0.23705865E+04</rscale>
<asrwt>0</asrwt>
<pdfrwt beam="1">  1        3 0.27868871E+00 0.23705865E+04</pdfrwt>
<pdfrwt beam="2">  1       -3 0.11931789E+00 0.23705865E+04</pdfrwt>
<totfact> 0.68462285E-02</totfact>
</mgrwt>
</event>
<event>
 6    1  0.2947906E-005  0.3649225E+04  0.7818608E-02  0.8079308E-01
         -2   -1    0    0    0  501 -0.00000000000E+00  0.00000000000E+00  0.11816210037E+04  0.11816210037E+04  0.00000000000E+00 0.  1.
          2   -1    0    0  501    0  0.00000000000E+00 -0.00000000000E+00 -0.28174952728E+04  0.28174952728E+04  0.00000000000E+00 0. -1.
         23    2    1    2    0    0  0.37533787540E+02  0.44381991138E+03 -0.27562438401E+04  0.27934575875E+04  0.90223545715E+02 0.  0.
         11    1    3    3    0    0 -0.26066822293E+02  0.22520066212E+03 -0.13984975703E+04  0.14167534265E+04  0.00000000000E+00 0. -1.
        -11    1    3    3    0    0  0.63600609834E+02  0.21861924927E+03 -0.13577462698E+04  0.13767041610E+04  0.00000000000E+00 0.  1.
         22    1    1    2    0    0 -0.37533787540E+02 -0.44381991138E+03  0.11203695709E+04  0.12056586890E+04  0.00000000000E+00 0.  1.
<mgrwt>
<rscale>  0 0.36492254E+04</rscale>
<asrwt>0</asrwt>
<pdfrwt beam="1">  1        2 0.43346080E+00 0.36492254E+04</pdfrwt>
<pdfrwt beam="2">  1       -2 0.18178785E+00 0.36492254E+04</pdfrwt>
<totfact> 0.32273203E-01</totfact>
</mgrwt>
</event>
<event>
 6    1  0.2236204E-005  0.4023368E+03  0.7818608E-02  0.1042974E+00
         -2   -1    0    0    0  501 -0.00000000000E+00  0.00000000000E+00  0.11931649406E+03  0.11931649406E+03  0.00000000000E+00 0.  1.
          2   -1    0    0  501    0  0.00000000000E+00 -0.00000000000E+00 -0.33917132870E+03  0.33917132870E+03  0.00000000000E+00 0. -1.
         23    2    1    2    0    0  0.16027071374E+03 -0.41108798679E+02 -0.22417458782E+03  0.29297258093E+03  0.90565182821E+02 0.  0.
         13    1    3    3    0    0  0.10772513872E+03  0.18326203829E+02 -0.13189477127E+03  0.17127984688E+03  0.00000000000E+00 0.  1.
        -13    1    3    3    0    0  0.52545575020E+02 -0.59435002508E+02 -0.92279816551E+02  0.12169273405E+03  0.00000000000E+00 0. -1.
         22    1    1    2    0    0 -0.16027071374E+03  0.41108798679E+02  0.43197531830E+01  0.16551524183E+03  0.00000000000E+00 0.  1.
<mgrwt>
<rscale>  0 0.40233684E+03</rscale>
<asrwt>0</asrwt>
<pdfrwt beam="1">  1        2 0.52180203E-01 0.40233684E+03</pdfrwt>
<pdfrwt beam="2">  1       -2 0.18356384E-01 0.40233684E+03</pdfrwt>
<totfact> 0.23441586E+03</totfact>
</mgrwt>
</event>
<event>
 6    1  0.2236204E-005  0.1170537E+04  0.7818608E-02  0.9139044E-01
          2   -1    0    0  501    0  0.00000000000E+00  0.00000000000E+00  0.49414096456E+03  0.49414096456E+03  0.00000000000E+00 0. -1.
         -2   -1    0    0    0  501 -0.00000000000E+00 -0.00000000000E+00 -0.69320085832E+03  0.69320085832E+03  0.00000000000E+00 0.  1.
         23    2    1    2    0    0 -0.69751582855E+02 -0.49412677055E+03  0.20316083256E+03  0.54639871981E+03  0.90833300299E+02 0.  0.
         13    1    3    3    0    0 -0.28728812401E+01 -0.18609785786E+03  0.11620783268E+03  0.21941952174E+03  0.00000000000E+00 0. -1.
        -13    1    3    3    0    0 -0.66878701615E+02 -0.30802891269E+03  0.86952999885E+02  0.32697919807E+03  0.00000000000E+00 0.  1.
         22    1    1    2    0    0  0.69751582855E+02  0.49412677055E+03 -0.40222072632E+03  0.64094310306E+03  0.00000000000E+00 0.  1.
<mgrwt>
<rscale>  0 0.11705365E+04</rscale>
<asrwt>0</asrwt>
<pdfrwt beam="1">  1        2 0.76021687E-01 0.11705365E+04</pdfrwt>
<pdfrwt beam="2">  1       -2 0.10664629E+00 0.11705365E+04</pdfrwt>
<totfact> 0.43704373E+01</totfact>
</mgrwt>
</event>
<event>
 6    1  0.2236204E-005  0.4003825E+04  0.7818608E-02  0.8003775E-01
          1   -1    0    0  501    0  0.00000000000E+00  0.00000000000E+00  0.15427211698E+04  0.15427211698E+04  0.00000000000E+00 0. -1.
         -1   -1    0    0    0  501 -0.00000000000E+00 -0.00000000000E+00 -0.25977824778E+04  0.25977824778E+04  0.00000000000E+00 0.  1.
         23    2    1    2    0    0 -0.84322601561E+03  0.50993372859E+03  0.12730153344E+04  0.16124602592E+04  0.91638011415E+02 0.  0.
         11    1    3    3    0    0 -0.10205824290E+03  0.39686215879E+02  0.10813373088E+03  0.15389536845E+03  0.00000000000E+00 0. -1.
        -11    1    3    3    0    0 -0.74116777270E+03  0.47024751271E+03  0.11648816035E+04  0.14585648908E+04  0.00000000000E+00 0.  1.
         22    1    1    2    0    0  0.84322601561E+03 -0.50993372859E+03 -0.23280766423E+04  0.25280433883E+04  0.00000000000E+00 0.  1.
<mgrwt>
<rscale>  0 0.40038252E+04</rscale>
<asrwt>0</asrwt>
<pdfrwt beam="1">  1        1 0.23734172E+00 0.40038252E+04</pdfrwt>
<pdfrwt beam="2">  1       -1 0.39965884E+00 0.40038252E+04</pdfrwt>
<totfact> 0.34364537E-02</totfact>
</mgrwt>
</event>
<event>
 6    1  0.2236204E-005  0.3269079E+04  0.7818608E-02  0.8170808E-01
         -2   -1    0    0    0  501 -0.00000000000E+00  0.00000000000E+00  0.19944328989E+04  0.19944328989E+04  0.00000000000E+00 0.  1.
          2   -1    0    0  501    0  0.00000000000E+00 -0.00000000000E+00 -0.13395883500E+04  0.13395883500E+04  0.00000000000E+00 0. -1.
         23    2    1    2    0    0 -0.32854650733E+03 -0.45539859697E+03 -0.12360067971E+04  0.13615483081E+04  0.10378007151E+03 0.  0.
         11    1    3    3    0    0 -0.21789270924E+03 -0.34262365210E+03 -0.78730438016E+03  0.88584219065E+03  0.00000000000E+00 0. -1.
        -11    1    3    3    0    0 -0.11065379810E+03 -0.11277494487E+03 -0.44870241690E+03  0.47570611743E+03  0.00000000000E+00 0.  1.
         22    1    1    2    0    0  0.32854650733E+03  0.45539859697E+03  0.18908513460E+04  0.19724729408E+04  0.00000000000E+00 0.  1.
<mgrwt>
<rscale>  0 0.32690788E+04</rscale>
<asrwt>0</asrwt>
<pdfrwt beam="1">  1        2 0.20609052E+00 0.32690788E+04</pdfrwt>
<pdfrwt beam="2">  1       -2 0.30683583E+00 0.32690788E+04</pdfrwt>
<totfact> 0.37878427E-01</totfact>
</mgrwt>
</event>
<event>
 6    1  0.2261511E-005  0.1743581E+04  0.7818608E-02  0.8736892E-01
         -2   -1    0    0    0  501 -0.00000000000E+00  0.00000000000E+00  0.31605840512E+03  0.31605840512E+03  0.00000000000E+00 0.  1.
          2   -1    0    0  501    0  0.00000000000E+00 -0.00000000000E+00 -0.24046765688E+04  0.24046765688E+04  0.00000000000E+00 0. -1.
         23    2    1    2    0    0 -0.34832289635E+03  0.30980977016E+02 -0.22886657543E+04  0.23178606765E+04  0.11044690776E+03 0.  0.
         11    1    3    3    0    0 -0.16553650064E+03  0.21588449896E+02 -0.75041132249E+03  0.76875584364E+03  0.00000000000E+00 0. -1.
        -11    1    3    3    0    0 -0.18278639571E+03  0.93925271196E+01 -0.15382544318E+04  0.15491048328E+04  0.00000000000E+00 0.  1.
         22    1    1    2    0    0  0.34832289635E+03 -0.30980977016E+02  0.20004759062E+03  0.40287429748E+03  0.00000000000E+00 0.  1.
<mgrwt>
<rscale>  0 0.17435805E+04</rscale>
<asrwt>0</asrwt>
<pdfrwt beam="1">  1        2 0.36995024E+00 0.17435805E+04</pdfrwt>
<pdfrwt beam="2">  1       -2 0.48624371E-01 0.17435805E+04</pdfrwt>
<totfact> 0.15023723E+01</totfact>
</mgrwt>
</event>
<event>
 6    1  0.2236204E-005  0.1848842E+04  0.7818608E-02  0.8680748E-01
          1   -1    0    0  501    0  0.00000000000E+00  0.00000000000E+00  0.26719187134E+04  0.26719187134E+04  0.00000000000E+00 0. -1.
         -1   -1    0    0    0  501 -0.00000000000E+00 -0.00000000000E+00 -0.31982796096E+03  0.31982796096E+03  0.00000000000E+00 0.  1.
         23    2    1    2    0    0 -0.36026983708E+02  0.90172324485E+03  0.87321905543E+03  0.12592732258E+04  0.94099864723E+02 0.  0.
         13    1    3    3    0    0 -0.65934217384E+02  0.72805438521E+03  0.71002428619E+03  0.10190902785E+04  0.00000000000E+00 0.  1.
        -13    1    3    3    0    0  0.29907233676E+02  0.17366885964E+03  0.16319476924E+03  0.24018294724E+03  0.00000000000E+00 0. -1.
         22    1    1    2    0    0  0.36026983708E+02 -0.90172324485E+03  0.14788716970E+04  0.17324734486E+04  0.00000000000E+00 0. -1.
<mgrwt>
<rscale>  0 0.18488421E+04</rscale>
<asrwt>0</asrwt>
<pdfrwt beam="1">  1        1 0.41106440E+00 0.18488421E+04</pdfrwt>
<pdfrwt beam="2">  1       -1 0.49204304E-01 0.18488421E+04</pdfrwt>
<totfact> 0.40001646E+00</totfact>
</mgrwt>
</event>
<event>
 6    1  0.2236204E-005  0.3537298E+04  0.7818608E-02  0.8105007E-01
         -2   -1    0    0    0  501 -0.00000000000E+00  0.00000000000E+00  0.83089633167E+03  0.83089633167E+03  0.00000000000E+00 0.  1.
          2   -1    0    0  501    0  0.00000000000E+00 -0.00000000000E+00 -0.37647530312E+04  0.37647530312E+04  0.00000000000E+00 0. -1.
         23    2    1    2    0    0 -0.64873397678E+03  0.47972416918E+02  0.66730944400E+03  0.93620203866E+03  0.89527860114E+02 0.  0.
         11    1    3    3    0    0 -0.38917678735E+03 -0.71130423749E+01  0.43277571297E+03  0.58206871151E+03  0.00000000000E+00 0.  1.
        -11    1    3    3    0    0 -0.25955718943E+03  0.55085459293E+02  0.23453373103E+03  0.35413332715E+03  0.00000000000E+00 0. -1.
         22    1    1    2    0    0  0.64873397678E+03 -0.47972416918E+02 -0.36011661435E+04  0.36594473242E+04  0.00000000000E+00 0. -1.
<mgrwt>
<rscale>  0 0.35372981E+04</rscale>
<asrwt>0</asrwt>
<pdfrwt beam="1">  1        2 0.57919276E+00 0.35372981E+04</pdfrwt>
<pdfrwt beam="2">  1       -2 0.12783021E+00 0.35372981E+04</pdfrwt>
<totfact> 0.19346232E-01</totfact>
</mgrwt>
</event>
<event>
 6    1  0.2236204E-005  0.8841208E+03  0.7818608E-02  0.9445652E-01
         -2   -1    0    0    0  501 -0.00000000000E+00  0.00000000000E+00  0.27976680338E+03  0.27976680338E+03  0.00000000000E+00 0.  1.
          2   -1    0    0  501    0  0.00000000000E+00 -0.00000000000E+00 -0.69850097457E+03  0.69850097457E+03  0.00000000000E+00 0. -1.
         23    2    1    2    0    0  0.28941835163E+03  0.11037823517E+02 -0.57431928775E+03  0.64949499273E+03  0.90090429542E+02 0.  0.
         13    1    3    3    0    0  0.13539610437E+03  0.15873548595E+02 -0.17752488205E+03  0.22382841279E+03  0.00000000000E+00 0.  1.
        -13    1    3    3    0    0  0.15402224726E+03 -0.48357250779E+01 -0.39679440570E+03  0.42566657994E+03  0.00000000000E+00 0. -1.
         22    1    1    2    0    0 -0.28941835163E+03 -0.11037823517E+02  0.15558511656E+03  0.32877278522E+03  0.00000000000E+00 0.  1.
<mgrwt>
<rscale>  0 0.88412077E+03</rscale>
<asrwt>0</asrwt>
<pdfrwt beam="1">  1        2 0.10746169E+00 0.88412077E+03</pdfrwt>
<pdfrwt beam="2">  1       -2 0.43041047E-01 0.88412077E+03</pdfrwt>
<totfact> 0.21096718E+02</totfact>
</mgrwt>
</event>
<event>
 6    1  0.2236204E-005  0.3846102E+04  0.7818608E-02  0.8036333E-01
         -2   -1    0    0    0  501 -0.00000000000E+00  0.00000000000E+00  0.13819321281E+04  0.13819321281E+04  0.00000000000E+00 0.  1.
          2   -1    0    0  501    0  0.00000000000E+00 -0.00000000000E+00 -0.26760546071E+04  0.26760546071E+04  0.00000000000E+00 0. -1.
         23    2    1    2    0    0 -0.92997866280E+03 -0.41585298031E+03  0.10721187398E+04  0.14817702226E+04  0.91708155618E+02 0.  0.
         11    1    3    3    0    0 -0.58721670107E+03 -0.25155538662E+03  0.73372679695E+03  0.97286102764E+03  0.00000000000E+00 0. -1.
        -11    1    3    3    0    0 -0.34276196173E+03 -0.16429759370E+03  0.33839194281E+03  0.50890919491E+03  0.00000000000E+00 0.  1.
         22    1    1    2    0    0  0.92997866280E+03  0.41585298031E+03 -0.23662412188E+04  0.25762165126E+04  0.00000000000E+00 0. -1.
<mgrwt>
<rscale>  0 0.38461024E+04</rscale>
<asrwt>0</asrwt>
<pdfrwt beam="1">  1        2 0.41170071E+00 0.38461024E+04</pdfrwt>
<pdfrwt beam="2">  1       -2 0.21260494E+00 0.38461024E+04</pdfrwt>
<totfact> 0.24145793E-01</totfact>
</mgrwt>
</event>
<event>
 6    1  0.2236204E-005  0.1009242E+04  0.7818608E-02  0.9298466E-01
         -2   -1    0    0    0  501 -0.00000000000E+00  0.00000000000E+00  0.24523908906E+03  0.24523908906E+03  0.00000000000E+00 0.  1.
          2   -1    0    0  501    0  0.00000000000E+00 -0.00000000000E+00 -0.10383441979E+04  0.10383441979E+04  0.00000000000E+00 0. -1.
         23    2    1    2    0    0  0.18029528345E+03 -0.21585524338E+03  0.12689240048E+03  0.32155662803E+03  0.90537883794E+02 0.  0.
         11    1    3    3    0    0  0.11900900292E+03 -0.10852307845E+03  0.11392825326E+03  0.19728164695E+03  0.00000000000E+00 0.  1.
        -11    1    3    3    0    0  0.61286280522E+02 -0.10733216493E+03  0.12964147224E+02  0.12427498108E+03  0.00000000000E+00 0. -1.
         22    1    1    2    0    0 -0.18029528345E+03  0.21585524338E+03 -0.91999750933E+03  0.96202665893E+03  0.00000000000E+00 0. -1.
<mgrwt>
<rscale>  0 0.10092425E+04</rscale>
<asrwt>0</asrwt>
<pdfrwt beam="1">  1        2 0.15974526E+00 0.10092425E+04</pdfrwt>
<pdfrwt beam="2">  1       -2 0.37729091E-01 0.10092425E+04</pdfrwt>
<totfact> 0.15731486E+02</totfact>
</mgrwt>
</event>
<event>
 6    1  0.2236204E-005  0.4506575E+04  0.7818608E-02  0.7909487E-01
          2   -1    0    0  501    0  0.00000000000E+00  0.00000000000E+00  0.25002833198E+04  0.25002833198E+04  0.00000000000E+00 0.  1.
         -2   -1    0    0    0  501 -0.00000000000E+00 -0.00000000000E+00 -0.20306917527E+04  0.20306917527E+04  0.00000000000E+00 0. -1.
         23    2    1    2    0    0  0.71194994892E+03 -0.21017779830E+04  0.62263890493E+03  0.23066174332E+04  0.91985638519E+02 0.  0.
         13    1    3    3    0    0  0.14721518666E+03 -0.55583163210E+03  0.15033108741E+03  0.59432360736E+03  0.00000000000E+00 0. -1.
        -13    1    3    3    0    0  0.56473476226E+03 -0.15459463509E+04  0.47230781752E+03  0.17122938259E+04  0.00000000000E+00 0.  1.
         22    1    1    2    0    0 -0.71194994892E+03  0.21017779830E+04 -0.15304733781E+03  0.22243576392E+04  0.00000000000E+00 0. -1.
<mgrwt>
<rscale>  0 0.45065751E+04</rscale>
<asrwt>0</asrwt>
<pdfrwt beam="1">  1        2 0.38465897E+00 0.45065751E+04</pdfrwt>
<pdfrwt beam="2">  1       -2 0.31241412E+00 0.45065751E+04</pdfrwt>
<totfact> 0.70275961E-02</totfact>
</mgrwt>
</event>
<event>
 6    1  0.2236204E-005  0.1998380E+04  0.7818608E-02  0.8607378E-01
         -2   -1    0    0    0  501 -0.00000000000E+00  0.00000000000E+00  0.11528516745E+04  0.11528516745E+04  0.00000000000E+00 0.  1.
          2   -1    0    0  501    0  0.00000000000E+00 -0.00000000000E+00 -0.86600991227E+03  0.86600991227E+03  0.00000000000E+00 0. -1.
         23    2    1    2    0    0 -0.98968102495E+02 -0.40323163656E+03 -0.77179650228E+03  0.88171365746E+03  0.96740347297E+02 0.  0.
         11    1    3    3    0    0 -0.53151988453E+02 -0.31114134985E+03 -0.50217747190E+03  0.59314103445E+03  0.00000000000E+00 0.  1.
        -11    1    3    3    0    0 -0.45816114042E+02 -0.92090286712E+02 -0.26961903038E+03  0.28857262301E+03  0.00000000000E+00 0. -1.
         22    1    1    2    0    0  0.98968102495E+02  0.40323163656E+03  0.10586382645E+04  0.11371479293E+04  0.00000000000E+00 0.  1.
<mgrwt>
<rscale>  0 0.19983803E+04</rscale>
<asrwt>0</asrwt>
<pdfrwt beam="1">  1        2 0.13323229E+00 0.19983803E+04</pdfrwt>
<pdfrwt beam="2">  1       -2 0.17736180E+00 0.19983803E+04</pdfrwt>
<totfact> 0.54345985E+00</totfact>
</mgrwt>
</event>
<event>
 6    1  0.2236204E-005  0.1666980E+04  0.7818608E-02  0.8780424E-01
         -2   -1    0    0    0  501 -0.00000000000E+00  0.00000000000E+00  0.48861583575E+03  0.48861583575E+03  0.00000000000E+00 0.  1.
          2   -1    0    0  501    0  0.00000000000E+00 -0.00000000000E+00 -0.14217832639E+04  0.14217832639E+04  0.00000000000E+00 0. -1.
         23    2    1    2    0    0  0.76005973544E+01 -0.83087083582E+03 -0.46733935785E+03  0.95782369267E+03  0.92822604736E+02 0.  0.
         11    1    3    3    0    0  0.13187484969E+02 -0.42401784249E+03 -0.29056255349E+03  0.51419027412E+03  0.00000000000E+00 0. -1.
        -11    1    3    3    0    0 -0.55868876151E+01 -0.40685299333E+03 -0.17677680436E+03  0.44363341855E+03  0.00000000000E+00 0.  1.
         22    1    1    2    0    0 -0.76005973544E+01  0.83087083582E+03 -0.46582807031E+03  0.95257540698E+03  0.00000000000E+00 0.  1.
<mgrwt>
<rscale>  0 0.16669803E+04</rscale>
<asrwt>0</asrwt>
<pdfrwt beam="1">  1        2 0.21873588E+00 0.16669803E+04</pdfrwt>
<pdfrwt beam="2">  1       -2 0.75171668E-01 0.16669803E+04</pdfrwt>
<totfact> 0.21311778E+01</totfact>
</mgrwt>
</event>
<event>
 6    1  0.2236204E-005  0.2681214E+04  0.7818608E-02  0.8341126E-01
         -2   -1    0    0    0  501 -0.00000000000E+00  0.00000000000E+00  0.16510705863E+04  0.16510705863E+04  0.00000000000E+00 0.  1.
          2   -1    0    0  501    0  0.00000000000E+00 -0.00000000000E+00 -0.10885225358E+04  0.10885225358E+04  0.00000000000E+00 0. -1.
         23    2    1    2    0    0  0.41480117047E+03 -0.94843227575E+03  0.11495233203E+04  0.15495831389E+04  0.90665582843E+02 0.  0.
         13    1    3    3    0    0  0.23883515590E+03 -0.53469125907E+03  0.58302982889E+03  0.82635389247E+03  0.00000000000E+00 0. -1.
        -13    1    3    3    0    0  0.17596601457E+03 -0.41374101668E+03  0.56649349138E+03  0.72322924647E+03  0.00000000000E+00 0.  1.
         22    1    1    2    0    0 -0.41480117047E+03  0.94843227575E+03 -0.58697526983E+03  0.11900099832E+04  0.00000000000E+00 0. -1.
<mgrwt>
<rscale>  0 0.26812143E+04</rscale>
<asrwt>0</asrwt>
<pdfrwt beam="1">  1        2 0.16746501E+00 0.26812143E+04</pdfrwt>
<pdfrwt beam="2">  1       -2 0.25401086E+00 0.26812143E+04</pdfrwt>
<totfact> 0.11813318E+00</totfact>
</mgrwt>
</event>
<event>
 6    1  0.2236204E-005  0.4088635E+04  0.7818608E-02  0.7986901E-01
         -2   -1    0    0    0  501 -0.00000000000E+00  0.00000000000E+00  0.12943093300E+04  0.12943093300E+04  0.00000000000E+00 0. -1.
          2   -1    0    0  501    0  0.00000000000E+00 -0.00000000000E+00 -0.32289302917E+04  0.32289302917E+04  0.00000000000E+00 0.  1.
         23    2    1    2    0    0 -0.52967930589E+03 -0.42740675839E+03 -0.30991432197E+04  0.31744072402E+04  0.94530030102E+02 0.  0.
         11    1    3    3    0    0 -0.45923319487E+03 -0.38776839487E+03 -0.25855560337E+04  0.26544979674E+04  0.00000000000E+00 0. -1.
        -11    1    3    3    0    0 -0.70446111020E+02 -0.39638363520E+02 -0.51358718598E+03  0.51990927288E+03  0.00000000000E+00 0.  1.
         22    1    1    2    0    0  0.52967930589E+03  0.42740675839E+03  0.11645222579E+04  0.13488323815E+04  0.00000000000E+00 0. -1.
<mgrwt>
<rscale>  0 0.40886353E+04</rscale>
<asrwt>0</asrwt>
<pdfrwt beam="1">  1        2 0.49675850E+00 0.40886353E+04</pdfrwt>
<pdfrwt beam="2">  1       -2 0.19912451E+00 0.40886353E+04</pdfrwt>
<totfact> 0.13090637E-01</totfact>
</mgrwt>
</event>
<event>
 6    1  0.2236204E-005  0.6979332E+03  0.7818608E-02  0.9720773E-01
         -1   -1    0    0    0  501 -0.00000000000E+00  0.00000000000E+00  0.14722921190E+03  0.14722921190E+03  0.00000000000E+00 0.  1.
          1   -1    0    0  501    0  0.00000000000E+00 -0.00000000000E+00 -0.82712997690E+03  0.82712997690E+03  0.00000000000E+00 0. -1.
         23    2    1    2    0    0  0.12151084526E+02  0.27617296581E+02 -0.82283189955E+03  0.82827813886E+03  0.89899813519E+02 0.  0.
         13    1    3    3    0    0 -0.23346274825E+02  0.40675839086E+02 -0.63177154899E+03  0.63350995458E+03  0.00000000000E+00 0.  1.
        -13    1    3    3    0    0  0.35497359351E+02 -0.13058542505E+02 -0.19106035056E+03  0.19476818428E+03  0.00000000000E+00 0. -1.
         22    1    1    2    0    0 -0.12151084526E+02 -0.27617296581E+02  0.14293113456E+03  0.14608104994E+03  0.00000000000E+00 0.  1.
<mgrwt>
<rscale>  0 0.69793322E+03</rscale>
<asrwt>0</asrwt>
<pdfrwt beam="1">  1        1 0.12725076E+00 0.69793322E+03</pdfrwt>
<pdfrwt beam="2">  1       -1 0.22650648E-01 0.69793322E+03</pdfrwt>
<totfact> 0.35116509E+02</totfact>
</mgrwt>
</event>
<event>
 6    1  0.2236204E-005  0.1000829E+04  0.7818608E-02  0.9307636E-01
         -2   -1    0    0    0  501 -0.00000000000E+00  0.00000000000E+00  0.38412122625E+03  0.38412122625E+03  0.00000000000E+00 0.  1.
          2   -1    0    0  501    0  0.00000000000E+00 -0.00000000000E+00 -0.65191604753E+03  0.65191604753E+03  0.00000000000E+00 0. -1.
         23    2    1    2    0    0 -0.34934735535E+03  0.18413760518E+03 -0.44610645007E+03  0.60274145186E+03  0.91302029892E+02 0.  0.
         13    1    3    3    0    0 -0.17904963061E+03  0.11463194256E+03 -0.30073708221E+03  0.36829613776E+03  0.00000000000E+00 0. -1.
        -13    1    3    3    0    0 -0.17029772474E+03  0.69505662624E+02 -0.14536936786E+03  0.23444531409E+03  0.00000000000E+00 0.  1.
         22    1    1    2    0    0  0.34934735535E+03 -0.18413760518E+03  0.17831162879E+03  0.43329582192E+03  0.00000000000E+00 0. -1.
<mgrwt>
<rscale>  0 0.10008292E+04</rscale>
<asrwt>0</asrwt>
<pdfrwt beam="1">  1        2 0.10029478E+00 0.10008292E+04</pdfrwt>
<pdfrwt beam="2">  1       -2 0.59095573E-01 0.10008292E+04</pdfrwt>
<totfact> 0.11967823E+02</totfact>
</mgrwt>
</event>
<event>
 6    1  0.2236204E-005  0.3832668E+04  0.7818608E-02  0.8039180E-01
         -2   -1    0    0    0  501 -0.00000000000E+00  0.00000000000E+00  0.18311156002E+04  0.18311156002E+04  0.00000000000E+00 0.  1.
          2   -1    0    0  501    0  0.00000000000E+00 -0.00000000000E+00 -0.20055186834E+04  0.20055186834E+04  0.00000000000E+00 0. -1.
         23    2    1    2    0    0 -0.55205539127E+03 -0.73984580064E+03  0.15925967956E+04  0.18430381520E+04  0.91039072846E+02 0.  0.
         11    1    3    3    0    0 -0.89796663759E+02 -0.12104751711E+03  0.19807115621E+03  0.24889380294E+03  0.00000000000E+00 0.  1.
        -11    1    3    3    0    0 -0.46225872751E+03 -0.61879828353E+03  0.13945256394E+04  0.15941443491E+04  0.00000000000E+00 0. -1.
         22    1    1    2    0    0  0.55205539127E+03  0.73984580064E+03 -0.17669998789E+04  0.19935961315E+04  0.00000000000E+00 0. -1.
<mgrwt>
<rscale>  0 0.38326683E+04</rscale>
<asrwt>0</asrwt>
<pdfrwt beam="1">  1        2 0.30854134E+00 0.38326683E+04</pdfrwt>
<pdfrwt beam="2">  1       -2 0.28171009E+00 0.38326683E+04</pdfrwt>
<totfact> 0.21812094E-01</totfact>
</mgrwt>
</event>
<event>
 6    1  0.2236204E-005  0.3617489E+04  0.7818608E-02  0.8086497E-01
         -2   -1    0    0    0  501 -0.00000000000E+00  0.00000000000E+00  0.14517911885E+04  0.14517911885E+04  0.00000000000E+00 0.  1.
          2   -1    0    0  501    0  0.00000000000E+00 -0.00000000000E+00 -0.22534627346E+04  0.22534627346E+04  0.00000000000E+00 0. -1.
         23    2    1    2    0    0  0.16052448078E+04 -0.44848595524E+03  0.31545908864E+03  0.16987815460E+04  0.91617461504E+02 0.  0.
         11    1    3    3    0    0  0.12615945659E+03 -0.12236118554E+02  0.33935023262E+02  0.13121553600E+03  0.00000000000E+00 0.  1.
        -11    1    3    3    0    0  0.14790853513E+04 -0.43624983669E+03  0.28152406538E+03  0.15675660100E+04  0.00000000000E+00 0. -1.
         22    1    1    2    0    0 -0.16052448078E+04  0.44848595524E+03 -0.11171306347E+04  0.20064723771E+04  0.00000000000E+00 0. -1.
<mgrwt>
<rscale>  0 0.36174894E+04</rscale>
<asrwt>0</asrwt>
<pdfrwt beam="1">  1        2 0.34668657E+00 0.36174894E+04</pdfrwt>
<pdfrwt beam="2">  1       -2 0.22335249E+00 0.36174894E+04</pdfrwt>
<totfact> 0.36905532E-01</totfact>
</mgrwt>
</event>
<event>
 6    1  0.2236204E-005  0.4624475E+04  0.7818608E-02  0.7889200E-01
          2   -1    0    0  501    0  0.00000000000E+00  0.00000000000E+00  0.20611640149E+04  0.20611640149E+04  0.00000000000E+00 0. -1.
         -2   -1    0    0    0  501 -0.00000000000E+00 -0.00000000000E+00 -0.25938943676E+04  0.25938943676E+04  0.00000000000E+00 0.  1.
         23    2    1    2    0    0 -0.13643106335E+04  0.18643007037E+04 -0.34007523594E+03  0.23368529101E+04  0.90938104102E+02 0.  0.
         11    1    3    3    0    0 -0.10640196811E+04  0.14355842771E+04 -0.29978757922E+03  0.18118809814E+04  0.00000000000E+00 0. -1.
        -11    1    3    3    0    0 -0.30029095242E+03  0.42871642667E+03 -0.40287656725E+02  0.52497192866E+03  0.00000000000E+00 0.  1.
         22    1    1    2    0    0  0.13643106335E+04 -0.18643007037E+04 -0.19265511674E+03  0.23182054725E+04  0.00000000000E+00 0.  1.
<mgrwt>
<rscale>  0 0.46244748E+04</rscale>
<asrwt>0</asrwt>
<pdfrwt beam="1">  1        2 0.31710216E+00 0.46244748E+04</pdfrwt>
<pdfrwt beam="2">  1       -2 0.39906067E+00 0.46244748E+04</pdfrwt>
<totfact> 0.34890831E-02</totfact>
</mgrwt>
</event>
<event>
 6    1  0.2800715E-005  0.2618608E+04  0.7818608E-02  0.8361908E-01
          2   -1    0    0  501    0  0.00000000000E+00  0.00000000000E+00  0.10803082760E+04  0.10803082760E+04  0.00000000000E+00 0. -1.
         -2   -1    0    0    0  501 -0.00000000000E+00 -0.00000000000E+00 -0.15868401808E+04  0.15868401808E+04  0.00000000000E+00 0.  1.
         23    2    1    2    0    0 -0.12168573066E+04 -0.35935175731E+03 -0.57636868200E+03  0.13964193097E+04  0.88941782971E+02 0.  0.
         11    1    3    3    0    0 -0.58865309414E+03 -0.13192118563E+03 -0.29422869272E+03  0.67118267862E+03  0.00000000000E+00 0.  1.
        -11    1    3    3    0    0 -0.62820421245E+03 -0.22743057167E+03 -0.28213998928E+03  0.72523663105E+03  0.00000000000E+00 0. -1.
         22    1    1    2    0    0  0.12168573066E+04  0.35935175731E+03  0.69836777162E+02  0.12707291472E+04  0.00000000000E+00 0. -1.
<mgrwt>
<rscale>  0 0.26186077E+04</rscale>
<asrwt>0</asrwt>
<pdfrwt beam="1">  1        2 0.16620127E+00 0.26186077E+04</pdfrwt>
<pdfrwt beam="2">  1       -2 0.24412926E+00 0.26186077E+04</pdfrwt>
<totfact> 0.13821631E+00</totfact>
</mgrwt>
</event>
<event>
 6    1  0.2236204E-005  0.3827062E+04  0.7818608E-02  0.8040372E-01
          2   -1    0    0  501    0  0.00000000000E+00  0.00000000000E+00  0.23972943972E+04  0.23972943972E+04  0.00000000000E+00 0.  1.
         -2   -1    0    0    0  501 -0.00000000000E+00 -0.00000000000E+00 -0.15273893085E+04  0.15273893085E+04  0.00000000000E+00 0. -1.
         23    2    1    2    0    0 -0.13298494313E+04  0.47470600762E+03 -0.88782441192E+03  0.16700311157E+04  0.83225221544E+02 0.  0.
         11    1    3    3    0    0 -0.43729207302E+03  0.19791381700E+03 -0.30255873092E+03  0.56739406213E+03  0.00000000000E+00 0. -1.
        -11    1    3    3    0    0 -0.89255735831E+03  0.27679219062E+03 -0.58526568099E+03  0.11026370536E+04  0.00000000000E+00 0.  1.
         22    1    1    2    0    0  0.13298494313E+04 -0.47470600762E+03  0.17577295006E+04  0.22546525899E+04  0.00000000000E+00 0.  1.
<mgrwt>
<rscale>  0 0.38270625E+04</rscale>
<asrwt>0</asrwt>
<pdfrwt beam="1">  1        2 0.36881452E+00 0.38270625E+04</pdfrwt>
<pdfrwt beam="2">  1       -2 0.23498297E+00 0.38270625E+04</pdfrwt>
<totfact> 0.25404043E-01</totfact>
</mgrwt>
</event>
<event>
 6    1  0.2236204E-005  0.1232757E+04  0.7818608E-02  0.9084658E-01
          2   -1    0    0  501    0  0.00000000000E+00  0.00000000000E+00  0.11683752663E+04  0.11683752663E+04  0.00000000000E+00 0. -1.
         -2   -1    0    0    0  501 -0.00000000000E+00 -0.00000000000E+00 -0.32517140979E+03  0.32517140979E+03  0.00000000000E+00 0.  1.
         23    2    1    2    0    0  0.35331469630E+02  0.49049844737E+03  0.86709926700E+03  0.10011971759E+04  0.93260959897E+02 0.  0.
         11    1    3    3    0    0 -0.25231684512E+02  0.11839535240E+03  0.17017680237E+03  0.20884022945E+03  0.00000000000E+00 0.  1.
        -11    1    3    3    0    0  0.60563154142E+02  0.37210309497E+03  0.69692246463E+03  0.79235694647E+03  0.00000000000E+00 0. -1.
         22    1    1    2    0    0 -0.35331469630E+02 -0.49049844737E+03 -0.23895410528E+02  0.49234950011E+03  0.00000000000E+00 0.  1.
<mgrwt>
<rscale>  0 0.12327566E+04</rscale>
<asrwt>0</asrwt>
<pdfrwt beam="1">  1        2 0.17975004E+00 0.12327566E+04</pdfrwt>
<pdfrwt beam="2">  1       -2 0.50026371E-01 0.12327566E+04</pdfrwt>
<totfact> 0.73635877E+01</totfact>
</mgrwt>
</event>
<event>
 6    1  0.2236204E-005  0.3291585E+04  0.7818608E-02  0.8165040E-01
          2   -1    0    0  501    0  0.00000000000E+00  0.00000000000E+00  0.29193212929E+04  0.29193212929E+04  0.00000000000E+00 0. -1.
         -2   -1    0    0    0  501 -0.00000000000E+00 -0.00000000000E+00 -0.92782976172E+03  0.92782976172E+03  0.00000000000E+00 0.  1.
         23    2    1    2    0    0 -0.39429025803E+03  0.84339177157E+03 -0.58819072750E+03  0.11046093423E+04  0.86133497012E+02 0.  0.
         13    1    3    3    0    0 -0.19555543255E+03  0.36617338744E+03 -0.21883188308E+03  0.46926780192E+03  0.00000000000E+00 0. -1.
        -13    1    3    3    0    0 -0.19873482548E+03  0.47721838413E+03 -0.36935884443E+03  0.63534154041E+03  0.00000000000E+00 0.  1.
         22    1    1    2    0    0  0.39429025803E+03 -0.84339177157E+03  0.25796822587E+04  0.27425417123E+04  0.00000000000E+00 0. -1.
<mgrwt>
<rscale>  0 0.32915851E+04</rscale>
<asrwt>0</asrwt>
<pdfrwt beam="1">  1        2 0.44912635E+00 0.32915851E+04</pdfrwt>
<pdfrwt beam="2">  1       -2 0.14274304E+00 0.32915851E+04</pdfrwt>
<totfact> 0.55744273E-01</totfact>
</mgrwt>
</event>
<event>
 6    1  0.2236204E-005  0.1787932E+04  0.7818608E-02  0.8712744E-01
         -2   -1    0    0    0  501 -0.00000000000E+00  0.00000000000E+00  0.31194079964E+03  0.31194079964E+03  0.00000000000E+00 0.  1.
          2   -1    0    0  501    0  0.00000000000E+00 -0.00000000000E+00 -0.25619445014E+04  0.25619445014E+04  0.00000000000E+00 0. -1.
         23    2    1    2    0    0  0.69127711275E+02  0.15282354738E+03 -0.25354319933E+04  0.25428218830E+04  0.96922954544E+02 0.  0.
         11    1    3    3    0    0  0.73013777135E+02  0.60998425641E+02 -0.95738251325E+03  0.96209827786E+03  0.00000000000E+00 0. -1.
        -11    1    3    3    0    0 -0.38860658606E+01  0.91825121743E+02 -0.15780494801E+04  0.15807236052E+04  0.00000000000E+00 0.  1.
         22    1    1    2    0    0 -0.69127711275E+02 -0.15282354738E+03  0.28542829156E+03  0.33106341798E+03  0.00000000000E+00 0.  1.
<mgrwt>
<rscale>  0 0.17879318E+04</rscale>
<asrwt>0</asrwt>
<pdfrwt beam="1">  1        2 0.39414531E+00 0.17879318E+04</pdfrwt>
<pdfrwt beam="2">  1       -2 0.47990891E-01 0.17879318E+04</pdfrwt>
<totfact> 0.12472062E+01</totfact>
</mgrwt>
</event>
<event>
 6    1  0.2236204E-005  0.4126504E+03  0.7818608E-02  0.1039485E+00
          2   -1    0    0  501    0  0.00000000000E+00  0.00000000000E+00  0.89735142614E+03  0.89735142614E+03  0.00000000000E+00 0. -1.
         -2   -1    0    0    0  501 -0.00000000000E+00 -0.00000000000E+00 -0.47439704106E+02  0.47439704106E+02  0.00000000000E+00 0.  1.
         23    2    1    2    0    0 -0.10549450745E+03 -0.21081311502E+02  0.82119834929E+03  0.83344495577E+03  0.93221524464E+02 0.  0.
         11    1    3    3    0    0 -0.11463451618E+02 -0.43079203336E+02  0.21158147300E+03  0.21622661307E+03  0.00000000000E+00 0.  1.
        -11    1    3    3    0    0 -0.94031055829E+02  0.21997891834E+02  0.60961687629E+03  0.61721834270E+03  0.00000000000E+00 0. -1.
         22    1    1    2    0    0  0.10549450745E+03  0.21081311502E+02  0.28713372741E+02  0.11134617447E+03  0.00000000000E+00 0.  1.
<mgrwt>
<rscale>  0 0.41265039E+03</rscale>
<asrwt>0</asrwt>
<pdfrwt beam="1">  1        2 0.13805405E+00 0.41265039E+03</pdfrwt>
<pdfrwt beam="2">  1       -2 0.72984167E-02 0.41265039E+03</pdfrwt>
<totfact> 0.33452995E+03</totfact>
</mgrwt>
</event>
<event>
 6    1  0.2236204E-005  0.3500799E+04  0.7818608E-02  0.8113601E-01
         -2   -1    0    0    0  501 -0.00000000000E+00  0.00000000000E+00  0.11242922843E+04  0.11242922843E+04  0.00000000000E+00 0. -1.
          2   -1    0    0  501    0  0.00000000000E+00 -0.00000000000E+00 -0.27251796329E+04  0.27251796329E+04  0.00000000000E+00 0.  1.
         23    2    1    2    0    0 -0.42063378243E+03 -0.14861567911E+04 -0.17038106227E+04  0.23015093896E+04  0.91542590169E+02 0.  0.
         11    1    3    3    0    0 -0.67934752619E+02 -0.37056152362E+03 -0.44010656779E+03  0.57933130799E+03  0.00000000000E+00 0.  1.
        -11    1    3    3    0    0 -0.35269902981E+03 -0.11155952674E+04 -0.12637040549E+04  0.17221780816E+04  0.00000000000E+00 0. -1.
         22    1    1    2    0    0  0.42063378243E+03  0.14861567911E+04  0.10292327418E+03  0.15479625276E+04  0.00000000000E+00 0. -1.
<mgrwt>
<rscale>  0 0.35007990E+04</rscale>
<asrwt>0</asrwt>
<pdfrwt beam="1">  1        2 0.41925840E+00 0.35007990E+04</pdfrwt>
<pdfrwt beam="2">  1       -2 0.17296804E+00 0.35007990E+04</pdfrwt>
<totfact> 0.42784020E-01</totfact>
</mgrwt>
</event>
<event>
 6    1  0.2236204E-005  0.4000040E+04  0.7818608E-02  0.8004538E-01
          1   -1    0    0  501    0  0.00000000000E+00  0.00000000000E+00  0.24098864358E+04  0.24098864358E+04  0.00000000000E+00 0. -1.
         -1   -1    0    0    0  501 -0.00000000000E+00 -0.00000000000E+00 -0.16598627229E+04  0.16598627229E+04  0.00000000000E+00 0.  1.
         23    2    1    2    0    0  0.80253250562E+03 -0.14164557856E+04  0.15553472730E+04  0.22534475726E+04  0.92278967449E+02 0.  0.
         13    1    3    3    0    0  0.66429373216E+03 -0.12358564487E+04  0.13293257622E+04  0.19328047771E+04  0.00000000000E+00 0. -1.
        -13    1    3    3    0    0  0.13823877346E+03 -0.18059933693E+03  0.22602151071E+03  0.32064279547E+03  0.00000000000E+00 0.  1.
         22    1    1    2    0    0 -0.80253250562E+03  0.14164557856E+04 -0.80532356006E+03  0.18163015861E+04  0.00000000000E+00 0.  1.
<mgrwt>
<rscale>  0 0.40000403E+04</rscale>
<asrwt>0</asrwt>
<pdfrwt beam="1">  1        1 0.37075176E+00 0.40000403E+04</pdfrwt>
<pdfrwt beam="2">  1       -1 0.25536350E+00 0.40000403E+04</pdfrwt>
<totfact> 0.78731696E-02</totfact>
</mgrwt>
</event>
<event>
 6    1  0.2236204E-005  0.1916745E+04  0.7818608E-02  0.8646566E-01
         -2   -1    0    0    0  501 -0.00000000000E+00  0.00000000000E+00  0.35082275811E+03  0.35082275811E+03  0.00000000000E+00 0.  1.
          2   -1    0    0  501    0  0.00000000000E+00 -0.00000000000E+00 -0.26180688829E+04  0.26180688829E+04  0.00000000000E+00 0. -1.
         23    2    1    2    0    0 -0.43644611925E+03  0.85065450867E+03 -0.10975438738E+04  0.14581627891E+04  0.86820829132E+02 0.  0.
         11    1    3    3    0    0 -0.11701546531E+03  0.28017313792E+03 -0.39874661254E+03  0.50118705824E+03  0.00000000000E+00 0. -1.
        -11    1    3    3    0    0 -0.31943065393E+03  0.57048137076E+03 -0.69879726130E+03  0.95697573086E+03  0.00000000000E+00 0.  1.
         22    1    1    2    0    0  0.43644611925E+03 -0.85065450867E+03 -0.11697022509E+04  0.15107288519E+04  0.00000000000E+00 0.  1.
<mgrwt>
<rscale>  0 0.19167453E+04</rscale>
<asrwt>0</asrwt>
<pdfrwt beam="1">  1        2 0.40277984E+00 0.19167453E+04</pdfrwt>
<pdfrwt beam="2">  1       -2 0.53972731E-01 0.19167453E+04</pdfrwt>
<totfact> 0.89907723E+00</totfact>
</mgrwt>
</event>
<event>
 6    1  0.2236204E-005  0.1410224E+04  0.7818608E-02  0.8946451E-01
         -2   -1    0    0    0  501 -0.00000000000E+00  0.00000000000E+00  0.49630661318E+03  0.49630661318E+03  0.00000000000E+00 0.  1.
          2   -1    0    0  501    0  0.00000000000E+00 -0.00000000000E+00 -0.10017651010E+04  0.10017651010E+04  0.00000000000E+00 0. -1.
         23    2    1    2    0    0 -0.41537290029E+03  0.10466753843E+03 -0.84474349584E+03  0.95162477572E+03  0.92239905137E+02 0.  0.
         13    1    3    3    0    0 -0.11586242262E+03  0.40763252809E+02 -0.33683925566E+03  0.35853371935E+03  0.00000000000E+00 0.  1.
        -13    1    3    3    0    0 -0.29951047767E+03  0.63904285619E+02 -0.50790424018E+03  0.59309105637E+03  0.00000000000E+00 0. -1.
         22    1    1    2    0    0  0.41537290029E+03 -0.10466753843E+03  0.33928500801E+03  0.54644693846E+03  0.00000000000E+00 0.  1.
<mgrwt>
<rscale>  0 0.14102236E+04</rscale>
<asrwt>0</asrwt>
<pdfrwt beam="1">  1        2 0.15411771E+00 0.14102236E+04</pdfrwt>
<pdfrwt beam="2">  1       -2 0.76354864E-01 0.14102236E+04</pdfrwt>
<totfact> 0.37503157E+01</totfact>
</mgrwt>
</event>
<event>
 6    1  0.2236204E-005  0.3576517E+04  0.7818608E-02  0.8095892E-01
          1   -1    0    0  501    0  0.00000000000E+00  0.00000000000E+00  0.21845037160E+04  0.21845037160E+04  0.00000000000E+00 0. -1.
         -1   -1    0    0    0  501 -0.00000000000E+00 -0.00000000000E+00 -0.14638875720E+04  0.14638875720E+04  0.00000000000E+00 0.  1.
         23    2    1    2    0    0  0.15777021644E+04 -0.41638494699E+03 -0.38373029261E+03  0.16780863381E+04  0.78767233223E+02 0.  0.
         13    1    3    3    0    0  0.68631994458E+03 -0.19592797052E+03 -0.20522164804E+03  0.74265655641E+03  0.00000000000E+00 0.  1.
        -13    1    3    3    0    0  0.89138221978E+03 -0.22045697647E+03 -0.17850864457E+03  0.93542978165E+03  0.00000000000E+00 0. -1.
         22    1    1    2    0    0 -0.15777021644E+04  0.41638494699E+03  0.11043464366E+04  0.19703049499E+04  0.00000000000E+00 0. -1.
<mgrwt>
<rscale>  0 0.35765167E+04</rscale>
<asrwt>0</asrwt>
<pdfrwt beam="1">  1        1 0.33607749E+00 0.35765167E+04</pdfrwt>
<pdfrwt beam="2">  1       -1 0.22521347E+00 0.35765167E+04</pdfrwt>
<totfact> 0.18379841E-01</totfact>
</mgrwt>
</event>
<event>
 6    1  0.2236204E-005  0.3087762E+04  0.7818608E-02  0.8219105E-01
          1   -1    0    0  501    0  0.00000000000E+00  0.00000000000E+00  0.12438764008E+04  0.12438764008E+04  0.00000000000E+00 0. -1.
         -1   -1    0    0    0  501 -0.00000000000E+00 -0.00000000000E+00 -0.19162417147E+04  0.19162417147E+04  0.00000000000E+00 0.  1.
         23    2    1    2    0    0 -0.42416359941E+03 -0.14816088091E+04 -0.40459200192E+03  0.15958988314E+04  0.90105326979E+02 0.  0.
         11    1    3    3    0    0 -0.10530073428E+03 -0.24568689371E+03 -0.75706269738E+02  0.27781600684E+03  0.00000000000E+00 0. -1.
        -11    1    3    3    0    0 -0.31886286513E+03 -0.12359219154E+04 -0.32888573218E+03  0.13180828246E+04  0.00000000000E+00 0.  1.
         22    1    1    2    0    0  0.42416359941E+03  0.14816088091E+04 -0.26777331202E+03  0.15642192841E+04  0.00000000000E+00 0. -1.
<mgrwt>
<rscale>  0 0.30877615E+04</rscale>
<asrwt>0</asrwt>
<pdfrwt beam="1">  1        1 0.19136560E+00 0.30877615E+04</pdfrwt>
<pdfrwt beam="2">  1       -1 0.29480642E+00 0.30877615E+04</pdfrwt>
<totfact> 0.29923352E-01</totfact>
</mgrwt>
</event>
<event>
 6    1  0.2236204E-005  0.1076170E+04  0.7818608E-02  0.9228735E-01
         -2   -1    0    0    0  501 -0.00000000000E+00  0.00000000000E+00  0.45726025188E+03  0.45726025188E+03  0.00000000000E+00 0.  1.
          2   -1    0    0  501    0  0.00000000000E+00 -0.00000000000E+00 -0.63319598410E+03  0.63319598410E+03  0.00000000000E+00 0. -1.
         23    2    1    2    0    0 -0.31327815816E+03  0.41819534723E+03 -0.20156084719E+03  0.56730501564E+03  0.90430375604E+02 0.  0.
         13    1    3    3    0    0 -0.30359864693E+02  0.24027062205E+02 -0.40622045275E+02  0.56117480919E+02  0.00000000000E+00 0.  1.
        -13    1    3    3    0    0 -0.28291829346E+03  0.39416828503E+03 -0.16093880191E+03  0.51118753472E+03  0.00000000000E+00 0. -1.
         22    1    1    2    0    0  0.31327815816E+03 -0.41819534723E+03  0.25625114969E+02  0.52315122034E+03  0.00000000000E+00 0.  1.
<mgrwt>
<rscale>  0 0.10761698E+04</rscale>
<asrwt>0</asrwt>
<pdfrwt beam="1">  1        2 0.97414766E-01 0.10761698E+04</pdfrwt>
<pdfrwt beam="2">  1       -2 0.70347732E-01 0.10761698E+04</pdfrwt>
<totfact> 0.84962368E+01</totfact>
</mgrwt>
</event>
<event>
 6    1  0.2236204E-005  0.1881165E+04  0.7818608E-02  0.8664289E-01
          2   -1    0    0  501    0  0.00000000000E+00  0.00000000000E+00  0.69812084002E+03  0.69812084002E+03  0.00000000000E+00 0. -1.
         -2   -1    0    0    0  501 -0.00000000000E+00 -0.00000000000E+00 -0.12672532488E+04  0.12672532488E+04  0.00000000000E+00 0.  1.
         23    2    1    2    0    0 -0.79759324177E+03  0.18326266728E+03  0.19432902026E+03  0.84617190060E+03  0.92211348046E+02 0.  0.
         13    1    3    3    0    0 -0.31874040804E+03  0.27160395971E+02  0.76930707346E+02  0.32901590928E+03  0.00000000000E+00 0. -1.
        -13    1    3    3    0    0 -0.47885283372E+03  0.15610227131E+03  0.11739831292E+03  0.51715599131E+03  0.00000000000E+00 0.  1.
         22    1    1    2    0    0  0.79759324177E+03 -0.18326266728E+03 -0.76346142908E+03  0.11192021883E+04  0.00000000000E+00 0.  1.
<mgrwt>
<rscale>  0 0.18811655E+04</rscale>
<asrwt>0</asrwt>
<pdfrwt beam="1">  1        2 0.10740321E+00 0.18811655E+04</pdfrwt>
<pdfrwt beam="2">  1       -2 0.19496204E+00 0.18811655E+04</pdfrwt>
<totfact> 0.55337988E+00</totfact>
</mgrwt>
</event>
<event>
 6    1  0.2236204E-005  0.3020403E+04  0.7818608E-02  0.8237928E-01
         -2   -1    0    0    0  501 -0.00000000000E+00  0.00000000000E+00  0.11763577911E+04  0.11763577911E+04  0.00000000000E+00 0.  1.
          2   -1    0    0  501    0  0.00000000000E+00 -0.00000000000E+00 -0.19387887815E+04  0.19387887815E+04  0.00000000000E+00 0. -1.
         23    2    1    2    0    0 -0.58658948195E+03  0.43051139361E+03 -0.17448012289E+04  0.18926578954E+04  0.91625871110E+02 0.  0.
         13    1    3    3    0    0 -0.41511447874E+03  0.25774374591E+03 -0.11100102351E+04  0.12127961869E+04  0.00000000000E+00 0. -1.
        -13    1    3    3    0    0 -0.17147500321E+03  0.17276764771E+03 -0.63479099380E+03  0.67986170846E+03  0.00000000000E+00 0.  1.
         22    1    1    2    0    0  0.58658948195E+03 -0.43051139361E+03  0.98237023848E+03  0.12224886772E+04  0.00000000000E+00 0.  1.
<mgrwt>
<rscale>  0 0.30204035E+04</rscale>
<asrwt>0</asrwt>
<pdfrwt beam="1">  1        2 0.29827519E+00 0.30204035E+04</pdfrwt>
<pdfrwt beam="2">  1       -2 0.18097812E+00 0.30204035E+04</pdfrwt>
<totfact> 0.11025640E+00</totfact>
</mgrwt>
</event>
<event>
 6    1  0.2236204E-005  0.9620868E+03  0.7818608E-02  0.9351133E-01
          2   -1    0    0  501    0  0.00000000000E+00  0.00000000000E+00  0.42464250185E+03  0.42464250185E+03  0.00000000000E+00 0. -1.
         -2   -1    0    0    0  501 -0.00000000000E+00 -0.00000000000E+00 -0.54493544327E+03  0.54493544327E+03  0.00000000000E+00 0.  1.
         23    2    1    2    0    0  0.16943869783E+03  0.20563232193E+03  0.33698169387E+03  0.44033866443E+03  0.96681710994E+02 0.  0.
         13    1    3    3    0    0  0.14597542872E+03  0.10695925914E+03  0.23380730024E+03  0.29566021469E+03  0.00000000000E+00 0. -1.
        -13    1    3    3    0    0  0.23463269115E+02  0.98673062786E+02  0.10317439363E+03  0.14467844974E+03  0.00000000000E+00 0.  1.
         22    1    1    2    0    0 -0.16943869783E+03 -0.20563232193E+03 -0.45727463529E+03  0.52923928069E+03  0.00000000000E+00 0.  1.
<mgrwt>
<rscale>  0 0.96208679E+03</rscale>
<asrwt>0</asrwt>
<pdfrwt beam="1">  1        2 0.65329616E-01 0.96208679E+03</pdfrwt>
<pdfrwt beam="2">  1       -2 0.83836222E-01 0.96208679E+03</pdfrwt>
<totfact> 0.92480228E+01</totfact>
</mgrwt>
</event>
<event>
 6    1  0.2236204E-005  0.5203488E+03  0.7818608E-02  0.1008600E+00
          2   -1    0    0  501    0  0.00000000000E+00  0.00000000000E+00  0.26949666932E+04  0.26949666932E+04  0.00000000000E+00 0. -1.
         -2   -1    0    0    0  501 -0.00000000000E+00 -0.00000000000E+00 -0.25117455432E+02  0.25117455432E+02  0.00000000000E+00 0.  1.
         23    2    1    2    0    0  0.16330262102E+03 -0.16544540621E+03  0.18865270806E+04  0.19029957015E+04  0.91478334960E+02 0.  0.
         13    1    3    3    0    0  0.14090436286E+03 -0.82174308291E+02  0.12885305888E+04  0.12988139723E+04  0.00000000000E+00 0. -1.
        -13    1    3    3    0    0  0.22398258152E+02 -0.83271097918E+02  0.59799649179E+03  0.60418172921E+03  0.00000000000E+00 0.  1.
         22    1    1    2    0    0 -0.16330262102E+03  0.16544540621E+03  0.78332215718E+03  0.81708844711E+03  0.00000000000E+00 0.  1.
<mgrwt>
<rscale>  0 0.52034875E+03</rscale>
<asrwt>0</asrwt>
<pdfrwt beam="1">  1        2 0.41461003E+00 0.52034875E+03</pdfrwt>
<pdfrwt beam="2">  1       -2 0.38642260E-02 0.52034875E+03</pdfrwt>
<totfact> 0.87621516E+02</totfact>
</mgrwt>
</event>
<event>
 6    1  0.2236204E-005  0.2289135E+04  0.7818608E-02  0.8482217E-01
         -2   -1    0    0    0  501 -0.00000000000E+00  0.00000000000E+00  0.29602738181E+03  0.29602738181E+03  0.00000000000E+00 0.  1.
          2   -1    0    0  501    0  0.00000000000E+00 -0.00000000000E+00 -0.44253844390E+04  0.44253844390E+04  0.00000000000E+00 0. -1.
         23    2    1    2    0    0  0.79392597488E+03 -0.54008196646E+03 -0.79226885409E+03  0.12489250088E+04  0.10058208812E+03 0.  0.
         13    1    3    3    0    0  0.28882364965E+03 -0.17726095585E+03 -0.22187028515E+03  0.40505181211E+03  0.00000000000E+00 0. -1.
        -13    1    3    3    0    0  0.50510232523E+03 -0.36282101061E+03 -0.57039856894E+03  0.84387319672E+03  0.00000000000E+00 0.  1.
         22    1    1    2    0    0 -0.79392597488E+03  0.54008196646E+03 -0.33370882031E+04  0.34724868120E+04  0.00000000000E+00 0. -1.
<mgrwt>
<rscale>  0 0.22891352E+04</rscale>
<asrwt>0</asrwt>
<pdfrwt beam="1">  1        2 0.68082837E+00 0.22891352E+04</pdfrwt>
<pdfrwt beam="2">  1       -2 0.45542674E-01 0.22891352E+04</pdfrwt>
<totfact> 0.60808740E-01</totfact>
</mgrwt>
</event>
<event>
 6    1  0.2236204E-005  0.2276074E+04  0.7818608E-02  0.8487415E-01
         -2   -1    0    0    0  501 -0.00000000000E+00  0.00000000000E+00  0.95346779909E+03  0.95346779909E+03  0.00000000000E+00 0.  1.
          2   -1    0    0  501    0  0.00000000000E+00 -0.00000000000E+00 -0.13583350942E+04  0.13583350942E+04  0.00000000000E+00 0. -1.
         23    2    1    2    0    0 -0.51725063490E+03 -0.80959213317E+03  0.41386127683E+03  0.10495413847E+04  0.85254445296E+02 0.  0.
         13    1    3    3    0    0 -0.25012146502E+03 -0.46925637900E+03  0.22092915281E+03  0.57582287820E+03  0.00000000000E+00 0. -1.
        -13    1    3    3    0    0 -0.26712916988E+03 -0.34033575417E+03  0.19293212402E+03  0.47371850655E+03  0.00000000000E+00 0.  1.
         22    1    1    2    0    0  0.51725063490E+03  0.80959213317E+03 -0.81872857189E+03  0.12622615085E+04  0.00000000000E+00 0. -1.
<mgrwt>
<rscale>  0 0.22760745E+04</rscale>
<asrwt>0</asrwt>
<pdfrwt beam="1">  1        2 0.20897463E+00 0.22760745E+04</pdfrwt>
<pdfrwt beam="2">  1       -2 0.14668735E+00 0.22760745E+04</pdfrwt>
<totfact> 0.44157792E+00</totfact>
</mgrwt>
</event>
<event>
 6    1  0.2236204E-005  0.3849617E+04  0.7818608E-02  0.8035590E-01
         -2   -1    0    0    0  501 -0.00000000000E+00  0.00000000000E+00  0.17328965764E+04  0.17328965764E+04  0.00000000000E+00 0.  1.
          2   -1    0    0  501    0  0.00000000000E+00 -0.00000000000E+00 -0.21379743900E+04  0.21379743900E+04  0.00000000000E+00 0. -1.
         23    2    1    2    0    0 -0.12631564404E+04  0.13438372327E+04 -0.75335524367E+03  0.19939692990E+04  0.83106806425E+02 0.  0.
         11    1    3    3    0    0 -0.37989720151E+03  0.45925218987E+03 -0.23322839015E+03  0.64002338987E+03  0.00000000000E+00 0. -1.
        -11    1    3    3    0    0 -0.88325923890E+03  0.88458504285E+03 -0.52012685352E+03  0.13539459091E+04  0.00000000000E+00 0.  1.
         22    1    1    2    0    0  0.12631564404E+04 -0.13438372327E+04  0.34827743007E+03  0.18769016675E+04  0.00000000000E+00 0. -1.
<mgrwt>
<rscale>  0 0.38496174E+04</rscale>
<asrwt>0</asrwt>
<pdfrwt beam="1">  1        2 0.32891914E+00 0.38496174E+04</pdfrwt>
<pdfrwt beam="2">  1       -2 0.26659947E+00 0.38496174E+04</pdfrwt>
<totfact> 0.22718500E-01</totfact>
</mgrwt>
</event>
<event>
 6    1  0.2236204E-005  0.2015511E+04  0.7818608E-02  0.8599403E-01
          2   -1    0    0  501    0  0.00000000000E+00  0.00000000000E+00  0.27523299906E+04  0.27523299906E+04  0.00000000000E+00 0.  1.
         -2   -1    0    0    0  501 -0.00000000000E+00 -0.00000000000E+00 -0.36898614591E+03  0.36898614591E+03  0.00000000000E+00 0. -1.
         23    2    1    2    0    0  0.56475914512E+03  0.14164275269E+03 -0.75632213424E+02  0.59434585260E+03  0.92256161883E+02 0.  0.
         11    1    3    3    0    0  0.27262452756E+03  0.77755858527E+02  0.87449704972E+01  0.28363106507E+03  0.00000000000E+00 0. -1.
        -11    1    3    3    0    0  0.29213461756E+03  0.63886894167E+02 -0.84377183921E+02  0.31071478753E+03  0.00000000000E+00 0.  1.
         22    1    1    2    0    0 -0.56475914512E+03 -0.14164275269E+03  0.24589760581E+04  0.25269702839E+04  0.00000000000E+00 0.  1.
<mgrwt>
<rscale>  0 0.20155115E+04</rscale>
<asrwt>0</asrwt>
<pdfrwt beam="1">  1        2 0.42343537E+00 0.20155115E+04</pdfrwt>
<pdfrwt beam="2">  1       -2 0.56767101E-01 0.20155115E+04</pdfrwt>
<totfact> 0.66804766E+00</totfact>
</mgrwt>
</event>
<event>
 6    1  0.2236204E-005  0.2713904E+04  0.7818608E-02  0.8330508E-01
         -2   -1    0    0    0  501 -0.00000000000E+00  0.00000000000E+00  0.10711778801E+04  0.10711778801E+04  0.00000000000E+00 0.  1.
          2   -1    0    0  501    0  0.00000000000E+00 -0.00000000000E+00 -0.17189668845E+04  0.17189668845E+04  0.00000000000E+00 0. -1.
         23    2    1    2    0    0 -0.11885200026E+04  0.63882529449E+03 -0.45605753188E+03  0.14272660058E+04  0.91772683930E+02 0.  0.
         11    1    3    3    0    0 -0.30541687632E+03  0.18181204749E+03 -0.15991222231E+03  0.38975249557E+03  0.00000000000E+00 0.  1.
        -11    1    3    3    0    0 -0.88310312631E+03  0.45701324699E+03 -0.29614530958E+03  0.10375135103E+04  0.00000000000E+00 0. -1.
         22    1    1    2    0    0  0.11885200026E+04 -0.63882529449E+03 -0.19173147246E+03  0.13628787588E+04  0.00000000000E+00 0.  1.
<mgrwt>
<rscale>  0 0.27139044E+04</rscale>
<asrwt>0</asrwt>
<pdfrwt beam="1">  1        2 0.26445645E+00 0.27139044E+04</pdfrwt>
<pdfrwt beam="2">  1       -2 0.16479660E+00 0.27139044E+04</pdfrwt>
<totfact> 0.19487706E+00</totfact>
</mgrwt>
</event>
<event>
 6    1  0.2236204E-005  0.3279494E+04  0.7818608E-02  0.8168133E-01
         -2   -1    0    0    0  501 -0.00000000000E+00  0.00000000000E+00  0.25171816738E+04  0.25171816738E+04  0.00000000000E+00 0.  1.
          2   -1    0    0  501    0  0.00000000000E+00 -0.00000000000E+00 -0.10681671583E+04  0.10681671583E+04  0.00000000000E+00 0. -1.
         23    2    1    2    0    0 -0.19439485073E+03 -0.16085239678E+04  0.46095266704E+03  0.16876120408E+04  0.10207020021E+03 0.  0.
         11    1    3    3    0    0 -0.19837241828E+03 -0.14478094549E+04  0.43547704606E+03  0.15248423170E+04  0.00000000000E+00 0.  1.
        -11    1    3    3    0    0  0.39775675498E+01 -0.16071451295E+03  0.25475620975E+02  0.16276972378E+03  0.00000000000E+00 0. -1.
         22    1    1    2    0    0  0.19439485073E+03  0.16085239678E+04  0.98806184841E+03  0.18977367914E+04  0.00000000000E+00 0.  1.
<mgrwt>
<rscale>  0 0.32794943E+04</rscale>
<asrwt>0</asrwt>
<pdfrwt beam="1">  1        2 0.16433341E+00 0.32794943E+04</pdfrwt>
<pdfrwt beam="2">  1       -2 0.38725872E+00 0.32794943E+04</pdfrwt>
<totfact> 0.17128057E-01</totfact>
</mgrwt>
</event>
<event>
 6    1  0.2236204E-005  0.9435477E+03  0.7818608E-02  0.9372724E-01
         -2   -1    0    0    0  501 -0.00000000000E+00  0.00000000000E+00  0.83829886414E+02  0.83829886414E+02  0.00000000000E+00 0.  1.
          2   -1    0    0  501    0  0.00000000000E+00 -0.00000000000E+00 -0.26550266123E+04  0.26550266123E+04  0.00000000000E+00 0. -1.
         23    2    1    2    0    0  0.29329878126E+03  0.27986505147E+03 -0.19721006047E+04  0.20154860649E+04  0.93030428201E+02 0.  0.
         11    1    3    3    0    0  0.82134692406E+02  0.86062109833E+02 -0.39400534973E+03  0.41157382092E+03  0.00000000000E+00 0.  1.
        -11    1    3    3    0    0  0.21116408886E+03  0.19380294164E+03 -0.15780952549E+04  0.16039122439E+04  0.00000000000E+00 0. -1.
         22    1    1    2    0    0 -0.29329878126E+03 -0.27986505147E+03 -0.59909612123E+03  0.72337043387E+03  0.00000000000E+00 0.  1.
<mgrwt>
<rscale>  0 0.94354773E+03</rscale>
<asrwt>0</asrwt>
<pdfrwt beam="1">  1        2 0.40846565E+00 0.94354773E+03</pdfrwt>
<pdfrwt beam="2">  1       -2 0.12896905E-01 0.94354773E+03</pdfrwt>
<totfact> 0.13039294E+02</totfact>
</mgrwt>
</event>
<event>
 6    1  0.2236204E-005  0.2411607E+04  0.7818608E-02  0.8435171E-01
          2   -1    0    0  501    0  0.00000000000E+00  0.00000000000E+00  0.24006075781E+04  0.24006075781E+04  0.00000000000E+00 0. -1.
         -2   -1    0    0    0  501 -0.00000000000E+00 -0.00000000000E+00 -0.60566443849E+03  0.60566443849E+03  0.00000000000E+00 0.  1.
         23    2    1    2    0    0 -0.40766157425E+03  0.52036249098E+03 -0.35602606488E+03  0.75602011962E+03  0.88582059467E+02 0.  0.
         11    1    3    3    0    0 -0.29164486454E+03  0.41159257723E+03 -0.30265234431E+03  0.58827172137E+03  0.00000000000E+00 0. -1.
        -11    1    3    3    0    0 -0.11601670971E+03  0.10876991375E+03 -0.53373720564E+02  0.16774839825E+03  0.00000000000E+00 0.  1.
         22    1    1    2    0    0  0.40766157425E+03 -0.52036249098E+03  0.21509692045E+04  0.22502518970E+04  0.00000000000E+00 0. -1.
<mgrwt>
<rscale>  0 0.24116075E+04</rscale>
<asrwt>0</asrwt>
<pdfrwt beam="1">  1        2 0.36932424E+00 0.24116075E+04</pdfrwt>
<pdfrwt beam="2">  1       -2 0.93179145E-01 0.24116075E+04</pdfrwt>
<totfact> 0.34791470E+00</totfact>
</mgrwt>
</event>
<event>
 6    1  0.2236204E-005  0.2714026E+04  0.7818608E-02  0.8330468E-01
         -2   -1    0    0    0  501 -0.00000000000E+00  0.00000000000E+00  0.90496207905E+03  0.90496207905E+03  0.00000000000E+00 0.  1.
          2   -1    0    0  501    0  0.00000000000E+00 -0.00000000000E+00 -0.20348737821E+04  0.20348737821E+04  0.00000000000E+00 0. -1.
         23    2    1    2    0    0 -0.44938671688E+03 -0.97654804479E+02 -0.19466904883E+04  0.20024925588E+04  0.94274644755E+02 0.  0.
         13    1    3    3    0    0 -0.20780850229E+03 -0.75559487635E+02 -0.10852158700E+04  0.11075139251E+04  0.00000000000E+00 0. -1.
        -13    1    3    3    0    0 -0.24157821458E+03 -0.22095316844E+02 -0.86147461831E+03  0.89497863370E+03  0.00000000000E+00 0.  1.
         22    1    1    2    0    0  0.44938671688E+03  0.97654804479E+02  0.81677878534E+03  0.93734330228E+03  0.00000000000E+00 0.  1.
<mgrwt>
<rscale>  0 0.27140255E+04</rscale>
<asrwt>0</asrwt>
<pdfrwt beam="1">  1        2 0.31305750E+00 0.27140255E+04</pdfrwt>
<pdfrwt beam="2">  1       -2 0.13922494E+00 0.27140255E+04</pdfrwt>
<totfact> 0.20401024E+00</totfact>
</mgrwt>
</event>
<event>
 6    1  0.2236204E-005  0.1409284E+04  0.7818608E-02  0.8947125E-01
          2   -1    0    0  501    0  0.00000000000E+00  0.00000000000E+00  0.41246599162E+04  0.41246599162E+04  0.00000000000E+00 0. -1.
         -2   -1    0    0    0  501 -0.00000000000E+00 -0.00000000000E+00 -0.12037855305E+03  0.12037855305E+03  0.00000000000E+00 0.  1.
         23    2    1    2    0    0 -0.28578351238E+03 -0.47288082296E+03  0.33128507484E+04  0.33599594989E+04  0.95180169647E+02 0.  0.
         13    1    3    3    0    0 -0.49663392297E+02 -0.15318529079E+03  0.10953389609E+04  0.11071131943E+04  0.00000000000E+00 0. -1.
        -13    1    3    3    0    0 -0.23612012008E+03 -0.31969553217E+03  0.22175117875E+04  0.22528463046E+04  0.00000000000E+00 0.  1.
         22    1    1    2    0    0  0.28578351238E+03  0.47288082296E+03  0.69143061480E+03  0.88507897035E+03  0.00000000000E+00 0.  1.
<mgrwt>
<rscale>  0 0.14092843E+04</rscale>
<asrwt>0</asrwt>
<pdfrwt beam="1">  1        2 0.63456296E+00 0.14092843E+04</pdfrwt>
<pdfrwt beam="2">  1       -2 0.18519781E-01 0.14092843E+04</pdfrwt>
<totfact> 0.66181981E+00</totfact>
</mgrwt>
</event>
<event>
 6    1  0.2236204E-005  0.7662355E+03  0.7818608E-02  0.9610218E-01
         -1   -1    0    0    0  501 -0.00000000000E+00  0.00000000000E+00  0.36912885320E+03  0.36912885320E+03  0.00000000000E+00 0.  1.
          1   -1    0    0  501    0  0.00000000000E+00 -0.00000000000E+00 -0.39763680048E+03  0.39763680048E+03  0.00000000000E+00 0. -1.
         23    2    1    2    0    0  0.20021307064E+01 -0.15709774842E+03  0.32921103110E+03  0.37606554033E+03  0.91442203278E+02 0.  0.
         11    1    3    3    0    0  0.43408940168E+02 -0.99353198681E+02  0.16879654186E+03  0.20061821134E+03  0.00000000000E+00 0. -1.
        -11    1    3    3    0    0 -0.41406809461E+02 -0.57744549737E+02  0.16041448923E+03  0.17544732899E+03  0.00000000000E+00 0.  1.
         22    1    1    2    0    0 -0.20021307064E+01  0.15709774842E+03 -0.35771897837E+03  0.39070011335E+03  0.00000000000E+00 0. -1.
<mgrwt>
<rscale>  0 0.76623552E+03</rscale>
<asrwt>0</asrwt>
<pdfrwt beam="1">  1        1 0.61174893E-01 0.76623552E+03</pdfrwt>
<pdfrwt beam="2">  1       -1 0.56789054E-01 0.76623552E+03</pdfrwt>
<totfact> 0.19226960E+02</totfact>
</mgrwt>
</event>
<event>
 6    1  0.2290848E-005  0.5660031E+04  0.7818608E-02  0.7734045E-01
          2   -1    0    0  501    0  0.00000000000E+00  0.00000000000E+00  0.31612439512E+04  0.31612439512E+04  0.00000000000E+00 0. -1.
         -2   -1    0    0    0  501 -0.00000000000E+00 -0.00000000000E+00 -0.25334922215E+04  0.25334922215E+04  0.00000000000E+00 0.  1.
         23    2    1    2    0    0 -0.18226707427E+03 -0.23115857449E+04 -0.13172641932E+04  0.26682304511E+04  0.87285984540E+02 0.  0.
         11    1    3    3    0    0 -0.74596335850E+02 -0.10125551730E+04 -0.62632182810E+03  0.11929424228E+04  0.00000000000E+00 0. -1.
        -11    1    3    3    0    0 -0.10767073842E+03 -0.12990305719E+04 -0.69094236515E+03  0.14752880284E+04  0.00000000000E+00 0.  1.
         22    1    1    2    0    0  0.18226707427E+03  0.23115857449E+04  0.19450159229E+04  0.30265057216E+04  0.00000000000E+00 0. -1.
<mgrwt>
<rscale>  0 0.56600307E+04</rscale>
<asrwt>0</asrwt>
<pdfrwt beam="1">  1        2 0.48634522E+00 0.56600307E+04</pdfrwt>
<pdfrwt beam="2">  1       -2 0.38976804E+00 0.56600307E+04</pdfrwt>
<totfact> 0.82190041E-03</totfact>
</mgrwt>
</event>
<event>
 6    1  0.2236204E-005  0.3543352E+04  0.7818608E-02  0.8103592E-01
          2   -1    0    0  501    0  0.00000000000E+00  0.00000000000E+00  0.21044013892E+04  0.21044013892E+04  0.00000000000E+00 0. -1.
         -2   -1    0    0    0  501 -0.00000000000E+00 -0.00000000000E+00 -0.14915574971E+04  0.14915574971E+04  0.00000000000E+00 0.  1.
         23    2    1    2    0    0  0.16824555004E+04 -0.35670957023E+03 -0.12071013670E+03  0.17261996127E+04  0.85416260347E+02 0.  0.
         11    1    3    3    0    0  0.35907714823E+03 -0.84466125200E+02  0.82320547524E+01  0.36896977032E+03  0.00000000000E+00 0. -1.
        -11    1    3    3    0    0  0.13233783521E+04 -0.27224344503E+03 -0.12894219145E+03  0.13572298424E+04  0.00000000000E+00 0.  1.
         22    1    1    2    0    0 -0.16824555004E+04  0.35670957023E+03  0.73355402883E+03  0.18697592736E+04  0.00000000000E+00 0.  1.
<mgrwt>
<rscale>  0 0.35433519E+04</rscale>
<asrwt>0</asrwt>
<pdfrwt beam="1">  1        2 0.32375406E+00 0.35433519E+04</pdfrwt>
<pdfrwt beam="2">  1       -2 0.22947038E+00 0.35433519E+04</pdfrwt>
<totfact> 0.41219040E-01</totfact>
</mgrwt>
</event>
<event>
 6    1  0.2236204E-005  0.2197334E+04  0.7818608E-02  0.8519538E-01
          2   -1    0    0  501    0  0.00000000000E+00  0.00000000000E+00  0.35764065658E+04  0.35764065658E+04  0.00000000000E+00 0. -1.
         -2   -1    0    0    0  501 -0.00000000000E+00 -0.00000000000E+00 -0.33750899482E+03  0.33750899482E+03  0.00000000000E+00 0.  1.
         23    2    1    2    0    0 -0.73308209307E+03  0.79504940146E+03  0.12956172640E+04  0.16899885705E+04  0.89018917305E+02 0.  0.
         13    1    3    3    0    0 -0.85487326130E+02  0.55369226186E+02  0.12955164773E+03  0.16479521706E+03  0.00000000000E+00 0.  1.
        -13    1    3    3    0    0 -0.64759476694E+03  0.73968017528E+03  0.11660656163E+04  0.15251933534E+04  0.00000000000E+00 0. -1.
         22    1    1    2    0    0  0.73308209307E+03 -0.79504940146E+03  0.19432803070E+04  0.22239269902E+04  0.00000000000E+00 0. -1.
<mgrwt>
<rscale>  0 0.21973342E+04</rscale>
<asrwt>0</asrwt>
<pdfrwt beam="1">  1        2 0.55021637E+00 0.21973342E+04</pdfrwt>
<pdfrwt beam="2">  1       -2 0.51924463E-01 0.21973342E+04</pdfrwt>
<totfact> 0.23076068E+00</totfact>
</mgrwt>
</event>
<event>
 6    1  0.2236204E-005  0.3568927E+04  0.7818608E-02  0.8097647E-01
         -2   -1    0    0    0  501 -0.00000000000E+00  0.00000000000E+00  0.13029194420E+04  0.13029194420E+04  0.00000000000E+00 0.  1.
          2   -1    0    0  501    0  0.00000000000E+00 -0.00000000000E+00 -0.24439808613E+04  0.24439808613E+04  0.00000000000E+00 0. -1.
         23    2    1    2    0    0  0.42276891764E+03  0.11382807990E+04 -0.19419854446E+04  0.22922883175E+04  0.94135689886E+02 0.  0.
         11    1    3    3    0    0  0.34547975295E+03  0.89733299776E+03 -0.16030753011E+04  0.18693349592E+04  0.00000000000E+00 0.  1.
        -11    1    3    3    0    0  0.77289164693E+02  0.24094780125E+03 -0.33891014349E+03  0.42295335827E+03  0.00000000000E+00 0. -1.
         22    1    1    2    0    0 -0.42276891764E+03 -0.11382807990E+04  0.80092402526E+03  0.14546119858E+04  0.00000000000E+00 0.  1.
<mgrwt>
<rscale>  0 0.35689271E+04</rscale>
<asrwt>0</asrwt>
<pdfrwt beam="1">  1        2 0.37599705E+00 0.35689271E+04</pdfrwt>
<pdfrwt beam="2">  1       -2 0.20044915E+00 0.35689271E+04</pdfrwt>
<totfact> 0.40481712E-01</totfact>
</mgrwt>
</event>
<event>
 6    1  0.2236204E-005  0.1826109E+04  0.7818608E-02  0.8692537E-01
         -2   -1    0    0    0  501 -0.00000000000E+00  0.00000000000E+00  0.86739558616E+03  0.86739558616E+03  0.00000000000E+00 0.  1.
          2   -1    0    0  501    0  0.00000000000E+00 -0.00000000000E+00 -0.96111636537E+03  0.96111636537E+03  0.00000000000E+00 0. -1.
         23    2    1    2    0    0  0.37812718364E+03 -0.82759887827E+03 -0.49243629441E+01  0.91429924440E+03  0.89547689210E+02 0.  0.
         11    1    3    3    0    0  0.11538127064E+03 -0.33458888480E+03  0.25305012008E+02  0.35482799083E+03  0.00000000000E+00 0.  1.
        -11    1    3    3    0    0  0.26274591300E+03 -0.49300999348E+03 -0.30229374952E+02  0.55947125358E+03  0.00000000000E+00 0. -1.
         22    1    1    2    0    0 -0.37812718364E+03  0.82759887827E+03 -0.88796416260E+02  0.91421270712E+03  0.00000000000E+00 0. -1.
<mgrwt>
<rscale>  0 0.18261085E+04</rscale>
<asrwt>0</asrwt>
<pdfrwt beam="1">  1        2 0.14786406E+00 0.18261085E+04</pdfrwt>
<pdfrwt beam="2">  1       -2 0.13344548E+00 0.18261085E+04</pdfrwt>
<totfact> 0.10219828E+01</totfact>
</mgrwt>
</event>
<event>
 6    1  0.2236204E-005  0.2570567E+04  0.7818608E-02  0.8378268E-01
          2   -1    0    0  501    0  0.00000000000E+00  0.00000000000E+00  0.11064069435E+04  0.11064069435E+04  0.00000000000E+00 0. -1.
         -2   -1    0    0    0  501 -0.00000000000E+00 -0.00000000000E+00 -0.14930799040E+04  0.14930799040E+04  0.00000000000E+00 0.  1.
         23    2    1    2    0    0 -0.67123635701E+03 -0.37602898561E+03 -0.12326453373E+04  0.14559723933E+04  0.92114262874E+02 0.  0.
         11    1    3    3    0    0 -0.10950930773E+03 -0.58521521127E+02 -0.14090664661E+03  0.18780772075E+03  0.00000000000E+00 0. -1.
        -11    1    3    3    0    0 -0.56172704928E+03 -0.31750746448E+03 -0.10917386907E+04  0.12681646725E+04  0.00000000000E+00 0.  1.
         22    1    1    2    0    0  0.67123635701E+03  0.37602898561E+03  0.84597237677E+03  0.11435144543E+04  0.00000000000E+00 0. -1.
<mgrwt>
<rscale>  0 0.25705672E+04</rscale>
<asrwt>0</asrwt>
<pdfrwt beam="1">  1        2 0.17021645E+00 0.25705672E+04</pdfrwt>
<pdfrwt beam="2">  1       -2 0.22970460E+00 0.25705672E+04</pdfrwt>
<totfact> 0.16435387E+00</totfact>
</mgrwt>
</event>
<event>
 6    1  0.2236204E-005  0.2088804E+04  0.7818608E-02  0.8566192E-01
          2   -1    0    0  501    0  0.00000000000E+00  0.00000000000E+00  0.19805650393E+04  0.19805650393E+04  0.00000000000E+00 0.  1.
         -2   -1    0    0    0  501 -0.00000000000E+00 -0.00000000000E+00 -0.55073934409E+03  0.55073934409E+03  0.00000000000E+00 0. -1.
         23    2    1    2    0    0 -0.85902264406E+03  0.16188624391E+03  0.14047362108E+04  0.16568007864E+04  0.87051507467E+02 0.  0.
         13    1    3    3    0    0 -0.20259589554E+03  0.67476048390E+01  0.36292970442E+03  0.41570253477E+03  0.00000000000E+00 0. -1.
        -13    1    3    3    0    0 -0.65642674852E+03  0.15513863907E+03  0.10418065064E+04  0.12410982516E+04  0.00000000000E+00 0.  1.
         22    1    1    2    0    0  0.85902264406E+03 -0.16188624391E+03  0.25089484449E+02  0.87450359702E+03  0.00000000000E+00 0. -1.
<mgrwt>
<rscale>  0 0.20888036E+04</rscale>
<asrwt>0</asrwt>
<pdfrwt beam="1">  1        2 0.30470231E+00 0.20888036E+04</pdfrwt>
<pdfrwt beam="2">  1       -2 0.84729131E-01 0.20888036E+04</pdfrwt>
<totfact> 0.76675991E+00</totfact>
</mgrwt>
</event>
<event>
 6    1  0.2326372E-005  0.5807213E+04  0.7818608E-02  0.7714775E-01
          2   -1    0    0  501    0  0.00000000000E+00  0.00000000000E+00  0.35002750107E+04  0.35002750107E+04  0.00000000000E+00 0.  1.
         -2   -1    0    0    0  501 -0.00000000000E+00 -0.00000000000E+00 -0.24086483259E+04  0.24086483259E+04  0.00000000000E+00 0. -1.
         23    2    1    2    0    0 -0.74704490189E+03 -0.11231856116E+04  0.31614210700E+04  0.34383625095E+04  0.90175168513E+02 0.  0.
         11    1    3    3    0    0 -0.30117898783E+03 -0.52454673071E+03  0.14681719980E+04  0.15878876128E+04  0.00000000000E+00 0.  1.
        -11    1    3    3    0    0 -0.44586591407E+03 -0.59863888088E+03  0.16932490721E+04  0.18504748966E+04  0.00000000000E+00 0. -1.
         22    1    1    2    0    0  0.74704490189E+03  0.11231856116E+04 -0.20697943852E+04  0.24705608271E+04  0.00000000000E+00 0. -1.
<mgrwt>
<rscale>  0 0.58072133E+04</rscale>
<asrwt>0</asrwt>
<pdfrwt beam="1">  1        2 0.53850385E+00 0.58072133E+04</pdfrwt>
<pdfrwt beam="2">  1       -2 0.37056128E+00 0.58072133E+04</pdfrwt>
<totfact> 0.63814296E-03</totfact>
</mgrwt>
</event>
<event>
 6    1  0.2236204E-005  0.2041179E+04  0.7818608E-02  0.8587607E-01
          2   -1    0    0  501    0  0.00000000000E+00  0.00000000000E+00  0.30495186606E+04  0.30495186606E+04  0.00000000000E+00 0. -1.
         -2   -1    0    0    0  501 -0.00000000000E+00 -0.00000000000E+00 -0.34156289967E+03  0.34156289967E+03  0.00000000000E+00 0.  1.
         23    2    1    2    0    0 -0.30683795351E+03  0.40944802204E+02  0.29688257477E+04  0.29862616540E+04  0.89478149493E+02 0.  0.
         11    1    3    3    0    0 -0.16251750840E+03  0.65655529358E+02  0.17024725403E+04  0.17114716883E+04  0.00000000000E+00 0.  1.
        -11    1    3    3    0    0 -0.14432044512E+03 -0.24710727153E+02  0.12663532074E+04  0.12747899657E+04  0.00000000000E+00 0. -1.
         22    1    1    2    0    0  0.30683795351E+03 -0.40944802204E+02 -0.26086998677E+03  0.40481990630E+03  0.00000000000E+00 0.  1.
<mgrwt>
<rscale>  0 0.20411785E+04</rscale>
<asrwt>0</asrwt>
<pdfrwt beam="1">  1        2 0.46915670E+00 0.20411785E+04</pdfrwt>
<pdfrwt beam="2">  1       -2 0.52548140E-01 0.20411785E+04</pdfrwt>
<totfact> 0.51393986E+00</totfact>
</mgrwt>
</event>
<event>
 6    1  0.2762604E-005  0.4389524E+04  0.7818608E-02  0.7930269E-01
          1   -1    0    0  501    0  0.00000000000E+00  0.00000000000E+00  0.17840654737E+04  0.17840654737E+04  0.00000000000E+00 0. -1.
         -1   -1    0    0    0  501 -0.00000000000E+00 -0.00000000000E+00 -0.27000016891E+04  0.27000016891E+04  0.00000000000E+00 0.  1.
         23    2    1    2    0    0 -0.19419253691E+04  0.10164744222E+04 -0.55352561259E+03  0.22624380679E+04  0.89112384550E+02 0.  0.
         13    1    3    3    0    0 -0.61882810252E+03  0.35337333615E+03 -0.21359596027E+03  0.74393828334E+03  0.00000000000E+00 0.  1.
        -13    1    3    3    0    0 -0.13230972665E+04  0.66310108610E+03 -0.33992965233E+03  0.15184997845E+04  0.00000000000E+00 0. -1.
         22    1    1    2    0    0  0.19419253691E+04 -0.10164744222E+04 -0.36241060281E+03  0.22216290948E+04  0.00000000000E+00 0.  1.
<mgrwt>
<rscale>  0 0.43895238E+04</rscale>
<asrwt>0</asrwt>
<pdfrwt beam="1">  1        1 0.27447161E+00 0.43895238E+04</pdfrwt>
<pdfrwt beam="2">  1       -1 0.41538488E+00 0.43895238E+04</pdfrwt>
<totfact> 0.17763990E-02</totfact>
</mgrwt>
</event>
<event>
 6    1  0.2236204E-005  0.7958148E+03  0.7818608E-02  0.9566095E-01
          1   -1    0    0  501    0  0.00000000000E+00  0.00000000000E+00  0.85988524791E+03  0.85988524791E+03  0.00000000000E+00 0. -1.
         -1   -1    0    0    0  501 -0.00000000000E+00 -0.00000000000E+00 -0.18412955551E+03  0.18412955551E+03  0.00000000000E+00 0.  1.
         23    2    1    2    0    0  0.36596790527E+03 -0.13248604738E+03  0.40417329111E+03  0.56941806815E+03  0.96932072400E+02 0.  0.
         11    1    3    3    0    0  0.29713585559E+03 -0.72483162441E+02  0.27549286487E+03  0.41163071327E+03  0.00000000000E+00 0.  1.
        -11    1    3    3    0    0  0.68832049677E+02 -0.60002884938E+02  0.12868042624E+03  0.15778735488E+03  0.00000000000E+00 0. -1.
         22    1    1    2    0    0 -0.36596790527E+03  0.13248604738E+03  0.27158240130E+03  0.47459673527E+03  0.00000000000E+00 0.  1.
<mgrwt>
<rscale>  0 0.79581477E+03</rscale>
<asrwt>0</asrwt>
<pdfrwt beam="1">  1        1 0.13229004E+00 0.79581477E+03</pdfrwt>
<pdfrwt beam="2">  1       -1 0.28327624E-01 0.79581477E+03</pdfrwt>
<totfact> 0.22381979E+02</totfact>
</mgrwt>
</event>
<event>
 6    1  0.2236204E-005  0.6013776E+03  0.7818608E-02  0.9902552E-01
          2   -1    0    0  501    0  0.00000000000E+00  0.00000000000E+00  0.11256453699E+04  0.11256453699E+04  0.00000000000E+00 0. -1.
         -2   -1    0    0    0  501 -0.00000000000E+00 -0.00000000000E+00 -0.80321695021E+02  0.80321695021E+02  0.00000000000E+00 0.  1.
         23    2    1    2    0    0 -0.16647916476E+03  0.18229006477E+03  0.85427827593E+03  0.89380793165E+03  0.90312047626E+02 0.  0.
         13    1    3    3    0    0 -0.23808941066E+02 -0.12138615635E+01  0.36168291309E+02  0.43318407528E+02  0.00000000000E+00 0.  1.
        -13    1    3    3    0    0 -0.14267022369E+03  0.18350392634E+03  0.81810998462E+03  0.85048952412E+03  0.00000000000E+00 0. -1.
         22    1    1    2    0    0  0.16647916476E+03 -0.18229006477E+03  0.19104539891E+03  0.31215913323E+03  0.00000000000E+00 0.  1.
<mgrwt>
<rscale>  0 0.60137757E+03</rscale>
<asrwt>0</asrwt>
<pdfrwt beam="1">  1        2 0.17317620E+00 0.60137757E+03</pdfrwt>
<pdfrwt beam="2">  1       -2 0.12357185E-01 0.60137757E+03</pdfrwt>
<totfact> 0.10289424E+03</totfact>
</mgrwt>
</event>
<event>
 6    1  0.2236204E-005  0.3522282E+04  0.7818608E-02  0.8108530E-01
          2   -1    0    0  501    0  0.00000000000E+00  0.00000000000E+00  0.25559617231E+04  0.25559617231E+04  0.00000000000E+00 0. -1.
         -2   -1    0    0    0  501 -0.00000000000E+00 -0.00000000000E+00 -0.12134835410E+04  0.12134835410E+04  0.00000000000E+00 0.  1.
         23    2    1    2    0    0  0.24352722489E+02 -0.12624721231E+04 -0.64026744913E+03  0.14187625643E+04  0.92281584306E+02 0.  0.
         11    1    3    3    0    0  0.35012854552E+02 -0.74977640428E+03 -0.42539758001E+03  0.86275932767E+03  0.00000000000E+00 0.  1.
        -11    1    3    3    0    0 -0.10660132063E+02 -0.51269571882E+03 -0.21486986912E+03  0.55600323666E+03  0.00000000000E+00 0. -1.
         22    1    1    2    0    0 -0.24352722489E+02  0.12624721231E+04  0.19827456313E+04  0.23506826998E+04  0.00000000000E+00 0. -1.
<mgrwt>
<rscale>  0 0.35222819E+04</rscale>
<asrwt>0</asrwt>
<pdfrwt beam="1">  1        2 0.39322488E+00 0.35222819E+04</pdfrwt>
<pdfrwt beam="2">  1       -2 0.18668978E+00 0.35222819E+04</pdfrwt>
<totfact> 0.43218524E-01</totfact>
</mgrwt>
</event>
<event>
 6    1  0.2236204E-005  0.3269703E+04  0.7818608E-02  0.8170647E-01
          2   -1    0    0  501    0  0.00000000000E+00  0.00000000000E+00  0.22516285135E+04  0.22516285135E+04  0.00000000000E+00 0.  1.
         -2   -1    0    0    0  501 -0.00000000000E+00 -0.00000000000E+00 -0.11870250930E+04  0.11870250930E+04  0.00000000000E+00 0. -1.
         23    2    1    2    0    0 -0.58839880824E+03  0.15065049095E+04  0.29102587847E+03  0.16458367130E+04  0.91171399875E+02 0.  0.
         13    1    3    3    0    0 -0.45179412601E+03  0.12429293320E+04  0.25399311794E+03  0.13466639375E+04  0.00000000000E+00 0. -1.
        -13    1    3    3    0    0 -0.13660468223E+03  0.26357557754E+03  0.37032760528E+02  0.29917277556E+03  0.00000000000E+00 0.  1.
         22    1    1    2    0    0  0.58839880824E+03 -0.15065049095E+04  0.77357754200E+03  0.17928168934E+04  0.00000000000E+00 0.  1.
<mgrwt>
<rscale>  0 0.32697031E+04</rscale>
<asrwt>0</asrwt>
<pdfrwt beam="1">  1        2 0.34640439E+00 0.32697031E+04</pdfrwt>
<pdfrwt beam="2">  1       -2 0.18261925E+00 0.32697031E+04</pdfrwt>
<totfact> 0.70328063E-01</totfact>
</mgrwt>
</event>
<event>
 6    1  0.2236204E-005  0.8313934E+04  0.7818608E-02  0.7455282E-01
          2   -1    0    0  501    0  0.00000000000E+00  0.00000000000E+00  0.31456224554E+04  0.31456224554E+04  0.00000000000E+00 0. -1.
         -2   -1    0    0    0  501 -0.00000000000E+00 -0.00000000000E+00 -0.54934678082E+04  0.54934678082E+04  0.00000000000E+00 0.  1.
         23    2    1    2    0    0  0.80950321812E+03 -0.40756600779E+04 -0.10701785453E+04  0.42918229608E+04  0.90342005420E+02 0.  0.
         11    1    3    3    0    0  0.15523913002E+03 -0.85305728529E+03 -0.18834955719E+03  0.88728883413E+03  0.00000000000E+00 0. -1.
        -11    1    3    3    0    0  0.65426408811E+03 -0.32226027926E+04 -0.88182898808E+03  0.34045341267E+04  0.00000000000E+00 0.  1.
         22    1    1    2    0    0 -0.80950321812E+03  0.40756600779E+04 -0.12776668075E+04  0.43472673027E+04  0.00000000000E+00 0. -1.
<mgrwt>
<rscale>  0 0.83139343E+04</rscale>
<asrwt>0</asrwt>
<pdfrwt beam="1">  1        2 0.48394192E+00 0.83139343E+04</pdfrwt>
<pdfrwt beam="2">  1       -2 0.84514890E+00 0.83139343E+04</pdfrwt>
<totfact> 0.28725990E-05</totfact>
</mgrwt>
</event>
<event>
 6    1  0.2236204E-005  0.2100717E+04  0.7818608E-02  0.8560928E-01
         -2   -1    0    0    0  501 -0.00000000000E+00  0.00000000000E+00  0.86818355282E+03  0.86818355282E+03  0.00000000000E+00 0.  1.
          2   -1    0    0  501    0  0.00000000000E+00 -0.00000000000E+00 -0.12707598878E+04  0.12707598878E+04  0.00000000000E+00 0. -1.
         23    2    1    2    0    0 -0.49738788197E+03  0.37244429108E+03 -0.10614304269E+04  0.12332955126E+04  0.90960514480E+02 0.  0.
         13    1    3    3    0    0 -0.24836803093E+03  0.20526294302E+03 -0.63331938737E+03  0.71057230525E+03  0.00000000000E+00 0.  1.
        -13    1    3    3    0    0 -0.24901985104E+03  0.16718134806E+03 -0.42811103952E+03  0.52272320736E+03  0.00000000000E+00 0. -1.
         22    1    1    2    0    0  0.49738788197E+03 -0.37244429108E+03  0.65885409191E+03  0.90564792801E+03  0.00000000000E+00 0.  1.
<mgrwt>
<rscale>  0 0.21007169E+04</rscale>
<asrwt>0</asrwt>
<pdfrwt beam="1">  1        2 0.19550152E+00 0.21007169E+04</pdfrwt>
<pdfrwt beam="2">  1       -2 0.13356670E+00 0.21007169E+04</pdfrwt>
<totfact> 0.64254502E+00</totfact>
</mgrwt>
</event>
<event>
 6    1  0.2236204E-005  0.8583571E+03  0.7818608E-02  0.9479188E-01
         -1   -1    0    0    0  501 -0.00000000000E+00  0.00000000000E+00  0.12058798079E+04  0.12058798079E+04  0.00000000000E+00 0.  1.
          1   -1    0    0  501    0  0.00000000000E+00 -0.00000000000E+00 -0.15274675813E+03  0.15274675813E+03  0.00000000000E+00 0. -1.
         23    2    1    2    0    0 -0.36810224303E+03 -0.29559313162E+02  0.20088834104E+03  0.42981331361E+03  0.89500528886E+02 0.  0.
         11    1    3    3    0    0 -0.15936909165E+03 -0.32566742420E+02  0.43508621702E+02  0.16838081912E+03  0.00000000000E+00 0.  1.
        -11    1    3    3    0    0 -0.20873315138E+03  0.30074292576E+01  0.15737971934E+03  0.26143249449E+03  0.00000000000E+00 0. -1.
         22    1    1    2    0    0  0.36810224303E+03  0.29559313162E+02  0.85224470874E+03  0.92881325243E+03  0.00000000000E+00 0.  1.
<mgrwt>
<rscale>  0 0.85835711E+03</rscale>
<asrwt>0</asrwt>
<pdfrwt beam="1">  1        1 0.23499502E-01 0.85835711E+03</pdfrwt>
<pdfrwt beam="2">  1       -1 0.18551996E+00 0.85835711E+03</pdfrwt>
<totfact> 0.40816589E+01</totfact>
</mgrwt>
</event>
<event>
 6    1  0.2236204E-005  0.5226173E+04  0.7818608E-02  0.7794534E-01
          2   -1    0    0  501    0  0.00000000000E+00  0.00000000000E+00  0.41259323060E+04  0.41259323060E+04  0.00000000000E+00 0. -1.
         -2   -1    0    0    0  501 -0.00000000000E+00 -0.00000000000E+00 -0.16549521508E+04  0.16549521508E+04  0.00000000000E+00 0.  1.
         23    2    1    2    0    0  0.12581402511E+04 -0.22808005685E+04  0.10167989212E+04  0.27976628449E+04  0.89828854383E+02 0.  0.
         13    1    3    3    0    0  0.13885024607E+03 -0.24740899375E+03  0.81232860764E+02  0.29510909625E+03  0.00000000000E+00 0. -1.
        -13    1    3    3    0    0  0.11192900051E+04 -0.20333915747E+04  0.93556606042E+03  0.25025537487E+04  0.00000000000E+00 0.  1.
         22    1    1    2    0    0 -0.12581402511E+04  0.22808005685E+04  0.14541812340E+04  0.29832216119E+04  0.00000000000E+00 0. -1.
<mgrwt>
<rscale>  0 0.52261728E+04</rscale>
<asrwt>0</asrwt>
<pdfrwt beam="1">  1        2 0.63475881E+00 0.52261728E+04</pdfrwt>
<pdfrwt beam="2">  1       -2 0.25460803E+00 0.52261728E+04</pdfrwt>
<totfact> 0.11518171E-02</totfact>
</mgrwt>
</event>
<event>
 6    1  0.2236204E-005  0.2697570E+04  0.7818608E-02  0.8335794E-01
         -2   -1    0    0    0  501 -0.00000000000E+00  0.00000000000E+00  0.61121105320E+03  0.61121105320E+03  0.00000000000E+00 0.  1.
          2   -1    0    0  501    0  0.00000000000E+00 -0.00000000000E+00 -0.29764210783E+04  0.29764210783E+04  0.00000000000E+00 0. -1.
         23    2    1    2    0    0 -0.56948025930E+03  0.30851593977E+03  0.38708845817E+03  0.76015325591E+03  0.92226065748E+02 0.  0.
         13    1    3    3    0    0 -0.62796813044E+02  0.32377673336E+02  0.79104525458E+02  0.10606262022E+03  0.00000000000E+00 0.  1.
        -13    1    3    3    0    0 -0.50668344625E+03  0.27613826643E+03  0.30798393272E+03  0.65409063570E+03  0.00000000000E+00 0. -1.
         22    1    1    2    0    0  0.56948025930E+03 -0.30851593977E+03 -0.27522984833E+04  0.28274788756E+04  0.00000000000E+00 0. -1.
<mgrwt>
<rscale>  0 0.26975704E+04</rscale>
<asrwt>0</asrwt>
<pdfrwt beam="1">  1        2 0.45791093E+00 0.26975704E+04</pdfrwt>
<pdfrwt beam="2">  1       -2 0.94032470E-01 0.26975704E+04</pdfrwt>
<totfact> 0.15083751E+00</totfact>
</mgrwt>
</event>
<event>
 6    1  0.2236204E-005  0.3389196E+04  0.7818608E-02  0.8140563E-01
         -2   -1    0    0    0  501 -0.00000000000E+00  0.00000000000E+00  0.79341614300E+03  0.79341614300E+03  0.00000000000E+00 0.  1.
          2   -1    0    0  501    0  0.00000000000E+00 -0.00000000000E+00 -0.36193644303E+04  0.36193644303E+04  0.00000000000E+00 0. -1.
         23    2    1    2    0    0 -0.87148244820E+03  0.45966785653E+03  0.37932137377E+03  0.10594941561E+04  0.88695920393E+02 0.  0.
         13    1    3    3    0    0 -0.13686303082E+03  0.79447109492E+02  0.96214726537E+02  0.18520422785E+03  0.00000000000E+00 0. -1.
        -13    1    3    3    0    0 -0.73461941738E+03  0.38022074704E+03  0.28310664723E+03  0.87428992822E+03  0.00000000000E+00 0.  1.
         22    1    1    2    0    0  0.87148244820E+03 -0.45966785653E+03 -0.32052696611E+04  0.33532864172E+04  0.00000000000E+00 0. -1.
<mgrwt>
<rscale>  0 0.33891959E+04</rscale>
<asrwt>0</asrwt>
<pdfrwt beam="1">  1        2 0.55682530E+00 0.33891959E+04</pdfrwt>
<pdfrwt beam="2">  1       -2 0.12206402E+00 0.33891959E+04</pdfrwt>
<totfact> 0.28162115E-01</totfact>
</mgrwt>
</event>
<event>
 6    1  0.2236204E-005  0.4653705E+04  0.7818608E-02  0.7884267E-01
          2   -1    0    0  501    0  0.00000000000E+00  0.00000000000E+00  0.31563378873E+04  0.31563378873E+04  0.00000000000E+00 0. -1.
         -2   -1    0    0    0  501 -0.00000000000E+00 -0.00000000000E+00 -0.17153561467E+04  0.17153561467E+04  0.00000000000E+00 0.  1.
         23    2    1    2    0    0  0.15452790374E+04 -0.17093109495E+04  0.10524030027E+04  0.25348960836E+04  0.92275939028E+02 0.  0.
         11    1    3    3    0    0  0.50680676113E+03 -0.57372101897E+03  0.39667434835E+03  0.86218295006E+03  0.00000000000E+00 0.  1.
        -11    1    3    3    0    0  0.10384722762E+04 -0.11355899305E+04  0.65572865439E+03  0.16727131335E+04  0.00000000000E+00 0. -1.
         22    1    1    2    0    0 -0.15452790374E+04  0.17093109495E+04  0.38857873780E+03  0.23367979504E+04  0.00000000000E+00 0. -1.
<mgrwt>
<rscale>  0 0.46537054E+04</rscale>
<asrwt>0</asrwt>
<pdfrwt beam="1">  1        2 0.48559044E+00 0.46537054E+04</pdfrwt>
<pdfrwt beam="2">  1       -2 0.26390095E+00 0.46537054E+04</pdfrwt>
<totfact> 0.54664605E-02</totfact>
</mgrwt>
</event>
<event>
 6    1  0.2236204E-005  0.1809615E+04  0.7818608E-02  0.8701203E-01
          2   -1    0    0  501    0  0.00000000000E+00  0.00000000000E+00  0.21386205397E+04  0.21386205397E+04  0.00000000000E+00 0. -1.
         -2   -1    0    0    0  501 -0.00000000000E+00 -0.00000000000E+00 -0.38280613441E+03  0.38280613441E+03  0.00000000000E+00 0.  1.
         23    2    1    2    0    0  0.62817721478E+03  0.61803720619E+03  0.11519890140E+04  0.14531656084E+04  0.89638136490E+02 0.  0.
         13    1    3    3    0    0  0.47602242988E+03  0.45711971104E+03  0.79721779956E+03  0.10349454111E+04  0.00000000000E+00 0. -1.
        -13    1    3    3    0    0  0.15215478490E+03  0.16091749515E+03  0.35477121447E+03  0.41822019730E+03  0.00000000000E+00 0.  1.
         22    1    1    2    0    0 -0.62817721478E+03 -0.61803720619E+03  0.60382539124E+03  0.10682610657E+04  0.00000000000E+00 0. -1.
<mgrwt>
<rscale>  0 0.18096155E+04</rscale>
<asrwt>0</asrwt>
<pdfrwt beam="1">  1        2 0.32901854E+00 0.18096155E+04</pdfrwt>
<pdfrwt beam="2">  1       -2 0.58893253E-01 0.18096155E+04</pdfrwt>
<totfact> 0.14209137E+01</totfact>
</mgrwt>
</event>
<event>
 6    1  0.2236204E-005  0.2901019E+04  0.7818608E-02  0.8272574E-01
         -1   -1    0    0    0  501 -0.00000000000E+00  0.00000000000E+00  0.70489561042E+03  0.70489561042E+03  0.00000000000E+00 0.  1.
          1   -1    0    0  501    0  0.00000000000E+00 -0.00000000000E+00 -0.29848072727E+04  0.29848072727E+04  0.00000000000E+00 0. -1.
         23    2    1    2    0    0  0.16002242946E+03  0.13309073020E+04 -0.44093483989E+03  0.14140145965E+04  0.89957332031E+02 0.  0.
         13    1    3    3    0    0  0.10471153947E+02  0.43923366058E+03 -0.14795604301E+03  0.46360203226E+03  0.00000000000E+00 0.  1.
        -13    1    3    3    0    0  0.14955127551E+03  0.89167364144E+03 -0.29297879688E+03  0.95041256424E+03  0.00000000000E+00 0. -1.
         22    1    1    2    0    0 -0.16002242946E+03 -0.13309073020E+04 -0.18389768224E+04  0.22756882866E+04  0.00000000000E+00 0. -1.
<mgrwt>
<rscale>  0 0.29010188E+04</rscale>
<asrwt>0</asrwt>
<pdfrwt beam="1">  1        1 0.45920112E+00 0.29010188E+04</pdfrwt>
<pdfrwt beam="2">  1       -1 0.10844548E+00 0.29010188E+04</pdfrwt>
<totfact> 0.41510978E-01</totfact>
</mgrwt>
</event>
<event>
 6    1  0.2236204E-005  0.1377747E+04  0.7818608E-02  0.8970086E-01
         -2   -1    0    0    0  501 -0.00000000000E+00  0.00000000000E+00  0.77585844920E+03  0.77585844920E+03  0.00000000000E+00 0.  1.
          2   -1    0    0  501    0  0.00000000000E+00 -0.00000000000E+00 -0.61164094293E+03  0.61164094293E+03  0.00000000000E+00 0. -1.
         23    2    1    2    0    0 -0.21321514381E+03 -0.56714589638E+03  0.40561861094E+03  0.73528036552E+03  0.94845100313E+02 0.  0.
         11    1    3    3    0    0 -0.91664661478E+02 -0.25553514310E+03  0.12588476613E+03  0.29924503984E+03  0.00000000000E+00 0. -1.
        -11    1    3    3    0    0 -0.12155048233E+03 -0.31161075328E+03  0.27973384481E+03  0.43603532569E+03  0.00000000000E+00 0.  1.
         22    1    1    2    0    0  0.21321514381E+03  0.56714589638E+03 -0.24140110467E+03  0.65221902661E+03  0.00000000000E+00 0. -1.
<mgrwt>
<rscale>  0 0.13777471E+04</rscale>
<asrwt>0</asrwt>
<pdfrwt beam="1">  1        2 0.94098607E-01 0.13777471E+04</pdfrwt>
<pdfrwt beam="2">  1       -2 0.11936284E+00 0.13777471E+04</pdfrwt>
<totfact> 0.25410450E+01</totfact>
</mgrwt>
</event>
<event>
 6    1  0.2236204E-005  0.2448206E+04  0.7818608E-02  0.8421673E-01
          2   -1    0    0  501    0  0.00000000000E+00  0.00000000000E+00  0.19448147370E+04  0.19448147370E+04  0.00000000000E+00 0. -1.
         -2   -1    0    0    0  501 -0.00000000000E+00 -0.00000000000E+00 -0.77047330316E+03  0.77047330316E+03  0.00000000000E+00 0.  1.
         23    2    1    2    0    0  0.10431718538E+04  0.58588951614E+03  0.86616201464E+03  0.14797927565E+04  0.89866149087E+02 0.  0.
         11    1    3    3    0    0  0.21089273829E+03  0.16104270183E+03  0.18803317015E+03  0.32521834505E+03  0.00000000000E+00 0. -1.
        -11    1    3    3    0    0  0.83227911551E+03  0.42484681431E+03  0.67812884449E+03  0.11545744114E+04  0.00000000000E+00 0.  1.
         22    1    1    2    0    0 -0.10431718538E+04 -0.58588951614E+03  0.30817941922E+03  0.12354952837E+04  0.00000000000E+00 0. -1.
<mgrwt>
<rscale>  0 0.24482057E+04</rscale>
<asrwt>0</asrwt>
<pdfrwt beam="1">  1        2 0.29920227E+00 0.24482057E+04</pdfrwt>
<pdfrwt beam="2">  1       -2 0.11853435E+00 0.24482057E+04</pdfrwt>
<totfact> 0.35161261E+00</totfact>
</mgrwt>
</event>
<event>
 6    1  0.2236204E-005  0.5784882E+03  0.7818608E-02  0.9951069E-01
          2   -1    0    0  501    0  0.00000000000E+00  0.00000000000E+00  0.41915100201E+03  0.41915100201E+03  0.00000000000E+00 0.  1.
         -2   -1    0    0    0  501 -0.00000000000E+00 -0.00000000000E+00 -0.19959908151E+03  0.19959908151E+03  0.00000000000E+00 0. -1.
         23    2    1    2    0    0  0.90063738495E+02 -0.54845749223E+02  0.39249142426E+03  0.41619736159E+03  0.89728437412E+02 0.  0.
         13    1    3    3    0    0  0.70959148707E+02  0.46710460048E+01  0.26243855936E+03  0.27190258714E+03  0.00000000000E+00 0.  1.
        -13    1    3    3    0    0  0.19104589788E+02 -0.59516795228E+02  0.13005286490E+03  0.14429477445E+03  0.00000000000E+00 0. -1.
         22    1    1    2    0    0 -0.90063738495E+02  0.54845749223E+02 -0.17293950376E+03  0.20255272193E+03  0.00000000000E+00 0. -1.
<mgrwt>
<rscale>  0 0.57848822E+03</rscale>
<asrwt>0</asrwt>
<pdfrwt beam="1">  1        2 0.64484769E-01 0.57848822E+03</pdfrwt>
<pdfrwt beam="2">  1       -2 0.30707551E-01 0.57848822E+03</pdfrwt>
<totfact> 0.74397157E+02</totfact>
</mgrwt>
</event>
<event>
 6    1  0.2236204E-005  0.2275484E+04  0.7818608E-02  0.8487651E-01
          2   -1    0    0  501    0  0.00000000000E+00  0.00000000000E+00  0.10185659589E+04  0.10185659589E+04  0.00000000000E+00 0. -1.
         -2   -1    0    0    0  501 -0.00000000000E+00 -0.00000000000E+00 -0.12708616653E+04  0.12708616653E+04  0.00000000000E+00 0.  1.
         23    2    1    2    0    0 -0.10432075097E+04  0.23600159063E+03  0.25805151399E+03  0.11043398871E+04  0.94854325961E+02 0.  0.
         11    1    3    3    0    0 -0.99489899033E+03  0.20345012033E+03  0.24227094909E+03  0.10439881059E+04  0.00000000000E+00 0. -1.
        -11    1    3    3    0    0 -0.48308519412E+02  0.32551470298E+02  0.15780564906E+02  0.60351781209E+02  0.00000000000E+00 0.  1.
         22    1    1    2    0    0  0.10432075097E+04 -0.23600159063E+03 -0.51034722044E+03  0.11850877371E+04  0.00000000000E+00 0. -1.
<mgrwt>
<rscale>  0 0.22754836E+04</rscale>
<asrwt>0</asrwt>
<pdfrwt beam="1">  1        2 0.15670246E+00 0.22754836E+04</pdfrwt>
<pdfrwt beam="2">  1       -2 0.19551718E+00 0.22754836E+04</pdfrwt>
<totfact> 0.31693679E+00</totfact>
</mgrwt>
</event>
<event>
 6    1  0.2236204E-005  0.3225741E+04  0.7818608E-02  0.8182052E-01
          2   -1    0    0  501    0  0.00000000000E+00  0.00000000000E+00  0.21756527379E+04  0.21756527379E+04  0.00000000000E+00 0.  1.
         -2   -1    0    0    0  501 -0.00000000000E+00 -0.00000000000E+00 -0.11956650748E+04  0.11956650748E+04  0.00000000000E+00 0. -1.
         23    2    1    2    0    0  0.13460809000E+04 -0.55230764403E+03 -0.23400423546E+03  0.14763893568E+04  0.89386953257E+02 0.  0.
         13    1    3    3    0    0  0.27993167942E+03 -0.76529570968E+02 -0.50370769034E+02  0.29454326465E+03  0.00000000000E+00 0. -1.
        -13    1    3    3    0    0  0.10661492206E+04 -0.47577807306E+03 -0.18363346642E+03  0.11818460921E+04  0.00000000000E+00 0.  1.
         22    1    1    2    0    0 -0.13460809000E+04  0.55230764403E+03  0.12139918986E+04  0.18949284559E+04  0.00000000000E+00 0.  1.
<mgrwt>
<rscale>  0 0.32257415E+04</rscale>
<asrwt>0</asrwt>
<pdfrwt beam="1">  1        2 0.33471581E+00 0.32257415E+04</pdfrwt>
<pdfrwt beam="2">  1       -2 0.18394847E+00 0.32257415E+04</pdfrwt>
<totfact> 0.76281380E-01</totfact>
</mgrwt>
</event>
<event>
 6    1  0.2236204E-005  0.2195535E+04  0.7818608E-02  0.8520289E-01
          2   -1    0    0  501    0  0.00000000000E+00  0.00000000000E+00  0.13575146647E+04  0.13575146647E+04  0.00000000000E+00 0. -1.
         -2   -1    0    0    0  501 -0.00000000000E+00 -0.00000000000E+00 -0.88772012955E+03  0.88772012955E+03  0.00000000000E+00 0.  1.
         23    2    1    2    0    0 -0.23269627384E+03 -0.28262629690E+03 -0.82095188015E+03  0.90357481939E+03  0.91979808434E+02 0.  0.
         11    1    3    3    0    0 -0.23243407677E+03 -0.25606255799E+03 -0.71354232489E+03  0.79292892686E+03  0.00000000000E+00 0. -1.
        -11    1    3    3    0    0 -0.26219706945E+00 -0.26563738910E+02 -0.10740955526E+03  0.11064589253E+03  0.00000000000E+00 0.  1.
         22    1    1    2    0    0  0.23269627384E+03  0.28262629690E+03  0.12907464153E+04  0.13416599748E+04  0.00000000000E+00 0. -1.
<mgrwt>
<rscale>  0 0.21955346E+04</rscale>
<asrwt>0</asrwt>
<pdfrwt beam="1">  1        2 0.20884841E+00 0.21955346E+04</pdfrwt>
<pdfrwt beam="2">  1       -2 0.13657233E+00 0.21955346E+04</pdfrwt>
<totfact> 0.53616975E+00</totfact>
</mgrwt>
</event>
<event>
 6    1  0.2236204E-005  0.1517032E+04  0.7818608E-02  0.8873205E-01
         -2   -1    0    0    0  501 -0.00000000000E+00  0.00000000000E+00  0.90289732038E+03  0.90289732038E+03  0.00000000000E+00 0. -1.
          2   -1    0    0  501    0  0.00000000000E+00 -0.00000000000E+00 -0.63722240753E+03  0.63722240753E+03  0.00000000000E+00 0.  1.
         23    2    1    2    0    0  0.64340558617E+03  0.11842977781E+03  0.51307712654E+03  0.84068837608E+03  0.12454897555E+03 0.  0.
         13    1    3    3    0    0  0.44033159355E+03  0.21546934574E+02  0.34675024113E+03  0.56088493686E+03  0.00000000000E+00 0. -1.
        -13    1    3    3    0    0  0.20307399262E+03  0.96882843234E+02  0.16632688540E+03  0.27980343922E+03  0.00000000000E+00 0.  1.
         22    1    1    2    0    0 -0.64340558617E+03 -0.11842977781E+03 -0.24740221369E+03  0.69943135183E+03  0.00000000000E+00 0.  1.
<mgrwt>
<rscale>  0 0.15170318E+04</rscale>
<asrwt>0</asrwt>
<pdfrwt beam="1">  1        2 0.98034216E-01 0.15170318E+04</pdfrwt>
<pdfrwt beam="2">  1       -2 0.13890728E+00 0.15170318E+04</pdfrwt>
<totfact> 0.16290015E+01</totfact>
</mgrwt>
</event>
<event>
 6    1  0.2236204E-005  0.3266937E+04  0.7818608E-02  0.8171360E-01
          2   -1    0    0  501    0  0.00000000000E+00  0.00000000000E+00  0.25104002974E+04  0.25104002974E+04  0.00000000000E+00 0.  1.
         -2   -1    0    0    0  501 -0.00000000000E+00 -0.00000000000E+00 -0.10628657642E+04  0.10628657642E+04  0.00000000000E+00 0. -1.
         23    2    1    2    0    0 -0.80043099597E+03  0.32964126945E+03  0.22379863483E+04  0.24010172750E+04  0.83354145103E+02 0.  0.
         13    1    3    3    0    0 -0.28116083550E+03  0.11284742929E+03  0.67675074477E+03  0.74146984313E+03  0.00000000000E+00 0.  1.
        -13    1    3    3    0    0 -0.51927016047E+03  0.21679384016E+03  0.15612356036E+04  0.16595474318E+04  0.00000000000E+00 0. -1.
         22    1    1    2    0    0  0.80043099597E+03 -0.32964126945E+03 -0.79045181506E+03  0.11722487866E+04  0.00000000000E+00 0. -1.
<mgrwt>
<rscale>  0 0.32669365E+04</rscale>
<asrwt>0</asrwt>
<pdfrwt beam="1">  1        2 0.38621543E+00 0.32669365E+04</pdfrwt>
<pdfrwt beam="2">  1       -2 0.16351781E+00 0.32669365E+04</pdfrwt>
<totfact> 0.68223018E-01</totfact>
</mgrwt>
</event>
<event>
 6    1  0.2236204E-005  0.4357246E+04  0.7818608E-02  0.7936117E-01
         -2   -1    0    0    0  501 -0.00000000000E+00  0.00000000000E+00  0.14792247203E+04  0.14792247203E+04  0.00000000000E+00 0.  1.
          2   -1    0    0  501    0  0.00000000000E+00 -0.00000000000E+00 -0.32087062934E+04  0.32087062934E+04  0.00000000000E+00 0. -1.
         23    2    1    2    0    0 -0.12619022821E+04  0.14295656583E+04  0.26640676250E+03  0.19275640834E+04  0.92061889569E+02 0.  0.
         13    1    3    3    0    0 -0.79787033705E+03  0.96823522192E+03  0.18493103655E+03  0.12681782241E+04  0.00000000000E+00 0. -1.
        -13    1    3    3    0    0 -0.46403194509E+03  0.46133043638E+03  0.81475725959E+02  0.65938585935E+03  0.00000000000E+00 0.  1.
         22    1    1    2    0    0  0.12619022821E+04 -0.14295656583E+04 -0.19958883356E+04  0.27603669302E+04  0.00000000000E+00 0. -1.
<mgrwt>
<rscale>  0 0.43572458E+04</rscale>
<asrwt>0</asrwt>
<pdfrwt beam="1">  1        2 0.49364712E+00 0.43572458E+04</pdfrwt>
<pdfrwt beam="2">  1       -2 0.22757304E+00 0.43572458E+04</pdfrwt>
<totfact> 0.86777649E-02</totfact>
</mgrwt>
</event>
<event>
 6    1  0.2236204E-005  0.2421883E+04  0.7818608E-02  0.8431356E-01
          2   -1    0    0  501    0  0.00000000000E+00  0.00000000000E+00  0.20134578158E+04  0.20134578158E+04  0.00000000000E+00 0. -1.
         -2   -1    0    0    0  501 -0.00000000000E+00 -0.00000000000E+00 -0.72828911528E+03  0.72828911528E+03  0.00000000000E+00 0.  1.
         23    2    1    2    0    0  0.24900979958E+03  0.24065721046E+03 -0.66837573259E+03  0.75774652145E+03  0.86786506028E+02 0.  0.
         11    1    3    3    0    0  0.19990064122E+03  0.16661642885E+03 -0.42141025571E+03  0.49528567952E+03  0.00000000000E+00 0.  1.
        -11    1    3    3    0    0  0.49109158355E+02  0.74040781604E+02 -0.24696547688E+03  0.26246084193E+03  0.00000000000E+00 0. -1.
         22    1    1    2    0    0 -0.24900979958E+03 -0.24065721046E+03  0.19535444331E+04  0.19840004096E+04  0.00000000000E+00 0. -1.
<mgrwt>
<rscale>  0 0.24218831E+04</rscale>
<asrwt>0</asrwt>
<pdfrwt beam="1">  1        2 0.30976274E+00 0.24218831E+04</pdfrwt>
<pdfrwt beam="2">  1       -2 0.11204448E+00 0.24218831E+04</pdfrwt>
<totfact> 0.37033964E+00</totfact>
</mgrwt>
</event>
<event>
 6    1  0.2236204E-005  0.1834191E+04  0.7818608E-02  0.8688326E-01
          2   -1    0    0  501    0  0.00000000000E+00  0.00000000000E+00  0.78535996416E+03  0.78535996416E+03  0.00000000000E+00 0. -1.
         -2   -1    0    0    0  501 -0.00000000000E+00 -0.00000000000E+00 -0.10709278206E+04  0.10709278206E+04  0.00000000000E+00 0.  1.
         23    2    1    2    0    0  0.47066153290E+03  0.61868324807E+03  0.34479820392E+03  0.85546182082E+03  0.92940225189E+02 0.  0.
         13    1    3    3    0    0  0.17799861806E+03  0.23172514153E+03  0.17939423788E+03  0.34287365287E+03  0.00000000000E+00 0. -1.
        -13    1    3    3    0    0  0.29266291484E+03  0.38695810654E+03  0.16540396605E+03  0.51258816795E+03  0.00000000000E+00 0.  1.
         22    1    1    2    0    0 -0.47066153290E+03 -0.61868324807E+03 -0.63036606032E+03  0.10008259639E+04  0.00000000000E+00 0.  1.
<mgrwt>
<rscale>  0 0.18341906E+04</rscale>
<asrwt>0</asrwt>
<pdfrwt beam="1">  1        2 0.12082461E+00 0.18341906E+04</pdfrwt>
<pdfrwt beam="2">  1       -2 0.16475813E+00 0.18341906E+04</pdfrwt>
<totfact> 0.77220733E+00</totfact>
</mgrwt>
</event>
<event>
 6    1  0.2236204E-005  0.2542848E+04  0.7818608E-02  0.8387878E-01
          2   -1    0    0  501    0  0.00000000000E+00  0.00000000000E+00  0.18750664324E+04  0.18750664324E+04  0.00000000000E+00 0. -1.
         -2   -1    0    0    0  501 -0.00000000000E+00 -0.00000000000E+00 -0.86211300380E+03  0.86211300380E+03  0.00000000000E+00 0.  1.
         23    2    1    2    0    0 -0.13227469874E+03 -0.37932627724E+03 -0.78947476981E+03  0.89052504761E+03  0.91539214131E+02 0.  0.
         13    1    3    3    0    0 -0.62144439914E+02 -0.29496350501E+03 -0.60378220003E+03  0.67484690543E+03  0.00000000000E+00 0.  1.
        -13    1    3    3    0    0 -0.70130258828E+02 -0.84362772233E+02 -0.18569256978E+03  0.21567814218E+03  0.00000000000E+00 0. -1.
         22    1    1    2    0    0  0.13227469874E+03  0.37932627724E+03  0.18024281984E+04  0.18466543886E+04  0.00000000000E+00 0. -1.
<mgrwt>
<rscale>  0 0.25428481E+04</rscale>
<asrwt>0</asrwt>
<pdfrwt beam="1">  1        2 0.28847176E+00 0.25428481E+04</pdfrwt>
<pdfrwt beam="2">  1       -2 0.13263277E+00 0.25428481E+04</pdfrwt>
<totfact> 0.28758310E+00</totfact>
</mgrwt>
</event>
<event>
 6    1  0.2236204E-005  0.5953710E+04  0.7818608E-02  0.7696168E-01
          2   -1    0    0  501    0  0.00000000000E+00  0.00000000000E+00  0.48286357653E+04  0.48286357653E+04  0.00000000000E+00 0. -1.
         -2   -1    0    0    0  501 -0.00000000000E+00 -0.00000000000E+00 -0.18352315837E+04  0.18352315837E+04  0.00000000000E+00 0.  1.
         23    2    1    2    0    0  0.30412656091E+03  0.24332475432E+04 -0.39065107505E+03  0.24847506300E+04  0.90503365217E+02 0.  0.
         13    1    3    3    0    0  0.11446693124E+03  0.11242921042E+04 -0.21744152398E+03  0.11508328421E+04  0.00000000000E+00 0. -1.
        -13    1    3    3    0    0  0.18965962967E+03  0.13089554389E+04 -0.17320955108E+03  0.13339177879E+04  0.00000000000E+00 0.  1.
         22    1    1    2    0    0 -0.30412656091E+03 -0.24332475432E+04  0.33840552567E+04  0.41791167191E+04  0.00000000000E+00 0. -1.
<mgrwt>
<rscale>  0 0.59537097E+04</rscale>
<asrwt>0</asrwt>
<pdfrwt beam="1">  1        2 0.74286704E+00 0.59537097E+04</pdfrwt>
<pdfrwt beam="2">  1       -2 0.28234332E+00 0.59537097E+04</pdfrwt>
<totfact> 0.14934022E-03</totfact>
</mgrwt>
</event>
<event>
 6    1  0.2236204E-005  0.2380642E+04  0.7818608E-02  0.8446787E-01
         -2   -1    0    0    0  501 -0.00000000000E+00  0.00000000000E+00  0.12208518564E+04  0.12208518564E+04  0.00000000000E+00 0.  1.
          2   -1    0    0  501    0  0.00000000000E+00 -0.00000000000E+00 -0.11605533964E+04  0.11605533964E+04  0.00000000000E+00 0. -1.
         23    2    1    2    0    0 -0.39237015142E+03  0.53935773673E+03  0.10142348888E+04  0.12174225150E+04  0.92650236532E+02 0.  0.
         11    1    3    3    0    0 -0.17770205508E+03  0.28090580253E+03  0.43030450184E+03  0.54373527987E+03  0.00000000000E+00 0.  1.
        -11    1    3    3    0    0 -0.21466809634E+03  0.25845193420E+03  0.58393038697E+03  0.67368723508E+03  0.00000000000E+00 0. -1.
         22    1    1    2    0    0  0.39237015142E+03 -0.53935773673E+03 -0.95393642883E+03  0.11639827379E+04  0.00000000000E+00 0. -1.
<mgrwt>
<rscale>  0 0.23806417E+04</rscale>
<asrwt>0</asrwt>
<pdfrwt beam="1">  1        2 0.17854668E+00 0.23806417E+04</pdfrwt>
<pdfrwt beam="2">  1       -2 0.18782336E+00 0.23806417E+04</pdfrwt>
<totfact> 0.28885625E+00</totfact>
</mgrwt>
</event>
<event>
 6    1  0.2236204E-005  0.1912579E+04  0.7818608E-02  0.8648620E-01
          4   -1    0    0  501    0  0.00000000000E+00  0.00000000000E+00  0.52753815538E+03  0.52753815538E+03  0.00000000000E+00 0. -1.
         -4   -1    0    0    0  501 -0.00000000000E+00 -0.00000000000E+00 -0.17335047724E+04  0.17335047724E+04  0.00000000000E+00 0.  1.
         23    2    1    2    0    0 -0.64424564910E+03  0.68967084532E+03 -0.43893481415E+03  0.10448866394E+04  0.91793173865E+02 0.  0.
         11    1    3    3    0    0 -0.41322734003E+03  0.38438538343E+03 -0.28513030776E+03  0.63230392213E+03  0.00000000000E+00 0.  1.
        -11    1    3    3    0    0 -0.23101830907E+03  0.30528546189E+03 -0.15380450639E+03  0.41258271723E+03  0.00000000000E+00 0. -1.
         22    1    1    2    0    0  0.64424564910E+03 -0.68967084532E+03 -0.76703180291E+03  0.12161562885E+04  0.00000000000E+00 0. -1.
<mgrwt>
<rscale>  0 0.19125793E+04</rscale>
<asrwt>0</asrwt>
<pdfrwt beam="1">  1        4 0.81159716E-01 0.19125793E+04</pdfrwt>
<pdfrwt beam="2">  1       -4 0.26669304E+00 0.19125793E+04</pdfrwt>
<totfact> 0.12516989E-01</totfact>
</mgrwt>
</event>
<event>
 6    1  0.2236204E-005  0.1214457E+04  0.7818608E-02  0.9100296E-01
         -2   -1    0    0    0  501 -0.00000000000E+00  0.00000000000E+00  0.60060997724E+03  0.60060997724E+03  0.00000000000E+00 0.  1.
          2   -1    0    0  501    0  0.00000000000E+00 -0.00000000000E+00 -0.61391969635E+03  0.61391969635E+03  0.00000000000E+00 0. -1.
         23    2    1    2    0    0 -0.42693011243E+02 -0.56088249432E+03 -0.22483877373E+03  0.61356677408E+03  0.97467155709E+02 0.  0.
         11    1    3    3    0    0 -0.33926665941E+02 -0.34232289719E+03 -0.18713303965E+03  0.39160536147E+03  0.00000000000E+00 0. -1.
        -11    1    3    3    0    0 -0.87663453019E+01 -0.21855959713E+03 -0.37705734085E+02  0.22196141261E+03  0.00000000000E+00 0.  1.
         22    1    1    2    0    0  0.42693011243E+02  0.56088249432E+03  0.21152905462E+03  0.60096289951E+03  0.00000000000E+00 0.  1.
<mgrwt>
<rscale>  0 0.12144567E+04</rscale>
<asrwt>0</asrwt>
<pdfrwt beam="1">  1        2 0.94449184E-01 0.12144567E+04</pdfrwt>
<pdfrwt beam="2">  1       -2 0.92401535E-01 0.12144567E+04</pdfrwt>
<totfact> 0.47294008E+01</totfact>
</mgrwt>
</event>
<event>
 6    1  0.2236204E-005  0.2381619E+04  0.7818608E-02  0.8446417E-01
         -2   -1    0    0    0  501 -0.00000000000E+00  0.00000000000E+00  0.13532133187E+04  0.13532133187E+04  0.00000000000E+00 0.  1.
          2   -1    0    0  501    0  0.00000000000E+00 -0.00000000000E+00 -0.10478962469E+04  0.10478962469E+04  0.00000000000E+00 0. -1.
         23    2    1    2    0    0  0.24292059567E+03 -0.11191861917E+04 -0.16949439865E+03  0.11613377801E+04  0.91591161541E+02 0.  0.
         13    1    3    3    0    0  0.12063778276E+03 -0.60470123511E+03 -0.13615346955E+03  0.63147036798E+03  0.00000000000E+00 0.  1.
        -13    1    3    3    0    0  0.12228281291E+03 -0.51448495662E+03 -0.33340929095E+02  0.52986741217E+03  0.00000000000E+00 0. -1.
         22    1    1    2    0    0 -0.24292059567E+03  0.11191861917E+04  0.47481147048E+03  0.12397717855E+04  0.00000000000E+00 0.  1.
<mgrwt>
<rscale>  0 0.23816189E+04</rscale>
<asrwt>0</asrwt>
<pdfrwt beam="1">  1        2 0.16121481E+00 0.23816189E+04</pdfrwt>
<pdfrwt beam="2">  1       -2 0.20818667E+00 0.23816189E+04</pdfrwt>
<totfact> 0.24870127E+00</totfact>
</mgrwt>
</event>
<event>
 6    1  0.2236204E-005  0.1087103E+04  0.7818608E-02  0.9217854E-01
          2   -1    0    0  501    0  0.00000000000E+00  0.00000000000E+00  0.30405744333E+04  0.30405744333E+04  0.00000000000E+00 0. -1.
         -2   -1    0    0    0  501 -0.00000000000E+00 -0.00000000000E+00 -0.97168540742E+02  0.97168540742E+02  0.00000000000E+00 0.  1.
         23    2    1    2    0    0 -0.18972296681E+03  0.48049292454E+03  0.19331410969E+04  0.20030609868E+04  0.91381409131E+02 0.  0.
         13    1    3    3    0    0 -0.18255241078E+03  0.38853002824E+03  0.16670821196E+04  0.17214655846E+04  0.00000000000E+00 0. -1.
        -13    1    3    3    0    0 -0.71705560280E+01  0.91962896298E+02  0.26605897728E+03  0.28159540224E+03  0.00000000000E+00 0.  1.
         22    1    1    2    0    0  0.18972296681E+03 -0.48049292454E+03  0.10102647957E+04  0.11346819872E+04  0.00000000000E+00 0. -1.
<mgrwt>
<rscale>  0 0.10871029E+04</rscale>
<asrwt>0</asrwt>
<pdfrwt beam="1">  1        2 0.46778061E+00 0.10871029E+04</pdfrwt>
<pdfrwt beam="2">  1       -2 0.14949009E-01 0.10871029E+04</pdfrwt>
<totfact> 0.58795572E+01</totfact>
</mgrwt>
</event>
<event>
 6    1  0.2236204E-005  0.1404246E+04  0.7818608E-02  0.8950751E-01
          2   -1    0    0  501    0  0.00000000000E+00  0.00000000000E+00  0.17604133322E+04  0.17604133322E+04  0.00000000000E+00 0. -1.
         -2   -1    0    0    0  501 -0.00000000000E+00 -0.00000000000E+00 -0.28003471278E+03  0.28003471278E+03  0.00000000000E+00 0.  1.
         23    2    1    2    0    0  0.19698179132E+03 -0.63353826839E+03  0.41517042483E+03  0.78552132942E+03  0.67117163901E+02 0.  0.
         13    1    3    3    0    0  0.99816082891E+01 -0.80139680198E+02  0.70990356328E+02  0.10752502750E+03  0.00000000000E+00 0.  1.
        -13    1    3    3    0    0  0.18700018303E+03 -0.55339858819E+03  0.34418006851E+03  0.67799630192E+03  0.00000000000E+00 0. -1.
         22    1    1    2    0    0 -0.19698179132E+03  0.63353826839E+03  0.10652081946E+04  0.12549267156E+04  0.00000000000E+00 0. -1.
<mgrwt>
<rscale>  0 0.14042462E+04</rscale>
<asrwt>0</asrwt>
<pdfrwt beam="1">  1        2 0.27083281E+00 0.14042462E+04</pdfrwt>
<pdfrwt beam="2">  1       -2 0.43082265E-01 0.14042462E+04</pdfrwt>
<totfact> 0.45113718E+01</totfact>
</mgrwt>
</event>
<event>
 6    1  0.2236204E-005  0.5300920E+04  0.7818608E-02  0.7783693E-01
         -2   -1    0    0    0  501 -0.00000000000E+00  0.00000000000E+00  0.32987878803E+04  0.32987878803E+04  0.00000000000E+00 0.  1.
          2   -1    0    0  501    0  0.00000000000E+00 -0.00000000000E+00 -0.21295512534E+04  0.21295512534E+04  0.00000000000E+00 0. -1.
         23    2    1    2    0    0  0.46584573663E+02  0.13964535994E+04  0.28902500542E+04  0.32115531732E+04  0.90970492174E+02 0.  0.
         13    1    3    3    0    0  0.61532898568E+02  0.11059434895E+04  0.23502234495E+04  0.25981623433E+04  0.00000000000E+00 0. -1.
        -13    1    3    3    0    0 -0.14948324905E+02  0.29051010988E+03  0.54002660475E+03  0.61339082989E+03  0.00000000000E+00 0.  1.
         22    1    1    2    0    0 -0.46584573663E+02 -0.13964535994E+04 -0.17210134273E+04  0.22167859605E+04  0.00000000000E+00 0. -1.
<mgrwt>
<rscale>  0 0.53009199E+04</rscale>
<asrwt>0</asrwt>
<pdfrwt beam="1">  1        2 0.32762327E+00 0.53009199E+04</pdfrwt>
<pdfrwt beam="2">  1       -2 0.50750583E+00 0.53009199E+04</pdfrwt>
<totfact> 0.60194788E-03</totfact>
</mgrwt>
</event>
<event>
 6    1  0.2236204E-005  0.2015051E+04  0.7818608E-02  0.8599616E-01
          2   -1    0    0  501    0  0.00000000000E+00  0.00000000000E+00  0.95541464230E+03  0.95541464230E+03  0.00000000000E+00 0. -1.
         -2   -1    0    0    0  501 -0.00000000000E+00 -0.00000000000E+00 -0.10624791237E+04  0.10624791237E+04  0.00000000000E+00 0.  1.
         23    2    1    2    0    0  0.44811936595E+03  0.79878856077E+03  0.36167075866E+03  0.98901726408E+03  0.92061284019E+02 0.  0.
         13    1    3    3    0    0  0.23678499076E+03  0.34465214157E+03  0.13686626023E+03  0.43998250389E+03  0.00000000000E+00 0.  1.
        -13    1    3    3    0    0  0.21133437518E+03  0.45413641920E+03  0.22480449842E+03  0.54903476018E+03  0.00000000000E+00 0. -1.
         22    1    1    2    0    0 -0.44811936595E+03 -0.79878856077E+03 -0.46873524008E+03  0.10288765019E+04  0.00000000000E+00 0. -1.
<mgrwt>
<rscale>  0 0.20150515E+04</rscale>
<asrwt>0</asrwt>
<pdfrwt beam="1">  1        2 0.14698687E+00 0.20150515E+04</pdfrwt>
<pdfrwt beam="2">  1       -2 0.16345833E+00 0.20150515E+04</pdfrwt>
<totfact> 0.59350351E+00</totfact>
</mgrwt>
</event>
<event>
 6    1  0.2236204E-005  0.2869258E+04  0.7818608E-02  0.8282083E-01
          1   -1    0    0  501    0  0.00000000000E+00  0.00000000000E+00  0.48010267454E+04  0.48010267454E+04  0.00000000000E+00 0. -1.
         -1   -1    0    0    0  501 -0.00000000000E+00 -0.00000000000E+00 -0.42869170492E+03  0.42869170492E+03  0.00000000000E+00 0.  1.
         23    2    1    2    0    0 -0.10220594638E+04 -0.97741649986E+03  0.17643191138E+04  0.22629532699E+04  0.90482069451E+02 0.  0.
         13    1    3    3    0    0 -0.43075746409E+03 -0.47402192161E+03  0.80362178123E+03  0.10276462146E+04  0.00000000000E+00 0.  1.
        -13    1    3    3    0    0 -0.59130199969E+03 -0.50339457825E+03  0.96069733259E+03  0.12353070554E+04  0.00000000000E+00 0. -1.
         22    1    1    2    0    0  0.10220594638E+04  0.97741649986E+03  0.26080159266E+04  0.29667651803E+04  0.00000000000E+00 0. -1.
<mgrwt>
<rscale>  0 0.28692580E+04</rscale>
<asrwt>0</asrwt>
<pdfrwt beam="1">  1        1 0.73861946E+00 0.28692580E+04</pdfrwt>
<pdfrwt beam="2">  1       -1 0.65952573E-01 0.28692580E+04</pdfrwt>
<totfact> 0.30356544E-02</totfact>
</mgrwt>
</event>
<event>
 6    1  0.2236204E-005  0.7592903E+03  0.7818608E-02  0.9620887E-01
          2   -1    0    0  501    0  0.00000000000E+00  0.00000000000E+00  0.26887849138E+03  0.26887849138E+03  0.00000000000E+00 0. -1.
         -2   -1    0    0    0  501 -0.00000000000E+00 -0.00000000000E+00 -0.53604305634E+03  0.53604305634E+03  0.00000000000E+00 0.  1.
         23    2    1    2    0    0 -0.45283203620E+02 -0.81331315295E+02  0.24778706992E+03  0.28162379534E+03  0.96167451385E+02 0.  0.
         11    1    3    3    0    0 -0.64859622129E+02 -0.43116757485E+02  0.21157707893E+03  0.22545661598E+03  0.00000000000E+00 0. -1.
        -11    1    3    3    0    0  0.19576418509E+02 -0.38214557811E+02  0.36209990983E+02  0.56167179361E+02  0.00000000000E+00 0.  1.
         22    1    1    2    0    0  0.45283203620E+02  0.81331315295E+02 -0.51495163488E+03  0.52329775237E+03  0.00000000000E+00 0.  1.
<mgrwt>
<rscale>  0 0.75929032E+03</rscale>
<asrwt>0</asrwt>
<pdfrwt beam="1">  1        2 0.41365922E-01 0.75929032E+03</pdfrwt>
<pdfrwt beam="2">  1       -2 0.82468162E-01 0.75929032E+03</pdfrwt>
<totfact> 0.16150361E+02</totfact>
</mgrwt>
</event>
<event>
 6    1  0.2236204E-005  0.5245139E+04  0.7818608E-02  0.7791766E-01
          2   -1    0    0  501    0  0.00000000000E+00  0.00000000000E+00  0.25844472897E+04  0.25844472897E+04  0.00000000000E+00 0. -1.
         -2   -1    0    0    0  501 -0.00000000000E+00 -0.00000000000E+00 -0.26612541002E+04  0.26612541002E+04  0.00000000000E+00 0.  1.
         23    2    1    2    0    0 -0.23967088726E+04 -0.98365914120E+02 -0.10967545479E+04  0.26391360905E+04  0.90991720774E+02 0.  0.
         11    1    3    3    0    0 -0.17130272432E+04 -0.10428826035E+03 -0.80959326589E+03  0.18975720364E+04  0.00000000000E+00 0. -1.
        -11    1    3    3    0    0 -0.68368162933E+03  0.59223462341E+01 -0.28716128197E+03  0.74156405410E+03  0.00000000000E+00 0.  1.
         22    1    1    2    0    0  0.23967088726E+04  0.98365914120E+02  0.10199477374E+04  0.26065652994E+04  0.00000000000E+00 0. -1.
<mgrwt>
<rscale>  0 0.52451391E+04</rscale>
<asrwt>0</asrwt>
<pdfrwt beam="1">  1        2 0.39760727E+00 0.52451391E+04</pdfrwt>
<pdfrwt beam="2">  1       -2 0.40942371E+00 0.52451391E+04</pdfrwt>
<totfact> 0.14303116E-02</totfact>
</mgrwt>
</event>
<event>
 6    1  0.2236204E-005  0.1329170E+04  0.7818608E-02  0.9006748E-01
         -4   -1    0    0    0  501 -0.00000000000E+00  0.00000000000E+00  0.28055562216E+03  0.28055562216E+03  0.00000000000E+00 0.  1.
          4   -1    0    0  501    0  0.00000000000E+00 -0.00000000000E+00 -0.15742802709E+04  0.15742802709E+04  0.00000000000E+00 0. -1.
         23    2    1    2    0    0 -0.42472684737E+03 -0.14852293019E+03  0.25607785929E+02  0.46088825099E+03  0.96489717212E+02 0.  0.
         11    1    3    3    0    0 -0.28636039284E+03 -0.14246805604E+03 -0.10639348035E+01  0.31984457716E+03  0.00000000000E+00 0. -1.
        -11    1    3    3    0    0 -0.13836645453E+03 -0.60548741482E+01  0.26671720733E+02  0.14104367383E+03  0.00000000000E+00 0.  1.
         22    1    1    2    0    0  0.42472684737E+03  0.14852293019E+03 -0.13193324346E+04  0.13939476420E+04  0.00000000000E+00 0. -1.
<mgrwt>
<rscale>  0 0.13291699E+04</rscale>
<asrwt>0</asrwt>
<pdfrwt beam="1">  1        4 0.24219697E+00 0.13291699E+04</pdfrwt>
<pdfrwt beam="2">  1       -4 0.43162403E-01 0.13291699E+04</pdfrwt>
<totfact> 0.72413028E-01</totfact>
</mgrwt>
</event>
<event>
 6    1  0.2236204E-005  0.2762092E+04  0.7818608E-02  0.8315135E-01
         -2   -1    0    0    0  501 -0.00000000000E+00  0.00000000000E+00  0.59978651781E+03  0.59978651781E+03  0.00000000000E+00 0.  1.
          2   -1    0    0  501    0  0.00000000000E+00 -0.00000000000E+00 -0.31799449426E+04  0.31799449426E+04  0.00000000000E+00 0. -1.
         23    2    1    2    0    0  0.12520469103E+04 -0.48128012636E+02 -0.50220264813E+03  0.13532447036E+04  0.95529875187E+02 0.  0.
         13    1    3    3    0    0  0.26727977100E+03  0.28801187427E+02 -0.10486087968E+03  0.28855465421E+03  0.00000000000E+00 0.  1.
        -13    1    3    3    0    0  0.98476713926E+03 -0.76929200063E+02 -0.39734176845E+03  0.10646900494E+04  0.00000000000E+00 0. -1.
         22    1    1    2    0    0 -0.12520469103E+04  0.48128012636E+02 -0.20779557767E+04  0.24264867568E+04  0.00000000000E+00 0. -1.
<mgrwt>
<rscale>  0 0.27620920E+04</rscale>
<asrwt>0</asrwt>
<pdfrwt beam="1">  1        2 0.48922230E+00 0.27620920E+04</pdfrwt>
<pdfrwt beam="2">  1       -2 0.92274849E-01 0.27620920E+04</pdfrwt>
<totfact> 0.11631219E+00</totfact>
</mgrwt>
</event>
<event>
 6    1  0.2236204E-005  0.4163439E+04  0.7818608E-02  0.7972364E-01
         -2   -1    0    0    0  501 -0.00000000000E+00  0.00000000000E+00  0.25527519690E+04  0.25527519690E+04  0.00000000000E+00 0.  1.
          2   -1    0    0  501    0  0.00000000000E+00 -0.00000000000E+00 -0.16976015876E+04  0.16976015876E+04  0.00000000000E+00 0. -1.
         23    2    1    2    0    0 -0.70723509645E+03 -0.61246874164E+02  0.24244833336E+04  0.25279312577E+04  0.91566083430E+02 0.  0.
         13    1    3    3    0    0 -0.31585361187E+03 -0.51530716797E+02  0.12284613593E+04  0.12694629692E+04  0.00000000000E+00 0. -1.
        -13    1    3    3    0    0 -0.39138148458E+03 -0.97161573669E+01  0.11960219743E+04  0.12584682885E+04  0.00000000000E+00 0.  1.
         22    1    1    2    0    0  0.70723509645E+03  0.61246874164E+02 -0.15693329521E+04  0.17224222990E+04  0.00000000000E+00 0. -1.
<mgrwt>
<rscale>  0 0.41634389E+04</rscale>
<asrwt>0</asrwt>
<pdfrwt beam="1">  1        2 0.26116947E+00 0.41634389E+04</pdfrwt>
<pdfrwt beam="2">  1       -2 0.39273107E+00 0.41634389E+04</pdfrwt>
<totfact> 0.63389746E-02</totfact>
</mgrwt>
</event>
<event>
 6    1  0.2236204E-005  0.2737513E+04  0.7818608E-02  0.8322935E-01
         -2   -1    0    0    0  501 -0.00000000000E+00  0.00000000000E+00  0.16608345793E+04  0.16608345793E+04  0.00000000000E+00 0. -1.
          2   -1    0    0  501    0  0.00000000000E+00 -0.00000000000E+00 -0.11280440662E+04  0.11280440662E+04  0.00000000000E+00 0.  1.
         23    2    1    2    0    0  0.61430864001E+03 -0.98862794135E+02 -0.97350753041E+03  0.11591293540E+04  0.93354112269E+02 0.  0.
         11    1    3    3    0    0  0.48535964462E+03 -0.89928852594E+02 -0.83250443122E+03  0.96784544797E+03  0.00000000000E+00 0.  1.
        -11    1    3    3    0    0  0.12894899540E+03 -0.89339415404E+01 -0.14100309919E+03  0.19128390603E+03  0.00000000000E+00 0. -1.
         22    1    1    2    0    0 -0.61430864001E+03  0.98862794135E+02  0.15062980435E+04  0.16297492915E+04  0.00000000000E+00 0. -1.
<mgrwt>
<rscale>  0 0.27375132E+04</rscale>
<asrwt>0</asrwt>
<pdfrwt beam="1">  1        2 0.17354524E+00 0.27375132E+04</pdfrwt>
<pdfrwt beam="2">  1       -2 0.25551302E+00 0.27375132E+04</pdfrwt>
<totfact> 0.10884483E+00</totfact>
</mgrwt>
</event>
<event>
 6    1  0.2236204E-005  0.1825786E+04  0.7818608E-02  0.8692706E-01
         -2   -1    0    0    0  501 -0.00000000000E+00  0.00000000000E+00  0.10587970655E+04  0.10587970655E+04  0.00000000000E+00 0.  1.
          2   -1    0    0  501    0  0.00000000000E+00 -0.00000000000E+00 -0.78709452623E+03  0.78709452623E+03  0.00000000000E+00 0. -1.
         23    2    1    2    0    0 -0.59762157389E+03  0.43374326320E+03  0.67464809794E+03  0.10046723057E+04  0.94507257810E+02 0.  0.
         11    1    3    3    0    0 -0.42390134451E+03  0.28305761944E+03  0.41065562399E+03  0.65456245487E+03  0.00000000000E+00 0.  1.
        -11    1    3    3    0    0 -0.17372022938E+03  0.15068564375E+03  0.26399247395E+03  0.35010985080E+03  0.00000000000E+00 0. -1.
         22    1    1    2    0    0  0.59762157389E+03 -0.43374326320E+03 -0.40294555869E+03  0.84121928605E+03  0.00000000000E+00 0. -1.
<mgrwt>
<rscale>  0 0.18257857E+04</rscale>
<asrwt>0</asrwt>
<pdfrwt beam="1">  1        2 0.12109147E+00 0.18257857E+04</pdfrwt>
<pdfrwt beam="2">  1       -2 0.16289186E+00 0.18257857E+04</pdfrwt>
<totfact> 0.79499316E+00</totfact>
</mgrwt>
</event>
<event>
 6    1  0.2236204E-005  0.3420896E+04  0.7818608E-02  0.8132797E-01
          2   -1    0    0  501    0  0.00000000000E+00  0.00000000000E+00  0.24771983315E+04  0.24771983315E+04  0.00000000000E+00 0.  1.
         -2   -1    0    0    0  501 -0.00000000000E+00 -0.00000000000E+00 -0.11810249326E+04  0.11810249326E+04  0.00000000000E+00 0. -1.
         23    2    1    2    0    0  0.16518546891E+04  0.41849831271E+03  0.50577897565E+03  0.17797962370E+04  0.89986228081E+02 0.  0.
         11    1    3    3    0    0  0.11624243792E+04  0.27065443152E+03  0.38951842188E+03  0.12554715686E+04  0.00000000000E+00 0. -1.
        -11    1    3    3    0    0  0.48943030996E+03  0.14784388119E+03  0.11626055378E+03  0.52432466839E+03  0.00000000000E+00 0.  1.
         22    1    1    2    0    0 -0.16518546891E+04 -0.41849831271E+03  0.79039442326E+03  0.18784270271E+04  0.00000000000E+00 0.  1.
<mgrwt>
<rscale>  0 0.34208964E+04</rscale>
<asrwt>0</asrwt>
<pdfrwt beam="1">  1        2 0.38110743E+00 0.34208964E+04</pdfrwt>
<pdfrwt beam="2">  1       -2 0.18169614E+00 0.34208964E+04</pdfrwt>
<totfact> 0.52379506E-01</totfact>
</mgrwt>
</event>
<event>
 6    1  0.2236204E-005  0.2341878E+04  0.7818608E-02  0.8461590E-01
         -2   -1    0    0    0  501 -0.00000000000E+00  0.00000000000E+00  0.87018743874E+03  0.87018743874E+03  0.00000000000E+00 0. -1.
          2   -1    0    0  501    0  0.00000000000E+00 -0.00000000000E+00 -0.15756348951E+04  0.15756348951E+04  0.00000000000E+00 0.  1.
         23    2    1    2    0    0  0.72400849462E+03 -0.77621496562E+03  0.15863387588E+03  0.10771242218E+04  0.91290248626E+02 0.  0.
         13    1    3    3    0    0  0.26422636665E+03 -0.26850967282E+03  0.13464760628E+02  0.37695399854E+03  0.00000000000E+00 0.  1.
        -13    1    3    3    0    0  0.45978212797E+03 -0.50770529280E+03  0.14516911526E+03  0.70017022327E+03  0.00000000000E+00 0. -1.
         22    1    1    2    0    0 -0.72400849462E+03  0.77621496562E+03 -0.86408133225E+03  0.13686981120E+04  0.00000000000E+00 0.  1.
<mgrwt>
<rscale>  0 0.23418776E+04</rscale>
<asrwt>0</asrwt>
<pdfrwt beam="1">  1        2 0.24240537E+00 0.23418776E+04</pdfrwt>
<pdfrwt beam="2">  1       -2 0.13387499E+00 0.23418776E+04</pdfrwt>
<totfact> 0.41914480E+00</totfact>
</mgrwt>
</event>
<event>
 6    1  0.2236204E-005  0.2098175E+04  0.7818608E-02  0.8562048E-01
          2   -1    0    0  501    0  0.00000000000E+00  0.00000000000E+00  0.79260097522E+03  0.79260097522E+03  0.00000000000E+00 0. -1.
         -2   -1    0    0    0  501 -0.00000000000E+00 -0.00000000000E+00 -0.13885732703E+04  0.13885732703E+04  0.00000000000E+00 0.  1.
         23    2    1    2    0    0 -0.24537935440E+02  0.36032046233E+03 -0.13202380513E+04  0.13718573536E+04  0.92364174022E+02 0.  0.
         13    1    3    3    0    0  0.22766465756E+02  0.25378979190E+03 -0.95933438782E+03  0.99259762144E+03  0.00000000000E+00 0.  1.
        -13    1    3    3    0    0 -0.47304401195E+02  0.10653067043E+03 -0.36090366346E+03  0.37925973213E+03  0.00000000000E+00 0. -1.
         22    1    1    2    0    0  0.24537935440E+02 -0.36032046233E+03  0.72426575624E+03  0.80931689190E+03  0.00000000000E+00 0. -1.
<mgrwt>
<rscale>  0 0.20981749E+04</rscale>
<asrwt>0</asrwt>
<pdfrwt beam="1">  1        2 0.12193861E+00 0.20981749E+04</pdfrwt>
<pdfrwt beam="2">  1       -2 0.21362666E+00 0.20981749E+04</pdfrwt>
<totfact> 0.34867778E+00</totfact>
</mgrwt>
</event>
<event>
 6    1  0.2236204E-005  0.8508814E+03  0.7818608E-02  0.9489155E-01
          2   -1    0    0  501    0  0.00000000000E+00  0.00000000000E+00  0.61868882243E+03  0.61868882243E+03  0.00000000000E+00 0. -1.
         -2   -1    0    0    0  501 -0.00000000000E+00 -0.00000000000E+00 -0.29255382782E+03  0.29255382782E+03  0.00000000000E+00 0.  1.
         23    2    1    2    0    0 -0.18068103557E+03 -0.29478190144E+03 -0.91549562556E+02  0.36902277296E+03  0.90854160739E+02 0.  0.
         11    1    3    3    0    0 -0.15849639570E+03 -0.21352361986E+03 -0.10058451837E+03  0.28430738475E+03  0.00000000000E+00 0.  1.
        -11    1    3    3    0    0 -0.22184639865E+02 -0.81258281582E+02  0.90349558169E+01  0.84715388202E+02  0.00000000000E+00 0. -1.
         22    1    1    2    0    0  0.18068103557E+03  0.29478190144E+03  0.41768455717E+03  0.54221987729E+03  0.00000000000E+00 0. -1.
<mgrwt>
<rscale>  0 0.85088139E+03</rscale>
<asrwt>0</asrwt>
<pdfrwt beam="1">  1        2 0.95182895E-01 0.85088139E+03</pdfrwt>
<pdfrwt beam="2">  1       -2 0.45008281E-01 0.85088139E+03</pdfrwt>
<totfact> 0.22476194E+02</totfact>
</mgrwt>
</event>
<event>
 6    1  0.2236204E-005  0.2967287E+04  0.7818608E-02  0.8253134E-01
          2   -1    0    0  501    0  0.00000000000E+00  0.00000000000E+00  0.25237442830E+04  0.25237442830E+04  0.00000000000E+00 0. -1.
         -2   -1    0    0    0  501 -0.00000000000E+00 -0.00000000000E+00 -0.87219531107E+03  0.87219531107E+03  0.00000000000E+00 0.  1.
         23    2    1    2    0    0  0.11846695139E+04  0.82177861498E+03  0.12202112828E+04  0.18910096451E+04  0.90774192587E+02 0.  0.
         11    1    3    3    0    0  0.58569303515E+03  0.39506653498E+03  0.53974190649E+03  0.88906424070E+03  0.00000000000E+00 0.  1.
        -11    1    3    3    0    0  0.59897647876E+03  0.42671208000E+03  0.68046937633E+03  0.10019454044E+04  0.00000000000E+00 0. -1.
         22    1    1    2    0    0 -0.11846695139E+04 -0.82177861498E+03  0.43133768914E+03  0.15049299490E+04  0.00000000000E+00 0. -1.
<mgrwt>
<rscale>  0 0.29672869E+04</rscale>
<asrwt>0</asrwt>
<pdfrwt beam="1">  1        2 0.38826835E+00 0.29672869E+04</pdfrwt>
<pdfrwt beam="2">  1       -2 0.13418390E+00 0.29672869E+04</pdfrwt>
<totfact> 0.11594803E+00</totfact>
</mgrwt>
</event>
<event>
 6    1  0.2236204E-005  0.1921240E+04  0.7818608E-02  0.8644356E-01
          2   -1    0    0  501    0  0.00000000000E+00  0.00000000000E+00  0.74489532780E+03  0.74489532780E+03  0.00000000000E+00 0. -1.
         -2   -1    0    0    0  501 -0.00000000000E+00 -0.00000000000E+00 -0.12388190491E+04  0.12388190491E+04  0.00000000000E+00 0.  1.
         23    2    1    2    0    0  0.35992223465E+03  0.19102433851E+03  0.64819043189E+03  0.77108951659E+03  0.91618195274E+02 0.  0.
         13    1    3    3    0    0  0.18489552074E+03  0.64458884586E+02  0.37284334886E+03  0.42113354673E+03  0.00000000000E+00 0. -1.
        -13    1    3    3    0    0  0.17502671391E+03  0.12656545393E+03  0.27534708303E+03  0.34995596987E+03  0.00000000000E+00 0.  1.
         22    1    1    2    0    0 -0.35992223465E+03 -0.19102433851E+03 -0.11421141532E+04  0.12126248603E+04  0.00000000000E+00 0.  1.
<mgrwt>
<rscale>  0 0.19212397E+04</rscale>
<asrwt>0</asrwt>
<pdfrwt beam="1">  1        2 0.11459928E+00 0.19212397E+04</pdfrwt>
<pdfrwt beam="2">  1       -2 0.19058754E+00 0.19212397E+04</pdfrwt>
<totfact> 0.54299799E+00</totfact>
</mgrwt>
</event>
<event>
 6    1  0.2236204E-005  0.1978058E+04  0.7818608E-02  0.8616949E-01
         -2   -1    0    0    0  501 -0.00000000000E+00  0.00000000000E+00  0.38401431269E+03  0.38401431269E+03  0.00000000000E+00 0. -1.
          2   -1    0    0  501    0  0.00000000000E+00 -0.00000000000E+00 -0.25472441940E+04  0.25472441940E+04  0.00000000000E+00 0.  1.
         23    2    1    2    0    0  0.75231695692E+03  0.44022076644E+03 -0.39567879709E+03  0.96046882684E+03  0.78508152342E+02 0.  0.
         11    1    3    3    0    0  0.41760069142E+03  0.27420960044E+03 -0.25815291112E+03  0.56233812602E+03  0.00000000000E+00 0. -1.
        -11    1    3    3    0    0  0.33471626550E+03  0.16601116600E+03 -0.13752588597E+03  0.39813070082E+03  0.00000000000E+00 0.  1.
         22    1    1    2    0    0 -0.75231695692E+03 -0.44022076644E+03 -0.17675510842E+04  0.19707896799E+04  0.00000000000E+00 0.  1.
<mgrwt>
<rscale>  0 0.19780579E+04</rscale>
<asrwt>0</asrwt>
<pdfrwt beam="1">  1        2 0.39188371E+00 0.19780579E+04</pdfrwt>
<pdfrwt beam="2">  1       -2 0.59079127E-01 0.19780579E+04</pdfrwt>
<totfact> 0.81442892E+00</totfact>
</mgrwt>
</event>
<event>
 6    1  0.2236204E-005  0.3509388E+04  0.7818608E-02  0.8111569E-01
         -2   -1    0    0    0  501 -0.00000000000E+00  0.00000000000E+00  0.10226686078E+04  0.10226686078E+04  0.00000000000E+00 0.  1.
          2   -1    0    0  501    0  0.00000000000E+00 -0.00000000000E+00 -0.30107028197E+04  0.30107028197E+04  0.00000000000E+00 0. -1.
         23    2    1    2    0    0  0.49980451831E+02  0.94715016551E+03 -0.26897363306E+04  0.28535505322E+04  0.92074047671E+02 0.  0.
         11    1    3    3    0    0  0.51439885830E+02  0.28505808965E+03 -0.88497978667E+03  0.93117850015E+03  0.00000000000E+00 0. -1.
        -11    1    3    3    0    0 -0.14594339987E+01  0.66209207586E+03 -0.18047565439E+04  0.19223720321E+04  0.00000000000E+00 0.  1.
         22    1    1    2    0    0 -0.49980451831E+02 -0.94715016551E+03  0.70170211863E+03  0.11798208953E+04  0.00000000000E+00 0.  1.
<mgrwt>
<rscale>  0 0.35093881E+04</rscale>
<asrwt>0</asrwt>
<pdfrwt beam="1">  1        2 0.46318504E+00 0.35093881E+04</pdfrwt>
<pdfrwt beam="2">  1       -2 0.15733363E+00 0.35093881E+04</pdfrwt>
<totfact> 0.37088180E-01</totfact>
</mgrwt>
</event>
<event>
 6    1  0.2236204E-005  0.1607299E+04  0.7818608E-02  0.8816076E-01
         -1   -1    0    0    0  501 -0.00000000000E+00  0.00000000000E+00  0.11062757809E+04  0.11062757809E+04  0.00000000000E+00 0.  1.
          1   -1    0    0  501    0  0.00000000000E+00 -0.00000000000E+00 -0.58380811545E+03  0.58380811545E+03  0.00000000000E+00 0. -1.
         23    2    1    2    0    0  0.19089982496E+03  0.26297690949E+03  0.10320998106E+04  0.10856630814E+04  0.88513892519E+02 0.  0.
         11    1    3    3    0    0  0.10321231274E+03  0.12517372210E+03  0.37544631119E+03  0.40900021368E+03  0.00000000000E+00 0. -1.
        -11    1    3    3    0    0  0.87687512217E+02  0.13780318739E+03  0.65665349941E+03  0.67666286771E+03  0.00000000000E+00 0.  1.
         22    1    1    2    0    0 -0.19089982496E+03 -0.26297690949E+03 -0.50963214519E+03  0.60442081491E+03  0.00000000000E+00 0. -1.
<mgrwt>
<rscale>  0 0.16072993E+04</rscale>
<asrwt>0</asrwt>
<pdfrwt beam="1">  1        1 0.89816633E-01 0.16072993E+04</pdfrwt>
<pdfrwt beam="2">  1       -1 0.17019627E+00 0.16072993E+04</pdfrwt>
<totfact> 0.83781871E+00</totfact>
</mgrwt>
</event>
<event>
 6    1  0.2236204E-005  0.2334895E+04  0.7818608E-02  0.8464288E-01
         -2   -1    0    0    0  501 -0.00000000000E+00  0.00000000000E+00  0.59361518483E+03  0.59361518483E+03  0.00000000000E+00 0.  1.
          2   -1    0    0  501    0  0.00000000000E+00 -0.00000000000E+00 -0.22959894928E+04  0.22959894928E+04  0.00000000000E+00 0. -1.
         23    2    1    2    0    0  0.53736139546E+03 -0.87367565846E+03 -0.15381172304E+04  0.18508328966E+04  0.87814412942E+02 0.  0.
         13    1    3    3    0    0  0.21741531347E+03 -0.43470424257E+03 -0.70739288173E+03  0.85827844326E+03  0.00000000000E+00 0. -1.
        -13    1    3    3    0    0  0.31994608199E+03 -0.43897141588E+03 -0.83072434865E+03  0.99255445331E+03  0.00000000000E+00 0.  1.
         22    1    1    2    0    0 -0.53736139546E+03  0.87367565846E+03 -0.16425707756E+03  0.10387717810E+04  0.00000000000E+00 0.  1.
<mgrwt>
<rscale>  0 0.23348955E+04</rscale>
<asrwt>0</asrwt>
<pdfrwt beam="1">  1        2 0.35322915E+00 0.23348955E+04</pdfrwt>
<pdfrwt beam="2">  1       -2 0.91325413E-01 0.23348955E+04</pdfrwt>
<totfact> 0.42087588E+00</totfact>
</mgrwt>
</event>
<event>
 6    1  0.2236204E-005  0.3370091E+04  0.7818608E-02  0.8145286E-01
          2   -1    0    0  501    0  0.00000000000E+00  0.00000000000E+00  0.23668161360E+04  0.23668161360E+04  0.00000000000E+00 0. -1.
         -2   -1    0    0    0  501 -0.00000000000E+00 -0.00000000000E+00 -0.11996613694E+04  0.11996613694E+04  0.00000000000E+00 0.  1.
         23    2    1    2    0    0 -0.56096731188E+03 -0.13364063132E+04  0.14909759215E+04  0.20813760613E+04  0.91929054123E+02 0.  0.
         13    1    3    3    0    0 -0.26877995684E+03 -0.75448214828E+03  0.80553021897E+03  0.11359423009E+04  0.00000000000E+00 0.  1.
        -13    1    3    3    0    0 -0.29218735504E+03 -0.58192416494E+03  0.68544570249E+03  0.94543376037E+03  0.00000000000E+00 0. -1.
         22    1    1    2    0    0  0.56096731188E+03  0.13364063132E+04 -0.32382115488E+03  0.14851014441E+04  0.00000000000E+00 0.  1.
<mgrwt>
<rscale>  0 0.33700907E+04</rscale>
<asrwt>0</asrwt>
<pdfrwt beam="1">  1        2 0.36412556E+00 0.33700907E+04</pdfrwt>
<pdfrwt beam="2">  1       -2 0.18456329E+00 0.33700907E+04</pdfrwt>
<totfact> 0.58184213E-01</totfact>
</mgrwt>
</event>
<event>
 6    1  0.2236204E-005  0.2637655E+04  0.7818608E-02  0.8355522E-01
          2   -1    0    0  501    0  0.00000000000E+00  0.00000000000E+00  0.15665847695E+04  0.15665847695E+04  0.00000000000E+00 0.  1.
         -2   -1    0    0    0  501 -0.00000000000E+00 -0.00000000000E+00 -0.11102536148E+04  0.11102536148E+04  0.00000000000E+00 0. -1.
         23    2    1    2    0    0 -0.12738487173E+04 -0.23366808514E+03  0.47203815284E+03  0.13816403152E+04  0.93907476365E+02 0.  0.
         11    1    3    3    0    0 -0.90293810190E+03 -0.12223071544E+03  0.33619836851E+03  0.97121928865E+03  0.00000000000E+00 0.  1.
        -11    1    3    3    0    0 -0.37091061542E+03 -0.11143736969E+03  0.13583978433E+03  0.41042102651E+03  0.00000000000E+00 0. -1.
         22    1    1    2    0    0  0.12738487173E+04  0.23366808514E+03 -0.15706998122E+02  0.12951980692E+04  0.00000000000E+00 0. -1.
<mgrwt>
<rscale>  0 0.26376553E+04</rscale>
<asrwt>0</asrwt>
<pdfrwt beam="1">  1        2 0.24101304E+00 0.26376553E+04</pdfrwt>
<pdfrwt beam="2">  1       -2 0.17080825E+00 0.26376553E+04</pdfrwt>
<totfact> 0.21599187E+00</totfact>
</mgrwt>
</event>
<event>
 6    1  0.2236204E-005  0.1860573E+04  0.7818608E-02  0.8674734E-01
          2   -1    0    0  501    0  0.00000000000E+00  0.00000000000E+00  0.22447607286E+04  0.22447607286E+04  0.00000000000E+00 0. -1.
         -2   -1    0    0    0  501 -0.00000000000E+00 -0.00000000000E+00 -0.38553464187E+03  0.38553464187E+03  0.00000000000E+00 0.  1.
         23    2    1    2    0    0  0.72078169610E+03 -0.26634791188E+03  0.16676086723E+04  0.18383454370E+04  0.90154301860E+02 0.  0.
         13    1    3    3    0    0  0.22301280156E+03 -0.63048205601E+02  0.59429664330E+03  0.63788579395E+03  0.00000000000E+00 0.  1.
        -13    1    3    3    0    0  0.49776889454E+03 -0.20329970628E+03  0.10733120290E+04  0.12004596431E+04  0.00000000000E+00 0. -1.
         22    1    1    2    0    0 -0.72078169610E+03  0.26634791188E+03  0.19161741440E+03  0.79194993345E+03  0.00000000000E+00 0.  1.
<mgrwt>
<rscale>  0 0.18605731E+04</rscale>
<asrwt>0</asrwt>
<pdfrwt beam="1">  1        2 0.34534780E+00 0.18605731E+04</pdfrwt>
<pdfrwt beam="2">  1       -2 0.59313023E-01 0.18605731E+04</pdfrwt>
<totfact> 0.12151058E+01</totfact>
</mgrwt>
</event>
<event>
 6    1  0.2236204E-005  0.2934448E+04  0.7818608E-02  0.8262701E-01
         -2   -1    0    0    0  501 -0.00000000000E+00  0.00000000000E+00  0.80961602282E+03  0.80961602282E+03  0.00000000000E+00 0.  1.
          2   -1    0    0  501    0  0.00000000000E+00 -0.00000000000E+00 -0.26589727901E+04  0.26589727901E+04  0.00000000000E+00 0. -1.
         23    2    1    2    0    0  0.94072694688E+03  0.69122680727E+03  0.12234344283E+03  0.11772216651E+04  0.90117939675E+02 0.  0.
         11    1    3    3    0    0  0.78059852549E+03  0.58398818913E+03  0.13455538824E+03  0.98411453375E+03  0.00000000000E+00 0.  1.
        -11    1    3    3    0    0  0.16012842139E+03  0.10723861814E+03 -0.12211945415E+02  0.19310713132E+03  0.00000000000E+00 0. -1.
         22    1    1    2    0    0 -0.94072694688E+03 -0.69122680727E+03 -0.19717002102E+04  0.22913671479E+04  0.00000000000E+00 0. -1.
<mgrwt>
<rscale>  0 0.29344485E+04</rscale>
<asrwt>0</asrwt>
<pdfrwt beam="1">  1        2 0.40907274E+00 0.29344485E+04</pdfrwt>
<pdfrwt beam="2">  1       -2 0.12455631E+00 0.29344485E+04</pdfrwt>
<totfact> 0.11691104E+00</totfact>
</mgrwt>
</event>
<event>
 6    1  0.2236204E-005  0.1813998E+04  0.7818608E-02  0.8698891E-01
          2   -1    0    0  501    0  0.00000000000E+00  0.00000000000E+00  0.22010575446E+04  0.22010575446E+04  0.00000000000E+00 0. -1.
         -2   -1    0    0    0  501 -0.00000000000E+00 -0.00000000000E+00 -0.37375088851E+03  0.37375088851E+03  0.00000000000E+00 0.  1.
         23    2    1    2    0    0 -0.44472469688E+03 -0.56187899363E+03  0.13212606595E+03  0.73439399808E+03  0.91592508513E+02 0.  0.
         11    1    3    3    0    0 -0.93415585515E+02 -0.65620433167E+02  0.14170773862E+02  0.11503618430E+03  0.00000000000E+00 0. -1.
        -11    1    3    3    0    0 -0.35130911136E+03 -0.49625856047E+03  0.11795529209E+03  0.61935781379E+03  0.00000000000E+00 0.  1.
         22    1    1    2    0    0  0.44472469688E+03  0.56187899363E+03  0.16951805901E+04  0.18404144350E+04  0.00000000000E+00 0. -1.
<mgrwt>
<rscale>  0 0.18139980E+04</rscale>
<asrwt>0</asrwt>
<pdfrwt beam="1">  1        2 0.33862423E+00 0.18139980E+04</pdfrwt>
<pdfrwt beam="2">  1       -2 0.57500138E-01 0.18139980E+04</pdfrwt>
<totfact> 0.13780412E+01</totfact>
</mgrwt>
</event>
<event>
 6    1  0.2236204E-005  0.2077294E+04  0.7818608E-02  0.8571312E-01
          2   -1    0    0  501    0  0.00000000000E+00  0.00000000000E+00  0.11964308096E+04  0.11964308096E+04  0.00000000000E+00 0.  1.
         -2   -1    0    0    0  501 -0.00000000000E+00 -0.00000000000E+00 -0.90167177455E+03  0.90167177455E+03  0.00000000000E+00 0. -1.
         23    2    1    2    0    0 -0.45466676639E+03 -0.41070940430E+03 -0.69696614016E+03  0.93237409673E+03  0.90308208252E+02 0.  0.
         13    1    3    3    0    0 -0.20412640269E+03 -0.17113998880E+03 -0.36953422701E+03  0.45553488228E+03  0.00000000000E+00 0. -1.
        -13    1    3    3    0    0 -0.25054036370E+03 -0.23956941550E+03 -0.32743191315E+03  0.47683921445E+03  0.00000000000E+00 0.  1.
         22    1    1    2    0    0  0.45466676639E+03  0.41070940430E+03  0.99172517521E+03  0.11657284874E+04  0.00000000000E+00 0.  1.
<mgrwt>
<rscale>  0 0.20772943E+04</rscale>
<asrwt>0</asrwt>
<pdfrwt beam="1">  1        2 0.18406628E+00 0.20772943E+04</pdfrwt>
<pdfrwt beam="2">  1       -2 0.13871874E+00 0.20772943E+04</pdfrwt>
<totfact> 0.64649846E+00</totfact>
</mgrwt>
</event>
<event>
 6    1  0.2236204E-005  0.3322461E+04  0.7818608E-02  0.8157204E-01
         -2   -1    0    0    0  501 -0.00000000000E+00  0.00000000000E+00  0.25458656869E+04  0.25458656869E+04  0.00000000000E+00 0. -1.
          2   -1    0    0  501    0  0.00000000000E+00 -0.00000000000E+00 -0.10839878039E+04  0.10839878039E+04  0.00000000000E+00 0.  1.
         23    2    1    2    0    0  0.96233659319E+03  0.11453531293E+04  0.15175897135E+04  0.21328467047E+04  0.89615946945E+02 0.  0.
         13    1    3    3    0    0  0.57517297665E+03  0.65865610700E+03  0.82824978049E+03  0.12044291259E+04  0.00000000000E+00 0. -1.
        -13    1    3    3    0    0  0.38716361654E+03  0.48669702229E+03  0.68933993304E+03  0.92841757887E+03  0.00000000000E+00 0.  1.
         22    1    1    2    0    0 -0.96233659319E+03 -0.11453531293E+04 -0.55711830523E+02  0.14970067860E+04  0.00000000000E+00 0.  1.
<mgrwt>
<rscale>  0 0.33224613E+04</rscale>
<asrwt>0</asrwt>
<pdfrwt beam="1">  1        2 0.16676735E+00 0.33224613E+04</pdfrwt>
<pdfrwt beam="2">  1       -2 0.39167164E+00 0.33224613E+04</pdfrwt>
<totfact> 0.15618410E-01</totfact>
</mgrwt>
</event>
<event>
 6    1  0.2236204E-005  0.1780108E+04  0.7818608E-02  0.8716950E-01
         -2   -1    0    0    0  501 -0.00000000000E+00  0.00000000000E+00  0.90407657838E+03  0.90407657838E+03  0.00000000000E+00 0.  1.
          2   -1    0    0  501    0  0.00000000000E+00 -0.00000000000E+00 -0.87624867155E+03  0.87624867155E+03  0.00000000000E+00 0. -1.
         23    2    1    2    0    0 -0.53144313575E+03  0.66328465041E+03  0.27039676923E+03  0.89645988292E+03  0.90263917836E+02 0.  0.
         11    1    3    3    0    0 -0.35461785844E+03  0.46461239476E+03  0.14384970353E+03  0.60192295195E+03  0.00000000000E+00 0. -1.
        -11    1    3    3    0    0 -0.17682527732E+03  0.19867225565E+03  0.12654706570E+03  0.29453693096E+03  0.00000000000E+00 0.  1.
         22    1    1    2    0    0  0.53144313575E+03 -0.66328465041E+03 -0.24256886240E+03  0.88386536702E+03  0.00000000000E+00 0.  1.
<mgrwt>
<rscale>  0 0.17801078E+04</rscale>
<asrwt>0</asrwt>
<pdfrwt beam="1">  1        2 0.13480749E+00 0.17801078E+04</pdfrwt>
<pdfrwt beam="2">  1       -2 0.13908870E+00 0.17801078E+04</pdfrwt>
<totfact> 0.10511463E+01</totfact>
</mgrwt>
</event>
<event>
 6    1  0.2236204E-005  0.3789695E+04  0.7818608E-02  0.8048370E-01
         -2   -1    0    0    0  501 -0.00000000000E+00  0.00000000000E+00  0.98086074215E+03  0.98086074215E+03  0.00000000000E+00 0.  1.
          2   -1    0    0  501    0  0.00000000000E+00 -0.00000000000E+00 -0.36605064294E+04  0.36605064294E+04  0.00000000000E+00 0. -1.
         23    2    1    2    0    0 -0.14081063409E+03  0.18140569767E+04 -0.69748374987E+03  0.19507173810E+04  0.90467506264E+02 0.  0.
         11    1    3    3    0    0 -0.14637949419E+03  0.14285385217E+04 -0.56114442005E+03  0.15417627329E+04  0.00000000000E+00 0.  1.
        -11    1    3    3    0    0  0.55688601040E+01  0.38551845499E+03 -0.13633932982E+03  0.40895464809E+03  0.00000000000E+00 0. -1.
         22    1    1    2    0    0  0.14081063409E+03 -0.18140569767E+04 -0.19821619374E+04  0.26906497906E+04  0.00000000000E+00 0. -1.
<mgrwt>
<rscale>  0 0.37896950E+04</rscale>
<asrwt>0</asrwt>
<pdfrwt beam="1">  1        2 0.56315484E+00 0.37896950E+04</pdfrwt>
<pdfrwt beam="2">  1       -2 0.15090165E+00 0.37896950E+04</pdfrwt>
<totfact> 0.14735086E-01</totfact>
</mgrwt>
</event>
<event>
 6    1  0.2236204E-005  0.1710140E+04  0.7818608E-02  0.8755602E-01
         -2   -1    0    0    0  501 -0.00000000000E+00  0.00000000000E+00  0.55153705836E+03  0.55153705836E+03  0.00000000000E+00 0. -1.
          2   -1    0    0  501    0  0.00000000000E+00 -0.00000000000E+00 -0.13256488702E+04  0.13256488702E+04  0.00000000000E+00 0.  1.
         23    2    1    2    0    0 -0.73927869775E+02 -0.14978458347E+03 -0.13059658557E+04  0.13197189113E+04  0.90611463207E+02 0.  0.
         13    1    3    3    0    0 -0.63650050903E+02 -0.45005456753E+02 -0.38939438535E+03  0.39712064598E+03  0.00000000000E+00 0.  1.
        -13    1    3    3    0    0 -0.10277818872E+02 -0.10477912672E+03 -0.91657147038E+03  0.92259826537E+03  0.00000000000E+00 0. -1.
         22    1    1    2    0    0  0.73927869775E+02  0.14978458347E+03  0.53185404384E+03  0.55746701725E+03  0.00000000000E+00 0. -1.
<mgrwt>
<rscale>  0 0.17101397E+04</rscale>
<asrwt>0</asrwt>
<pdfrwt beam="1">  1        2 0.20394598E+00 0.17101397E+04</pdfrwt>
<pdfrwt beam="2">  1       -2 0.84851855E-01 0.17101397E+04</pdfrwt>
<totfact> 0.18373000E+01</totfact>
</mgrwt>
</event>
<event>
 6    1  0.2236204E-005  0.3542688E+04  0.7818608E-02  0.8103747E-01
         -2   -1    0    0    0  501 -0.00000000000E+00  0.00000000000E+00  0.12115546607E+04  0.12115546607E+04  0.00000000000E+00 0. -1.
          2   -1    0    0  501    0  0.00000000000E+00 -0.00000000000E+00 -0.25897796648E+04  0.25897796648E+04  0.00000000000E+00 0.  1.
         23    2    1    2    0    0 -0.15901974823E+04  0.34446297583E+03  0.58427222875E+02  0.16307693310E+04  0.92801380148E+02 0.  0.
         11    1    3    3    0    0 -0.42004555605E+03  0.50872050429E+02  0.43540309354E+01  0.42313732081E+03  0.00000000000E+00 0. -1.
        -11    1    3    3    0    0 -0.11701519262E+04  0.29359092540E+03  0.54073191940E+02  0.12076320102E+04  0.00000000000E+00 0.  1.
         22    1    1    2    0    0  0.15901974823E+04 -0.34446297583E+03 -0.14366522270E+04  0.21705649945E+04  0.00000000000E+00 0.  1.
<mgrwt>
<rscale>  0 0.35426880E+04</rscale>
<asrwt>0</asrwt>
<pdfrwt beam="1">  1        2 0.39842763E+00 0.35426880E+04</pdfrwt>
<pdfrwt beam="2">  1       -2 0.18639303E+00 0.35426880E+04</pdfrwt>
<totfact> 0.41413952E-01</totfact>
</mgrwt>
</event>
<event>
 6    1  0.2236204E-005  0.1427217E+04  0.7818608E-02  0.8934350E-01
          2   -1    0    0  501    0  0.00000000000E+00  0.00000000000E+00  0.16044534270E+04  0.16044534270E+04  0.00000000000E+00 0. -1.
         -2   -1    0    0    0  501 -0.00000000000E+00 -0.00000000000E+00 -0.31738992179E+03  0.31738992179E+03  0.00000000000E+00 0.  1.
         23    2    1    2    0    0 -0.48273951927E+03 -0.34249178689E+03  0.11749527707E+04  0.13194258155E+04  0.10016187739E+03 0.  0.
         13    1    3    3    0    0 -0.37341388459E+03 -0.22715160895E+03  0.92768191905E+03  0.10254898954E+04  0.00000000000E+00 0. -1.
        -13    1    3    3    0    0 -0.10932563468E+03 -0.11534017794E+03  0.24727085168E+03  0.29393592012E+03  0.00000000000E+00 0.  1.
         22    1    1    2    0    0  0.48273951927E+03  0.34249178689E+03  0.11211073445E+03  0.60241753322E+03  0.00000000000E+00 0.  1.
<mgrwt>
<rscale>  0 0.14272174E+04</rscale>
<asrwt>0</asrwt>
<pdfrwt beam="1">  1        2 0.24683898E+00 0.14272174E+04</pdfrwt>
<pdfrwt beam="2">  1       -2 0.48829220E-01 0.14272174E+04</pdfrwt>
<totfact> 0.42768532E+01</totfact>
</mgrwt>
</event>
<event>
 6    1  0.2236204E-005  0.2561448E+04  0.7818608E-02  0.8381416E-01
         -2   -1    0    0    0  501 -0.00000000000E+00  0.00000000000E+00  0.21660254268E+04  0.21660254268E+04  0.00000000000E+00 0.  1.
          2   -1    0    0  501    0  0.00000000000E+00 -0.00000000000E+00 -0.75726423346E+03  0.75726423346E+03  0.00000000000E+00 0. -1.
         23    2    1    2    0    0 -0.18577589450E+03  0.10006286379E+04  0.15895035991E+04  0.18896368312E+04  0.91843935134E+02 0.  0.
         11    1    3    3    0    0 -0.16307883166E+03  0.64823209379E+03  0.10178972547E+04  0.12177497173E+04  0.00000000000E+00 0.  1.
        -11    1    3    3    0    0 -0.22697062840E+02  0.35239654407E+03  0.57160634439E+03  0.67188711394E+03  0.00000000000E+00 0. -1.
         22    1    1    2    0    0  0.18577589450E+03 -0.10006286379E+04 -0.18074240571E+03  0.10336528291E+04  0.00000000000E+00 0.  1.
<mgrwt>
<rscale>  0 0.25614477E+04</rscale>
<asrwt>0</asrwt>
<pdfrwt beam="1">  1        2 0.11650219E+00 0.25614477E+04</pdfrwt>
<pdfrwt beam="2">  1       -2 0.33323468E+00 0.25614477E+04</pdfrwt>
<totfact> 0.65145779E-01</totfact>
</mgrwt>
</event>
<event>
 6    1  0.2236204E-005  0.2554897E+04  0.7818608E-02  0.8383685E-01
         -2   -1    0    0    0  501 -0.00000000000E+00  0.00000000000E+00  0.67723069642E+03  0.67723069642E+03  0.00000000000E+00 0.  1.
          2   -1    0    0  501    0  0.00000000000E+00 -0.00000000000E+00 -0.24096281654E+04  0.24096281654E+04  0.00000000000E+00 0. -1.
         23    2    1    2    0    0 -0.66334268038E+03 -0.53242183101E+02  0.44761441174E+03  0.80753658496E+03  0.94331504760E+02 0.  0.
         11    1    3    3    0    0 -0.42501724596E+03 -0.38881337713E+02  0.23170244649E+03  0.48563097255E+03  0.00000000000E+00 0.  1.
        -11    1    3    3    0    0 -0.23832543442E+03 -0.14360845388E+02  0.21591196525E+03  0.32190561242E+03  0.00000000000E+00 0. -1.
         22    1    1    2    0    0  0.66334268038E+03  0.53242183101E+02 -0.21800118807E+04  0.22793222769E+04  0.00000000000E+00 0. -1.
<mgrwt>
<rscale>  0 0.25548966E+04</rscale>
<asrwt>0</asrwt>
<pdfrwt beam="1">  1        2 0.37071203E+00 0.25548966E+04</pdfrwt>
<pdfrwt beam="2">  1       -2 0.10418934E+00 0.25548966E+04</pdfrwt>
<totfact> 0.26094315E+00</totfact>
</mgrwt>
</event>
<event>
 6    1  0.2236204E-005  0.4492663E+04  0.7818608E-02  0.7911922E-01
          2   -1    0    0  501    0  0.00000000000E+00  0.00000000000E+00  0.27320556067E+04  0.27320556067E+04  0.00000000000E+00 0. -1.
         -2   -1    0    0    0  501 -0.00000000000E+00 -0.00000000000E+00 -0.18469631672E+04  0.18469631672E+04  0.00000000000E+00 0.  1.
         23    2    1    2    0    0  0.83019731528E+03  0.12886510702E+04 -0.12295048530E+04  0.19672433485E+04  0.92277005106E+02 0.  0.
         13    1    3    3    0    0  0.50021386411E+03  0.85270240486E+03 -0.77148068577E+03  0.12539927231E+04  0.00000000000E+00 0. -1.
        -13    1    3    3    0    0  0.32998345116E+03  0.43594866530E+03 -0.45802416726E+03  0.71325062538E+03  0.00000000000E+00 0.  1.
         22    1    1    2    0    0 -0.83019731528E+03 -0.12886510702E+04  0.21145972925E+04  0.26117754254E+04  0.00000000000E+00 0. -1.
<mgrwt>
<rscale>  0 0.44926634E+04</rscale>
<asrwt>0</asrwt>
<pdfrwt beam="1">  1        2 0.42031625E+00 0.44926634E+04</pdfrwt>
<pdfrwt beam="2">  1       -2 0.28414818E+00 0.44926634E+04</pdfrwt>
<totfact> 0.76522935E-02</totfact>
</mgrwt>
</event>
<event>
 6    1  0.2236204E-005  0.1110805E+04  0.7818608E-02  0.9194724E-01
          2   -1    0    0  501    0  0.00000000000E+00  0.00000000000E+00  0.18403906105E+04  0.18403906105E+04  0.00000000000E+00 0. -1.
         -2   -1    0    0    0  501 -0.00000000000E+00 -0.00000000000E+00 -0.16761231022E+03  0.16761231022E+03  0.00000000000E+00 0.  1.
         23    2    1    2    0    0 -0.57171257085E+02  0.43584833365E+03  0.23992493443E+03  0.50923639767E+03  0.92333157473E+02 0.  0.
         11    1    3    3    0    0 -0.13834058144E+01  0.32455224033E+03  0.16802390680E+03  0.36546970295E+03  0.00000000000E+00 0. -1.
        -11    1    3    3    0    0 -0.55787851270E+02  0.11129609332E+03  0.71901027633E+02  0.14376669472E+03  0.00000000000E+00 0.  1.
         22    1    1    2    0    0  0.57171257085E+02 -0.43584833365E+03  0.14328533658E+04  0.14987665230E+04  0.00000000000E+00 0. -1.
<mgrwt>
<rscale>  0 0.11108053E+04</rscale>
<asrwt>0</asrwt>
<pdfrwt beam="1">  1        2 0.28313700E+00 0.11108053E+04</pdfrwt>
<pdfrwt beam="2">  1       -2 0.25786511E-01 0.11108053E+04</pdfrwt>
<totfact> 0.11033911E+02</totfact>
</mgrwt>
</event>
<event>
 6    1  0.2236204E-005  0.1572485E+04  0.7818608E-02  0.8837632E-01
         -2   -1    0    0    0  501 -0.00000000000E+00  0.00000000000E+00  0.46642768836E+03  0.46642768836E+03  0.00000000000E+00 0.  1.
          2   -1    0    0  501    0  0.00000000000E+00 -0.00000000000E+00 -0.13253442736E+04  0.13253442736E+04  0.00000000000E+00 0. -1.
         23    2    1    2    0    0 -0.46708705777E+03  0.52587298011E+03 -0.82474064215E+03  0.10875839857E+04  0.89045428977E+02 0.  0.
         13    1    3    3    0    0 -0.43215581839E+02  0.41857679571E+02 -0.11393286661E+03  0.12884234532E+03  0.00000000000E+00 0.  1.
        -13    1    3    3    0    0 -0.42387147593E+03  0.48401530054E+03 -0.71080777554E+03  0.95874164040E+03  0.00000000000E+00 0. -1.
         22    1    1    2    0    0  0.46708705777E+03 -0.52587298011E+03 -0.34175943042E+02  0.70418797621E+03  0.00000000000E+00 0. -1.
<mgrwt>
<rscale>  0 0.15724850E+04</rscale>
<asrwt>0</asrwt>
<pdfrwt beam="1">  1        2 0.20389912E+00 0.15724850E+04</pdfrwt>
<pdfrwt beam="2">  1       -2 0.71758107E-01 0.15724850E+04</pdfrwt>
<totfact> 0.27033187E+01</totfact>
</mgrwt>
</event>
<event>
 6    1  0.2236204E-005  0.2782118E+04  0.7818608E-02  0.8308842E-01
          2   -1    0    0  501    0  0.00000000000E+00  0.00000000000E+00  0.14554326003E+04  0.14554326003E+04  0.00000000000E+00 0. -1.
         -2   -1    0    0    0  501 -0.00000000000E+00 -0.00000000000E+00 -0.13295321823E+04  0.13295321823E+04  0.00000000000E+00 0.  1.
         23    2    1    2    0    0 -0.12523711825E+04  0.31243166404E+03 -0.45173215236E+03  0.13708549885E+04  0.95573732850E+02 0.  0.
         11    1    3    3    0    0 -0.90541428999E+03  0.26786580147E+03 -0.34208912400E+03  0.10042669430E+04  0.00000000000E+00 0. -1.
        -11    1    3    3    0    0 -0.34695689255E+03  0.44565862575E+02 -0.10964302836E+03  0.36658804544E+03  0.00000000000E+00 0.  1.
         22    1    1    2    0    0  0.12523711825E+04 -0.31243166404E+03  0.57763257031E+03  0.14141097941E+04  0.00000000000E+00 0. -1.
<mgrwt>
<rscale>  0 0.27821175E+04</rscale>
<asrwt>0</asrwt>
<pdfrwt beam="1">  1        2 0.22391271E+00 0.27821175E+04</pdfrwt>
<pdfrwt beam="2">  1       -2 0.20454341E+00 0.27821175E+04</pdfrwt>
<totfact> 0.14563581E+00</totfact>
</mgrwt>
</event>
<event>
 6    1  0.2236204E-005  0.2467206E+04  0.7818608E-02  0.8414762E-01
          2   -1    0    0  501    0  0.00000000000E+00  0.00000000000E+00  0.26689403006E+04  0.26689403006E+04  0.00000000000E+00 0. -1.
         -2   -1    0    0    0  501 -0.00000000000E+00 -0.00000000000E+00 -0.57018015641E+03  0.57018015641E+03  0.00000000000E+00 0.  1.
         23    2    1    2    0    0  0.62174835512E+03  0.63969031704E+03  0.21659555687E+04  0.23445311972E+04  0.98429113215E+02 0.  0.
         13    1    3    3    0    0  0.26520819878E+03  0.21024986665E+03  0.86842612447E+03  0.93204309385E+03  0.00000000000E+00 0.  1.
        -13    1    3    3    0    0  0.35654015634E+03  0.42944045039E+03  0.12975294442E+04  0.14124881033E+04  0.00000000000E+00 0. -1.
         22    1    1    2    0    0 -0.62174835512E+03 -0.63969031704E+03 -0.67195424433E+02  0.89458925987E+03  0.00000000000E+00 0.  1.
<mgrwt>
<rscale>  0 0.24672064E+04</rscale>
<asrwt>0</asrwt>
<pdfrwt beam="1">  1        2 0.41060619E+00 0.24672064E+04</pdfrwt>
<pdfrwt beam="2">  1       -2 0.87720025E-01 0.24672064E+04</pdfrwt>
<totfact> 0.27779102E+00</totfact>
</mgrwt>
</event>
<event>
 6    1  0.2236204E-005  0.1752829E+04  0.7818608E-02  0.8731795E-01
          1   -1    0    0  501    0  0.00000000000E+00  0.00000000000E+00  0.96976158103E+03  0.96976158103E+03  0.00000000000E+00 0. -1.
         -1   -1    0    0    0  501 -0.00000000000E+00 -0.00000000000E+00 -0.79205247151E+03  0.79205247151E+03  0.00000000000E+00 0.  1.
         23    2    1    2    0    0  0.33987185259E+03  0.78383821943E+03 -0.98242975574E+02  0.86400294563E+03  0.83271708133E+02 0.  0.
         11    1    3    3    0    0  0.17270379175E+03  0.49745564346E+03 -0.50864346173E+02  0.52903298443E+03  0.00000000000E+00 0. -1.
        -11    1    3    3    0    0  0.16716806083E+03  0.28638257597E+03 -0.47378629401E+02  0.33496996120E+03  0.00000000000E+00 0.  1.
         22    1    1    2    0    0 -0.33987185259E+03 -0.78383821943E+03  0.27595208510E+03  0.89781110691E+03  0.00000000000E+00 0. -1.
<mgrwt>
<rscale>  0 0.17528286E+04</rscale>
<asrwt>0</asrwt>
<pdfrwt beam="1">  1        1 0.14919409E+00 0.17528286E+04</pdfrwt>
<pdfrwt beam="2">  1       -1 0.12185423E+00 0.17528286E+04</pdfrwt>
<totfact> 0.90295120E+00</totfact>
</mgrwt>
</event>
<event>
 6    1  0.2236204E-005  0.2242180E+04  0.7818608E-02  0.8501074E-01
          2   -1    0    0  501    0  0.00000000000E+00  0.00000000000E+00  0.13591060956E+04  0.13591060956E+04  0.00000000000E+00 0. -1.
         -2   -1    0    0    0  501 -0.00000000000E+00 -0.00000000000E+00 -0.92475685678E+03  0.92475685678E+03  0.00000000000E+00 0.  1.
         23    2    1    2    0    0  0.10091176420E+04  0.27937206485E+03  0.62043108236E+03  0.12203811150E+04  0.89600065590E+02 0.  0.
         11    1    3    3    0    0  0.47204821121E+03  0.84886970582E+02  0.29084385218E+03  0.56091484009E+03  0.00000000000E+00 0. -1.
        -11    1    3    3    0    0  0.53706943082E+03  0.19448509427E+03  0.32958723018E+03  0.65946627489E+03  0.00000000000E+00 0.  1.
         22    1    1    2    0    0 -0.10091176420E+04 -0.27937206485E+03 -0.18608184350E+03  0.10634818374E+04  0.00000000000E+00 0. -1.
<mgrwt>
<rscale>  0 0.22421799E+04</rscale>
<asrwt>0</asrwt>
<pdfrwt beam="1">  1        2 0.20909325E+00 0.22421799E+04</pdfrwt>
<pdfrwt beam="2">  1       -2 0.14227029E+00 0.22421799E+04</pdfrwt>
<totfact> 0.47931157E+00</totfact>
</mgrwt>
</event>
<event>
 6    1  0.2236204E-005  0.2557390E+04  0.7818608E-02  0.8382821E-01
          2   -1    0    0  501    0  0.00000000000E+00  0.00000000000E+00  0.14480050767E+04  0.14480050767E+04  0.00000000000E+00 0. -1.
         -2   -1    0    0    0  501 -0.00000000000E+00 -0.00000000000E+00 -0.11291813213E+04  0.11291813213E+04  0.00000000000E+00 0.  1.
         23    2    1    2    0    0  0.12215890340E+04  0.80534711092E+02 -0.20718692347E+03  0.12447252009E+04  0.87457400679E+02 0.  0.
         13    1    3    3    0    0  0.81437179818E+03  0.80602880201E+02 -0.16992553256E+03  0.83580675792E+03  0.00000000000E+00 0.  1.
        -13    1    3    3    0    0  0.40721723578E+03 -0.68169109083E-01 -0.37261390916E+02  0.40891844299E+03  0.00000000000E+00 0. -1.
         22    1    1    2    0    0 -0.12215890340E+04 -0.80534711092E+02  0.52601067881E+03  0.13324611971E+04  0.00000000000E+00 0. -1.
<mgrwt>
<rscale>  0 0.25573895E+04</rscale>
<asrwt>0</asrwt>
<pdfrwt beam="1">  1        2 0.22277001E+00 0.25573895E+04</pdfrwt>
<pdfrwt beam="2">  1       -2 0.17372020E+00 0.25573895E+04</pdfrwt>
<totfact> 0.24194515E+00</totfact>
</mgrwt>
</event>
<event>
 6    1  0.2236204E-005  0.2701145E+04  0.7818608E-02  0.8334633E-01
         -2   -1    0    0    0  501 -0.00000000000E+00  0.00000000000E+00  0.82364359233E+03  0.82364359233E+03  0.00000000000E+00 0.  1.
          2   -1    0    0  501    0  0.00000000000E+00 -0.00000000000E+00 -0.22146068467E+04  0.22146068467E+04  0.00000000000E+00 0. -1.
         23    2    1    2    0    0 -0.31870118289E+03 -0.10767301177E+04 -0.15372956539E+04  0.19058497319E+04  0.89816939697E+02 0.  0.
         13    1    3    3    0    0 -0.49467962274E+02 -0.13517065357E+03 -0.24889001403E+03  0.28751421524E+03  0.00000000000E+00 0.  1.
        -13    1    3    3    0    0 -0.26923322061E+03 -0.94155946415E+03 -0.12884056398E+04  0.16183355166E+04  0.00000000000E+00 0. -1.
         22    1    1    2    0    0  0.31870118289E+03  0.10767301177E+04  0.14633239952E+03  0.11324007071E+04  0.00000000000E+00 0.  1.
<mgrwt>
<rscale>  0 0.27011455E+04</rscale>
<asrwt>0</asrwt>
<pdfrwt beam="1">  1        2 0.34070875E+00 0.27011455E+04</pdfrwt>
<pdfrwt beam="2">  1       -2 0.12671440E+00 0.27011455E+04</pdfrwt>
<totfact> 0.20592048E+00</totfact>
</mgrwt>
</event>
<event>
 6    1  0.2236204E-005  0.3265686E+04  0.7818608E-02  0.8171682E-01
          2   -1    0    0  501    0  0.00000000000E+00  0.00000000000E+00  0.13618543025E+04  0.13618543025E+04  0.00000000000E+00 0. -1.
         -2   -1    0    0    0  501 -0.00000000000E+00 -0.00000000000E+00 -0.19577549360E+04  0.19577549360E+04  0.00000000000E+00 0.  1.
         23    2    1    2    0    0  0.14479544856E+04 -0.26890193052E+03 -0.10119457046E+04  0.17892583173E+04  0.92362201428E+02 0.  0.
         13    1    3    3    0    0  0.38112601739E+03 -0.11242795035E+03 -0.27282364959E+03  0.48200604657E+03  0.00000000000E+00 0. -1.
        -13    1    3    3    0    0  0.10668284683E+04 -0.15647398017E+03 -0.73912205500E+03  0.13072522707E+04  0.00000000000E+00 0.  1.
         22    1    1    2    0    0 -0.14479544856E+04  0.26890193052E+03  0.41604507106E+03  0.15303509212E+04  0.00000000000E+00 0. -1.
<mgrwt>
<rscale>  0 0.32656864E+04</rscale>
<asrwt>0</asrwt>
<pdfrwt beam="1">  1        2 0.20951605E+00 0.32656864E+04</pdfrwt>
<pdfrwt beam="2">  1       -2 0.30119307E+00 0.32656864E+04</pdfrwt>
<totfact> 0.39835537E-01</totfact>
</mgrwt>
</event>
<event>
 6    1  0.2236204E-005  0.8307498E+03  0.7818608E-02  0.9516544E-01
         -2   -1    0    0    0  501 -0.00000000000E+00  0.00000000000E+00  0.82045633244E+02  0.82045633244E+02  0.00000000000E+00 0.  1.
          2   -1    0    0  501    0  0.00000000000E+00 -0.00000000000E+00 -0.21029309523E+04  0.21029309523E+04  0.00000000000E+00 0. -1.
         23    2    1    2    0    0  0.26189914567E+03  0.18209412173E+03 -0.17015178509E+04  0.17335953594E+04  0.91871874111E+02 0.  0.
         13    1    3    3    0    0  0.13694062517E+03  0.14876399644E+03 -0.99451031262E+03  0.10148567502E+04  0.00000000000E+00 0. -1.
        -13    1    3    3    0    0  0.12495852050E+03  0.33330125290E+02 -0.70700753833E+03  0.71873860919E+03  0.00000000000E+00 0.  1.
         22    1    1    2    0    0 -0.26189914567E+03 -0.18209412173E+03 -0.31936746815E+03  0.45138122622E+03  0.00000000000E+00 0.  1.
<mgrwt>
<rscale>  0 0.83074979E+03</rscale>
<asrwt>0</asrwt>
<pdfrwt beam="1">  1        2 0.32352785E+00 0.83074979E+03</pdfrwt>
<pdfrwt beam="2">  1       -2 0.12622405E-01 0.83074979E+03</pdfrwt>
<totfact> 0.27934128E+02</totfact>
</mgrwt>
</event>
<event>
 6    1  0.2236204E-005  0.3521655E+04  0.7818608E-02  0.8108677E-01
         -2   -1    0    0    0  501 -0.00000000000E+00  0.00000000000E+00  0.77721459627E+03  0.77721459627E+03  0.00000000000E+00 0.  1.
          2   -1    0    0  501    0  0.00000000000E+00 -0.00000000000E+00 -0.39892636696E+04  0.39892636696E+04  0.00000000000E+00 0. -1.
         23    2    1    2    0    0 -0.99314921090E+03  0.75912421516E+03  0.69031311103E+02  0.12553383629E+04  0.92163736266E+02 0.  0.
         13    1    3    3    0    0 -0.70559653603E+03  0.59003818916E+03  0.44855359280E+02  0.92088193575E+03  0.00000000000E+00 0. -1.
        -13    1    3    3    0    0 -0.28755267487E+03  0.16908602600E+03  0.24175951823E+02  0.33445642715E+03  0.00000000000E+00 0.  1.
         22    1    1    2    0    0  0.99314921090E+03 -0.75912421516E+03 -0.32810803845E+04  0.35111399030E+04  0.00000000000E+00 0. -1.
<mgrwt>
<rscale>  0 0.35216553E+04</rscale>
<asrwt>0</asrwt>
<pdfrwt beam="1">  1        2 0.61373288E+00 0.35216553E+04</pdfrwt>
<pdfrwt beam="2">  1       -2 0.11957148E+00 0.35216553E+04</pdfrwt>
<totfact> 0.15296929E-01</totfact>
</mgrwt>
</event>
<event>
 6    1  0.2236204E-005  0.1617130E+04  0.7818608E-02  0.8810093E-01
          2   -1    0    0  501    0  0.00000000000E+00  0.00000000000E+00  0.16675743139E+04  0.16675743139E+04  0.00000000000E+00 0. -1.
         -2   -1    0    0    0  501 -0.00000000000E+00 -0.00000000000E+00 -0.39205293591E+03  0.39205293591E+03  0.00000000000E+00 0.  1.
         23    2    1    2    0    0  0.60726054519E+03  0.50750845158E+03  0.44750072152E+03  0.91422408685E+03  0.96013473203E+02 0.  0.
         13    1    3    3    0    0  0.16535300020E+03  0.17339642307E+03  0.17587459883E+03  0.29722013512E+03  0.00000000000E+00 0.  1.
        -13    1    3    3    0    0  0.44190754499E+03  0.33411202851E+03  0.27162612269E+03  0.61700395172E+03  0.00000000000E+00 0. -1.
         22    1    1    2    0    0 -0.60726054519E+03 -0.50750845158E+03  0.82802065644E+03  0.11454031629E+04  0.00000000000E+00 0. -1.
<mgrwt>
<rscale>  0 0.16171301E+04</rscale>
<asrwt>0</asrwt>
<pdfrwt beam="1">  1        2 0.25654989E+00 0.16171301E+04</pdfrwt>
<pdfrwt beam="2">  1       -2 0.60315837E-01 0.16171301E+04</pdfrwt>
<totfact> 0.25073974E+01</totfact>
</mgrwt>
</event>
<event>
 6    1  0.2236204E-005  0.5025316E+04  0.7818608E-02  0.7824614E-01
         -2   -1    0    0    0  501 -0.00000000000E+00  0.00000000000E+00  0.26679644854E+04  0.26679644854E+04  0.00000000000E+00 0.  1.
          2   -1    0    0  501    0  0.00000000000E+00 -0.00000000000E+00 -0.23663923949E+04  0.23663923949E+04  0.00000000000E+00 0. -1.
         23    2    1    2    0    0  0.22752546996E+04  0.51389220432E+03 -0.78267695324E+03  0.24621078382E+04  0.92318191404E+02 0.  0.
         11    1    3    3    0    0  0.20801971271E+04  0.46029280705E+03 -0.73998512579E+03  0.22553641706E+04  0.00000000000E+00 0.  1.
        -11    1    3    3    0    0  0.19505757252E+03  0.53599397268E+02 -0.42691827452E+02  0.20674366765E+03  0.00000000000E+00 0. -1.
         22    1    1    2    0    0 -0.22752546996E+04 -0.51389220432E+03  0.10842490437E+04  0.25722490420E+04  0.00000000000E+00 0.  1.
<mgrwt>
<rscale>  0 0.50253163E+04</rscale>
<asrwt>0</asrwt>
<pdfrwt beam="1">  1        2 0.36406037E+00 0.50253163E+04</pdfrwt>
<pdfrwt beam="2">  1       -2 0.41045607E+00 0.50253163E+04</pdfrwt>
<totfact> 0.19155389E-02</totfact>
</mgrwt>
</event>
<event>
 6    1  0.2236204E-005  0.9818561E+03  0.7818608E-02  0.9328672E-01
         -2   -1    0    0    0  501 -0.00000000000E+00  0.00000000000E+00  0.33038700946E+03  0.33038700946E+03  0.00000000000E+00 0.  1.
          2   -1    0    0  501    0  0.00000000000E+00 -0.00000000000E+00 -0.72947884759E+03  0.72947884759E+03  0.00000000000E+00 0. -1.
         23    2    1    2    0    0  0.29184160852E+03 -0.33236663228E+03  0.17953754080E+02  0.45194634865E+03  0.91071741247E+02 0.  0.
         11    1    3    3    0    0  0.12195522950E+03 -0.20670524988E+03  0.16247437628E+01  0.24000578769E+03  0.00000000000E+00 0.  1.
        -11    1    3    3    0    0  0.16988637901E+03 -0.12566138240E+03  0.16329010318E+02  0.21194056096E+03  0.00000000000E+00 0. -1.
         22    1    1    2    0    0 -0.29184160852E+03  0.33236663228E+03 -0.41704559221E+03  0.60791950840E+03  0.00000000000E+00 0. -1.
<mgrwt>
<rscale>  0 0.98185607E+03</rscale>
<asrwt>0</asrwt>
<pdfrwt beam="1">  1        2 0.11222751E+00 0.98185607E+03</pdfrwt>
<pdfrwt beam="2">  1       -2 0.50828771E-01 0.98185607E+03</pdfrwt>
<totfact> 0.14214551E+02</totfact>
</mgrwt>
</event>
<event>
 6    1  0.2236204E-005  0.3771401E+04  0.7818608E-02  0.8052320E-01
         -1   -1    0    0    0  501 -0.00000000000E+00  0.00000000000E+00  0.16756340330E+04  0.16756340330E+04  0.00000000000E+00 0.  1.
          1   -1    0    0  501    0  0.00000000000E+00 -0.00000000000E+00 -0.21221017200E+04  0.21221017200E+04  0.00000000000E+00 0. -1.
         23    2    1    2    0    0  0.10832437339E+04  0.13957403705E+04  0.43712510849E+03  0.18223258216E+04  0.91021263864E+02 0.  0.
         13    1    3    3    0    0  0.47479514573E+03  0.68562001735E+03  0.20221132890E+03  0.85813440680E+03  0.00000000000E+00 0.  1.
        -13    1    3    3    0    0  0.60844858818E+03  0.71012035320E+03  0.23491377960E+03  0.96419141477E+03  0.00000000000E+00 0. -1.
         22    1    1    2    0    0 -0.10832437339E+04 -0.13957403705E+04 -0.88359279542E+03  0.19754099314E+04  0.00000000000E+00 0. -1.
<mgrwt>
<rscale>  0 0.37714007E+04</rscale>
<asrwt>0</asrwt>
<pdfrwt beam="1">  1        1 0.32647719E+00 0.37714007E+04</pdfrwt>
<pdfrwt beam="2">  1       -1 0.25778985E+00 0.37714007E+04</pdfrwt>
<totfact> 0.12178163E-01</totfact>
</mgrwt>
</event>
<event>
 6    1  0.2236204E-005  0.1514755E+04  0.7818608E-02  0.8874700E-01
         -1   -1    0    0    0  501 -0.00000000000E+00  0.00000000000E+00  0.10788815699E+04  0.10788815699E+04  0.00000000000E+00 0.  1.
          1   -1    0    0  501    0  0.00000000000E+00 -0.00000000000E+00 -0.53168064491E+03  0.53168064491E+03  0.00000000000E+00 0. -1.
         23    2    1    2    0    0  0.32968723877E+03 -0.67780569439E+03  0.23403642343E+03  0.79435988705E+03  0.90112973069E+02 0.  0.
         13    1    3    3    0    0  0.25413591579E+03 -0.45085531499E+03  0.18889663629E+03  0.55094239077E+03  0.00000000000E+00 0.  1.
        -13    1    3    3    0    0  0.75551322983E+02 -0.22695037939E+03  0.45139787142E+02  0.24341749628E+03  0.00000000000E+00 0. -1.
         22    1    1    2    0    0 -0.32968723877E+03  0.67780569439E+03  0.31316450152E+03  0.81620232771E+03  0.00000000000E+00 0. -1.
<mgrwt>
<rscale>  0 0.15147547E+04</rscale>
<asrwt>0</asrwt>
<pdfrwt beam="1">  1        1 0.81797023E-01 0.15147547E+04</pdfrwt>
<pdfrwt beam="2">  1       -1 0.16598178E+00 0.15147547E+04</pdfrwt>
<totfact> 0.10358291E+01</totfact>
</mgrwt>
</event>
<event>
 6    1  0.2236204E-005  0.5704327E+03  0.7818608E-02  0.9968722E-01
          2   -1    0    0  501    0  0.00000000000E+00  0.00000000000E+00  0.60668875561E+03  0.60668875561E+03  0.00000000000E+00 0. -1.
         -2   -1    0    0    0  501 -0.00000000000E+00 -0.00000000000E+00 -0.13408582665E+03  0.13408582665E+03  0.00000000000E+00 0.  1.
         23    2    1    2    0    0 -0.12071621095E+03 -0.10948257697E+03  0.53458426316E+03  0.56641712176E+03  0.92136763316E+02 0.  0.
         11    1    3    3    0    0 -0.13880448403E+02 -0.77048314300E+01  0.20135799281E+03  0.20198285211E+03  0.00000000000E+00 0.  1.
        -11    1    3    3    0    0 -0.10683576255E+03 -0.10177774554E+03  0.33322627035E+03  0.36443426965E+03  0.00000000000E+00 0. -1.
         22    1    1    2    0    0  0.12071621095E+03  0.10948257697E+03 -0.61981334198E+02  0.17435746051E+03  0.00000000000E+00 0.  1.
<mgrwt>
<rscale>  0 0.57043269E+03</rscale>
<asrwt>0</asrwt>
<pdfrwt beam="1">  1        2 0.93336729E-01 0.57043269E+03</pdfrwt>
<pdfrwt beam="2">  1       -2 0.20628589E-01 0.57043269E+03</pdfrwt>
<totfact> 0.99244630E+02</totfact>
</mgrwt>
</event>
<event>
 6    1  0.2236204E-005  0.1802659E+04  0.7818608E-02  0.8704887E-01
         -2   -1    0    0    0  501 -0.00000000000E+00  0.00000000000E+00  0.39954356272E+03  0.39954356272E+03  0.00000000000E+00 0.  1.
          2   -1    0    0  501    0  0.00000000000E+00 -0.00000000000E+00 -0.20333079912E+04  0.20333079912E+04  0.00000000000E+00 0. -1.
         23    2    1    2    0    0  0.31175558872E+03 -0.78883794297E+03 -0.12213278034E+04  0.14896862359E+04  0.89814423922E+02 0.  0.
         11    1    3    3    0    0  0.14734675715E+03 -0.48579284049E+03 -0.75302672848E+03  0.90816023064E+03  0.00000000000E+00 0. -1.
        -11    1    3    3    0    0  0.16440883157E+03 -0.30304510249E+03 -0.46830107490E+03  0.58152600526E+03  0.00000000000E+00 0.  1.
         22    1    1    2    0    0 -0.31175558872E+03  0.78883794297E+03 -0.41243662509E+03  0.94316531801E+03  0.00000000000E+00 0. -1.
<mgrwt>
<rscale>  0 0.18026593E+04</rscale>
<asrwt>0</asrwt>
<pdfrwt beam="1">  1        2 0.31281661E+00 0.18026593E+04</pdfrwt>
<pdfrwt beam="2">  1       -2 0.61468241E-01 0.18026593E+04</pdfrwt>
<totfact> 0.14867352E+01</totfact>
</mgrwt>
</event>
<event>
 6    1  0.2236204E-005  0.2160273E+04  0.7818608E-02  0.8535148E-01
          2   -1    0    0  501    0  0.00000000000E+00  0.00000000000E+00  0.79145108364E+03  0.79145108364E+03  0.00000000000E+00 0. -1.
         -2   -1    0    0    0  501 -0.00000000000E+00 -0.00000000000E+00 -0.14741205894E+04  0.14741205894E+04  0.00000000000E+00 0.  1.
         23    2    1    2    0    0  0.61579439525E+03  0.40651569539E+03 -0.11666615772E+04  0.13831284324E+04  0.86529052904E+02 0.  0.
         11    1    3    3    0    0  0.20585751661E+03  0.10498616005E+03 -0.42324727193E+03  0.48222159236E+03  0.00000000000E+00 0. -1.
        -11    1    3    3    0    0  0.40993687865E+03  0.30152953534E+03 -0.74341430523E+03  0.90090684001E+03  0.00000000000E+00 0.  1.
         22    1    1    2    0    0 -0.61579439525E+03 -0.40651569539E+03  0.48399207140E+03  0.88244324067E+03  0.00000000000E+00 0. -1.
<mgrwt>
<rscale>  0 0.21602725E+04</rscale>
<asrwt>0</asrwt>
<pdfrwt beam="1">  1        2 0.12176171E+00 0.21602725E+04</pdfrwt>
<pdfrwt beam="2">  1       -2 0.22678778E+00 0.21602725E+04</pdfrwt>
<totfact> 0.28685521E+00</totfact>
</mgrwt>
</event>
<event>
 6    1  0.2236204E-005  0.1877743E+04  0.7818608E-02  0.8666015E-01
         -2   -1    0    0    0  501 -0.00000000000E+00  0.00000000000E+00  0.22178217407E+04  0.22178217407E+04  0.00000000000E+00 0.  1.
          2   -1    0    0  501    0  0.00000000000E+00 -0.00000000000E+00 -0.39745275718E+03  0.39745275718E+03  0.00000000000E+00 0. -1.
         23    2    1    2    0    0  0.26542843299E+03  0.26100502552E+03 -0.28496681592E+03  0.47728134897E+03  0.89529456108E+02 0.  0.
         11    1    3    3    0    0  0.12503969798E+03  0.11081011581E+03 -0.18299134995E+03  0.24778951147E+03  0.00000000000E+00 0.  1.
        -11    1    3    3    0    0  0.14038873500E+03  0.15019490971E+03 -0.10197546597E+03  0.22949183750E+03  0.00000000000E+00 0. -1.
         22    1    1    2    0    0 -0.26542843299E+03 -0.26100502552E+03  0.21053357994E+04  0.21379931489E+04  0.00000000000E+00 0.  1.
<mgrwt>
<rscale>  0 0.18777427E+04</rscale>
<asrwt>0</asrwt>
<pdfrwt beam="1">  1        2 0.61146579E-01 0.18777427E+04</pdfrwt>
<pdfrwt beam="2">  1       -2 0.34120334E+00 0.18777427E+04</pdfrwt>
<totfact> 0.13317610E+00</totfact>
</mgrwt>
</event>
<event>
 6    1  0.2236204E-005  0.1018843E+04  0.7818608E-02  0.9288116E-01
          2   -1    0    0  501    0  0.00000000000E+00  0.00000000000E+00  0.17866626369E+04  0.17866626369E+04  0.00000000000E+00 0. -1.
         -2   -1    0    0    0  501 -0.00000000000E+00 -0.00000000000E+00 -0.14524867195E+03  0.14524867195E+03  0.00000000000E+00 0.  1.
         23    2    1    2    0    0 -0.83754213561E+02  0.33762586438E+03  0.13152245986E+03  0.38246677943E+03  0.89312302280E+02 0.  0.
         13    1    3    3    0    0 -0.56182322253E+02  0.12172999044E+03  0.88390152801E+02  0.16058475338E+03  0.00000000000E+00 0. -1.
        -13    1    3    3    0    0 -0.27571891307E+02  0.21589587394E+03  0.43132307056E+02  0.22188202605E+03  0.00000000000E+00 0.  1.
         22    1    1    2    0    0  0.83754213561E+02 -0.33762586438E+03  0.15098915051E+04  0.15494445294E+04  0.00000000000E+00 0. -1.
<mgrwt>
<rscale>  0 0.10188432E+04</rscale>
<asrwt>0</asrwt>
<pdfrwt beam="1">  1        2 0.27487116E+00 0.10188432E+04</pdfrwt>
<pdfrwt beam="2">  1       -2 0.22345951E-01 0.10188432E+04</pdfrwt>
<totfact> 0.15388183E+02</totfact>
</mgrwt>
</event>
<event>
 6    1  0.2236204E-005  0.3597816E+03  0.7818608E-02  0.1058670E+00
         -2   -1    0    0    0  501 -0.00000000000E+00  0.00000000000E+00  0.56072447898E+03  0.56072447898E+03  0.00000000000E+00 0. -1.
          2   -1    0    0  501    0  0.00000000000E+00 -0.00000000000E+00 -0.57712292575E+02  0.57712292575E+02  0.00000000000E+00 0.  1.
         23    2    1    2    0    0 -0.12478944436E+03 -0.80489008687E+02  0.12950310354E+03  0.21649160001E+03  0.89703250256E+02 0.  0.
         11    1    3    3    0    0 -0.42439332599E+02 -0.66514802876E+02  0.10114955597E+03  0.12828308004E+03  0.00000000000E+00 0. -1.
        -11    1    3    3    0    0 -0.82350111762E+02 -0.13974205811E+02  0.28353547573E+02  0.88208519970E+02  0.00000000000E+00 0.  1.
         22    1    1    2    0    0  0.12478944436E+03  0.80489008687E+02  0.37350908286E+03  0.40194517154E+03  0.00000000000E+00 0. -1.
<mgrwt>
<rscale>  0 0.35978157E+03</rscale>
<asrwt>0</asrwt>
<pdfrwt beam="1">  1        2 0.88788146E-02 0.35978157E+03</pdfrwt>
<pdfrwt beam="2">  1       -2 0.86265301E-01 0.35978157E+03</pdfrwt>
<totfact> 0.90110261E+02</totfact>
</mgrwt>
</event>
<event>
 6    1  0.2236204E-005  0.3970381E+03  0.7818608E-02  0.1044810E+00
          1   -1    0    0  501    0  0.00000000000E+00  0.00000000000E+00  0.14765584213E+04  0.14765584213E+04  0.00000000000E+00 0. -1.
         -1   -1    0    0    0  501 -0.00000000000E+00 -0.00000000000E+00 -0.26690324079E+02  0.26690324079E+02  0.00000000000E+00 0.  1.
         23    2    1    2    0    0  0.17192555327E+03  0.58020992381E+02  0.57631583920E+03  0.61105012461E+03  0.91200201974E+02 0.  0.
         13    1    3    3    0    0  0.13594875519E+03  0.13508786388E+01  0.38675235353E+03  0.40995276785E+03  0.00000000000E+00 0. -1.
        -13    1    3    3    0    0  0.35976798080E+02  0.56670113742E+02  0.18956348567E+03  0.20109735675E+03  0.00000000000E+00 0.  1.
         22    1    1    2    0    0 -0.17192555327E+03 -0.58020992381E+02  0.87355225807E+03  0.89219862082E+03  0.00000000000E+00 0. -1.
<mgrwt>
<rscale>  0 0.39703815E+03</rscale>
<asrwt>0</asrwt>
<pdfrwt beam="1">  1        1 0.22716277E+00 0.39703815E+03</pdfrwt>
<pdfrwt beam="2">  1       -1 0.41062049E-02 0.39703815E+03</pdfrwt>
<totfact> 0.17491154E+03</totfact>
</mgrwt>
</event>
<event>
 6    1  0.2236204E-005  0.2902198E+04  0.7818608E-02  0.8272224E-01
          2   -1    0    0  501    0  0.00000000000E+00  0.00000000000E+00  0.30660326249E+04  0.30660326249E+04  0.00000000000E+00 0. -1.
         -2   -1    0    0    0  501 -0.00000000000E+00 -0.00000000000E+00 -0.68677940277E+03  0.68677940277E+03  0.00000000000E+00 0.  1.
         23    2    1    2    0    0  0.53137860743E+03 -0.11007992748E+04  0.21985570887E+04  0.25171853201E+04  0.91904276073E+02 0.  0.
         11    1    3    3    0    0  0.67140994746E+02 -0.17495269659E+03  0.40025416787E+03  0.44194994979E+03  0.00000000000E+00 0. -1.
        -11    1    3    3    0    0  0.46423761268E+03 -0.92584657817E+03  0.17983029208E+04  0.20752353703E+04  0.00000000000E+00 0.  1.
         22    1    1    2    0    0 -0.53137860743E+03  0.11007992748E+04  0.18069613346E+03  0.12356267075E+04  0.00000000000E+00 0.  1.
<mgrwt>
<rscale>  0 0.29021978E+04</rscale>
<asrwt>0</asrwt>
<pdfrwt beam="1">  1        2 0.47169732E+00 0.29021978E+04</pdfrwt>
<pdfrwt beam="2">  1       -2 0.10565837E+00 0.29021978E+04</pdfrwt>
<totfact> 0.98783951E-01</totfact>
</mgrwt>
</event>
<event>
 6    1  0.2236204E-005  0.9502202E+03  0.7818608E-02  0.9364893E-01
         -2   -1    0    0    0  501 -0.00000000000E+00  0.00000000000E+00  0.13845201918E+04  0.13845201918E+04  0.00000000000E+00 0. -1.
          2   -1    0    0  501    0  0.00000000000E+00 -0.00000000000E+00 -0.16303814343E+03  0.16303814343E+03  0.00000000000E+00 0.  1.
         23    2    1    2    0    0  0.48632850107E+02  0.28830345835E+03  0.12171319819E+04  0.12551494413E+04  0.92227004769E+02 0.  0.
         11    1    3    3    0    0  0.71885010959E+02  0.24978229824E+03  0.98634616495E+03  0.10200183373E+04  0.00000000000E+00 0.  1.
        -11    1    3    3    0    0 -0.23252160852E+02  0.38521160113E+02  0.23078581692E+03  0.23513110396E+03  0.00000000000E+00 0. -1.
         22    1    1    2    0    0 -0.48632850107E+02 -0.28830345835E+03  0.43500665171E+01  0.29240889399E+03  0.00000000000E+00 0.  1.
<mgrwt>
<rscale>  0 0.95022019E+03</rscale>
<asrwt>0</asrwt>
<pdfrwt beam="1">  1        2 0.25082792E-01 0.95022019E+03</pdfrwt>
<pdfrwt beam="2">  1       -2 0.21300310E+00 0.95022019E+03</pdfrwt>
<totfact> 0.24032520E+01</totfact>
</mgrwt>
</event>
<event>
 6    1  0.2236204E-005  0.2972976E+04  0.7818608E-02  0.8251490E-01
          2   -1    0    0  501    0  0.00000000000E+00  0.00000000000E+00  0.20293711908E+04  0.20293711908E+04  0.00000000000E+00 0. -1.
         -2   -1    0    0    0  501 -0.00000000000E+00 -0.00000000000E+00 -0.10888330848E+04  0.10888330848E+04  0.00000000000E+00 0.  1.
         23    2    1    2    0    0  0.12050359145E+03  0.40735672898E+03 -0.10219333785E+04  0.11102812324E+04  0.88971708369E+02 0.  0.
         11    1    3    3    0    0  0.82499176525E+02  0.21014184312E+03 -0.43772034295E+03  0.49250868722E+03  0.00000000000E+00 0. -1.
        -11    1    3    3    0    0  0.38004414921E+02  0.19721488586E+03 -0.58421303552E+03  0.61777254522E+03  0.00000000000E+00 0.  1.
         22    1    1    2    0    0 -0.12050359145E+03 -0.40735672898E+03  0.19624714844E+04  0.20079230432E+04  0.00000000000E+00 0. -1.
<mgrwt>
<rscale>  0 0.29729759E+04</rscale>
<asrwt>0</asrwt>
<pdfrwt beam="1">  1        2 0.31221095E+00 0.29729759E+04</pdfrwt>
<pdfrwt beam="2">  1       -2 0.16751278E+00 0.29729759E+04</pdfrwt>
<totfact> 0.12257891E+00</totfact>
</mgrwt>
</event>
<event>
 6    1  0.2236204E-005  0.2549601E+04  0.7818608E-02  0.8385525E-01
          1   -1    0    0  501    0  0.00000000000E+00  0.00000000000E+00  0.99578275804E+03  0.99578275804E+03  0.00000000000E+00 0. -1.
         -1   -1    0    0    0  501 -0.00000000000E+00 -0.00000000000E+00 -0.16319989616E+04  0.16319989616E+04  0.00000000000E+00 0.  1.
         23    2    1    2    0    0 -0.97108380634E+03 -0.78564799453E+03 -0.64473863275E+02  0.12540510932E+04  0.90778494800E+02 0.  0.
         11    1    3    3    0    0 -0.38269851486E+03 -0.27180214566E+03 -0.56944404263E+02  0.47283953392E+03  0.00000000000E+00 0.  1.
        -11    1    3    3    0    0 -0.58838529148E+03 -0.51384584887E+03 -0.75294590130E+01  0.78121155930E+03  0.00000000000E+00 0. -1.
         22    1    1    2    0    0  0.97108380634E+03  0.78564799453E+03 -0.57174234025E+03  0.13737306264E+04  0.00000000000E+00 0. -1.
<mgrwt>
<rscale>  0 0.25496011E+04</rscale>
<asrwt>0</asrwt>
<pdfrwt beam="1">  1        1 0.15319735E+00 0.25496011E+04</pdfrwt>
<pdfrwt beam="2">  1       -1 0.25107676E+00 0.25496011E+04</pdfrwt>
<totfact> 0.92514686E-01</totfact>
</mgrwt>
</event>
<event>
 6    1  0.2236204E-005  0.8221878E+03  0.7818608E-02  0.9528445E-01
          2   -1    0    0  501    0  0.00000000000E+00  0.00000000000E+00  0.12166910101E+03  0.12166910101E+03  0.00000000000E+00 0. -1.
         -2   -1    0    0    0  501 -0.00000000000E+00 -0.00000000000E+00 -0.13889985738E+04  0.13889985738E+04  0.00000000000E+00 0.  1.
         23    2    1    2    0    0  0.16977337434E+02 -0.40391860352E+03 -0.57572747230E+03  0.70957355091E+03  0.92704010380E+02 0.  0.
         13    1    3    3    0    0  0.51193834478E+02 -0.26702828916E+03 -0.34713443372E+03  0.44093903317E+03  0.00000000000E+00 0. -1.
        -13    1    3    3    0    0 -0.34216497044E+02 -0.13689031436E+03 -0.22859303858E+03  0.26863451774E+03  0.00000000000E+00 0.  1.
         22    1    1    2    0    0 -0.16977337434E+02  0.40391860352E+03 -0.69160200048E+03  0.80109412388E+03  0.00000000000E+00 0. -1.
<mgrwt>
<rscale>  0 0.82218783E+03</rscale>
<asrwt>0</asrwt>
<pdfrwt beam="1">  1        2 0.18718322E-01 0.82218783E+03</pdfrwt>
<pdfrwt beam="2">  1       -2 0.21369210E+00 0.82218783E+03</pdfrwt>
<totfact> 0.33800993E+01</totfact>
</mgrwt>
</event>
<event>
 6    1  0.2236204E-005  0.5874433E+03  0.7818608E-02  0.9931805E-01
         -2   -1    0    0    0  501 -0.00000000000E+00  0.00000000000E+00  0.10541759311E+03  0.10541759311E+03  0.00000000000E+00 0. -1.
          2   -1    0    0  501    0  0.00000000000E+00 -0.00000000000E+00 -0.81838720380E+03  0.81838720380E+03  0.00000000000E+00 0.  1.
         23    2    1    2    0    0  0.15261579789E+03  0.15631113822E+03 -0.65682527306E+03  0.69824562431E+03  0.91666563400E+02 0.  0.
         11    1    3    3    0    0  0.33294776930E+02  0.94867888194E+02 -0.32872117443E+03  0.34375291839E+03  0.00000000000E+00 0.  1.
        -11    1    3    3    0    0  0.11932102096E+03  0.61443250022E+02 -0.32810409863E+03  0.35449270592E+03  0.00000000000E+00 0. -1.
         22    1    1    2    0    0 -0.15261579789E+03 -0.15631113822E+03 -0.56144337629E+02  0.22555917260E+03  0.00000000000E+00 0. -1.
<mgrwt>
<rscale>  0 0.58744331E+03</rscale>
<asrwt>0</asrwt>
<pdfrwt beam="1">  1        2 0.12590572E+00 0.58744331E+03</pdfrwt>
<pdfrwt beam="2">  1       -2 0.16218092E-01 0.58744331E+03</pdfrwt>
<totfact> 0.10306014E+03</totfact>
</mgrwt>
</event>
<event>
 6    1  0.2236204E-005  0.2323172E+04  0.7818608E-02  0.8468840E-01
          2   -1    0    0  501    0  0.00000000000E+00  0.00000000000E+00  0.13977337302E+04  0.13977337302E+04  0.00000000000E+00 0. -1.
         -2   -1    0    0    0  501 -0.00000000000E+00 -0.00000000000E+00 -0.96533555499E+03  0.96533555499E+03  0.00000000000E+00 0.  1.
         23    2    1    2    0    0  0.10448591138E+04  0.22571242375E+03 -0.24101690475E+03  0.10996752311E+04  0.92302761279E+02 0.  0.
         11    1    3    3    0    0  0.53499076965E+03  0.16088385160E+03 -0.13866752898E+03  0.57561047672E+03  0.00000000000E+00 0.  1.
        -11    1    3    3    0    0  0.50986834412E+03  0.64828572148E+02 -0.10234937578E+03  0.52406475442E+03  0.00000000000E+00 0. -1.
         22    1    1    2    0    0 -0.10448591138E+04 -0.22571242375E+03  0.67341507992E+03  0.12633940540E+04  0.00000000000E+00 0. -1.
<mgrwt>
<rscale>  0 0.23231720E+04</rscale>
<asrwt>0</asrwt>
<pdfrwt beam="1">  1        2 0.21503596E+00 0.23231720E+04</pdfrwt>
<pdfrwt beam="2">  1       -2 0.14851316E+00 0.23231720E+04</pdfrwt>
<totfact> 0.40410062E+00</totfact>
</mgrwt>
</event>
<event>
 6    1  0.2236204E-005  0.8444582E+03  0.7818608E-02  0.9497805E-01
         -2   -1    0    0    0  501 -0.00000000000E+00  0.00000000000E+00  0.29584462495E+03  0.29584462495E+03  0.00000000000E+00 0. -1.
          2   -1    0    0  501    0  0.00000000000E+00 -0.00000000000E+00 -0.60260493595E+03  0.60260493595E+03  0.00000000000E+00 0.  1.
         23    2    1    2    0    0  0.32548821568E+03 -0.22938944976E+03 -0.28744257579E+03  0.49978269107E+03  0.92722196451E+02 0.  0.
         11    1    3    3    0    0  0.22144081384E+03 -0.19501575313E+03 -0.17641253902E+03  0.34378563368E+03  0.00000000000E+00 0.  1.
        -11    1    3    3    0    0  0.10404740184E+03 -0.34373696624E+02 -0.11103003677E+03  0.15599705739E+03  0.00000000000E+00 0. -1.
         22    1    1    2    0    0 -0.32548821568E+03  0.22938944976E+03 -0.19317735216E+02  0.39866686983E+03  0.00000000000E+00 0. -1.
<mgrwt>
<rscale>  0 0.84445824E+03</rscale>
<asrwt>0</asrwt>
<pdfrwt beam="1">  1        2 0.92708451E-01 0.84445824E+03</pdfrwt>
<pdfrwt beam="2">  1       -2 0.45514558E-01 0.84445824E+03</pdfrwt>
<totfact> 0.22700744E+02</totfact>
</mgrwt>
</event>
<event>
 6    1  0.2236204E-005  0.2010590E+04  0.7818608E-02  0.8601686E-01
          2   -1    0    0  501    0  0.00000000000E+00  0.00000000000E+00  0.38428565523E+04  0.38428565523E+04  0.00000000000E+00 0. -1.
         -2   -1    0    0    0  501 -0.00000000000E+00 -0.00000000000E+00 -0.26298606698E+03  0.26298606698E+03  0.00000000000E+00 0.  1.
         23    2    1    2    0    0 -0.78606557121E+03  0.50921829814E+03  0.25277988511E+04  0.26972770081E+04  0.91290030379E+02 0.  0.
         11    1    3    3    0    0 -0.15003294970E+03  0.57602226847E+02  0.40849720248E+03  0.43897365180E+03  0.00000000000E+00 0. -1.
        -11    1    3    3    0    0 -0.63603262150E+03  0.45161607129E+03  0.21193016486E+04  0.22583033563E+04  0.00000000000E+00 0.  1.
         22    1    1    2    0    0  0.78606557121E+03 -0.50921829814E+03  0.10520716343E+04  0.14085656112E+04  0.00000000000E+00 0.  1.
<mgrwt>
<rscale>  0 0.20105897E+04</rscale>
<asrwt>0</asrwt>
<pdfrwt beam="1">  1        2 0.59120866E+00 0.20105897E+04</pdfrwt>
<pdfrwt beam="2">  1       -2 0.40459398E-01 0.20105897E+04</pdfrwt>
<totfact> 0.24658269E+00</totfact>
</mgrwt>
</event>
<event>
 6    1  0.2236204E-005  0.1713569E+04  0.7818608E-02  0.8753663E-01
          2   -1    0    0  501    0  0.00000000000E+00  0.00000000000E+00  0.94857121379E+03  0.94857121379E+03  0.00000000000E+00 0. -1.
         -2   -1    0    0    0  501 -0.00000000000E+00 -0.00000000000E+00 -0.77387914863E+03  0.77387914863E+03  0.00000000000E+00 0.  1.
         23    2    1    2    0    0  0.65554761519E+03 -0.42370409794E+03  0.43706904193E+03  0.89897630920E+03  0.88663513932E+02 0.  0.
         11    1    3    3    0    0  0.33251913409E+03 -0.25127476395E+03  0.19593362700E+03  0.46054095119E+03  0.00000000000E+00 0.  1.
        -11    1    3    3    0    0  0.32302848110E+03 -0.17242933398E+03  0.24113541493E+03  0.43843535801E+03  0.00000000000E+00 0. -1.
         22    1    1    2    0    0 -0.65554761519E+03  0.42370409794E+03 -0.26237697678E+03  0.82347405322E+03  0.00000000000E+00 0.  1.
<mgrwt>
<rscale>  0 0.17135688E+04</rscale>
<asrwt>0</asrwt>
<pdfrwt beam="1">  1        2 0.14593403E+00 0.17135688E+04</pdfrwt>
<pdfrwt beam="2">  1       -2 0.11905833E+00 0.17135688E+04</pdfrwt>
<totfact> 0.14005516E+01</totfact>
</mgrwt>
</event>
<event>
 6    1  0.2236204E-005  0.9900158E+03  0.7818608E-02  0.9319564E-01
          1   -1    0    0  501    0  0.00000000000E+00  0.00000000000E+00  0.32459313797E+03  0.32459313797E+03  0.00000000000E+00 0. -1.
         -1   -1    0    0    0  501 -0.00000000000E+00 -0.00000000000E+00 -0.75489212893E+03  0.75489212893E+03  0.00000000000E+00 0.  1.
         23    2    1    2    0    0 -0.83134952584E+02 -0.10522041344E+03  0.29766299982E+03  0.33927488074E+03  0.92311578310E+02 0.  0.
         13    1    3    3    0    0  0.87603897460E+01 -0.54620711441E+02  0.13285362526E+03  0.14391057046E+03  0.00000000000E+00 0. -1.
        -13    1    3    3    0    0 -0.91895342330E+02 -0.50599701995E+02  0.16480937457E+03  0.19536431027E+03  0.00000000000E+00 0.  1.
         22    1    1    2    0    0  0.83134952584E+02  0.10522041344E+03 -0.72796199079E+03  0.74021038616E+03  0.00000000000E+00 0.  1.
<mgrwt>
<rscale>  0 0.99001577E+03</rscale>
<asrwt>0</asrwt>
<pdfrwt beam="1">  1        1 0.49937406E-01 0.99001577E+03</pdfrwt>
<pdfrwt beam="2">  1       -1 0.11613725E+00 0.99001577E+03</pdfrwt>
<totfact> 0.53203228E+01</totfact>
</mgrwt>
</event>
<event>
 6    1  0.2236204E-005  0.2857808E+04  0.7818608E-02  0.8285543E-01
         -2   -1    0    0    0  501 -0.00000000000E+00  0.00000000000E+00  0.22525068608E+04  0.22525068608E+04  0.00000000000E+00 0. -1.
          2   -1    0    0  501    0  0.00000000000E+00 -0.00000000000E+00 -0.90644222516E+03  0.90644222516E+03  0.00000000000E+00 0.  1.
         23    2    1    2    0    0 -0.11473194831E+03 -0.75333937002E+03  0.20078587330E+04  0.21496646594E+04  0.94222236694E+02 0.  0.
         11    1    3    3    0    0 -0.12588924993E+02 -0.39140611260E+03  0.10454979540E+04  0.11164332482E+04  0.00000000000E+00 0.  1.
        -11    1    3    3    0    0 -0.10214302332E+03 -0.36193325742E+03  0.96236077898E+03  0.10332314111E+04  0.00000000000E+00 0. -1.
         22    1    1    2    0    0  0.11473194831E+03  0.75333937002E+03 -0.66179409734E+03  0.10092844265E+04  0.00000000000E+00 0.  1.
<mgrwt>
<rscale>  0 0.28578085E+04</rscale>
<asrwt>0</asrwt>
<pdfrwt beam="1">  1        2 0.13945265E+00 0.28578085E+04</pdfrwt>
<pdfrwt beam="2">  1       -2 0.34653951E+00 0.28578085E+04</pdfrwt>
<totfact> 0.41123164E-01</totfact>
</mgrwt>
</event>
<event>
 6    1  0.2236204E-005  0.2286689E+04  0.7818608E-02  0.8483188E-01
         -2   -1    0    0    0  501 -0.00000000000E+00  0.00000000000E+00  0.95197181746E+03  0.95197181746E+03  0.00000000000E+00 0.  1.
          2   -1    0    0  501    0  0.00000000000E+00 -0.00000000000E+00 -0.13731883042E+04  0.13731883042E+04  0.00000000000E+00 0. -1.
         23    2    1    2    0    0 -0.11066817247E+04  0.27945408493E+03 -0.21196733548E+03  0.11647187260E+04  0.93811161326E+02 0.  0.
         11    1    3    3    0    0 -0.30531814609E+03  0.64180149966E+02 -0.98808228777E+02  0.32726339247E+03  0.00000000000E+00 0.  1.
        -11    1    3    3    0    0 -0.80136357865E+03  0.21527393496E+03 -0.11315910671E+03  0.83745533355E+03  0.00000000000E+00 0. -1.
         22    1    1    2    0    0  0.11066817247E+04 -0.27945408493E+03 -0.20924915130E+03  0.11604413957E+04  0.00000000000E+00 0.  1.
<mgrwt>
<rscale>  0 0.22866889E+04</rscale>
<asrwt>0</asrwt>
<pdfrwt beam="1">  1        2 0.21125974E+00 0.22866889E+04</pdfrwt>
<pdfrwt beam="2">  1       -2 0.14645720E+00 0.22866889E+04</pdfrwt>
<totfact> 0.43437885E+00</totfact>
</mgrwt>
</event>
<event>
 6    1  0.2236204E-005  0.4835572E+03  0.7818608E-02  0.1018162E+00
         -2   -1    0    0    0  501 -0.00000000000E+00  0.00000000000E+00  0.45092877730E+03  0.45092877730E+03  0.00000000000E+00 0.  1.
          2   -1    0    0  501    0  0.00000000000E+00 -0.00000000000E+00 -0.12963661947E+03  0.12963661947E+03  0.00000000000E+00 0. -1.
         23    2    1    2    0    0  0.13505135275E+03 -0.37035626675E+02 -0.50858145169E+02  0.18293950029E+03  0.10615933456E+03 0.  0.
         13    1    3    3    0    0  0.12157203184E+03 -0.21856785090E+02 -0.80189966446E+02  0.14726815236E+03  0.00000000000E+00 0. -1.
        -13    1    3    3    0    0  0.13479320908E+02 -0.15178841585E+02  0.29331821277E+02  0.35671347934E+02  0.00000000000E+00 0.  1.
         22    1    1    2    0    0 -0.13505135275E+03  0.37035626675E+02  0.37215030300E+03  0.39762589647E+03  0.00000000000E+00 0.  1.
<mgrwt>
<rscale>  0 0.48355716E+03</rscale>
<asrwt>0</asrwt>
<pdfrwt beam="1">  1        2 0.19944095E-01 0.48355716E+03</pdfrwt>
<pdfrwt beam="2">  1       -2 0.69373657E-01 0.48355716E+03</pdfrwt>
<totfact> 0.54468317E+02</totfact>
</mgrwt>
</event>
<event>
 6    1  0.2236204E-005  0.5962353E+04  0.7818608E-02  0.7695087E-01
          2   -1    0    0  501    0  0.00000000000E+00  0.00000000000E+00  0.22693743820E+04  0.22693743820E+04  0.00000000000E+00 0. -1.
         -2   -1    0    0    0  501 -0.00000000000E+00 -0.00000000000E+00 -0.39162399186E+04  0.39162399186E+04  0.00000000000E+00 0.  1.
         23    2    1    2    0    0 -0.11816990162E+04 -0.10327659673E+04  0.18050872084E+04  0.23936496566E+04  0.90557940991E+02 0.  0.
         11    1    3    3    0    0 -0.85108609974E+02 -0.10363745720E+03  0.17343915186E+03  0.21923808389E+03  0.00000000000E+00 0. -1.
        -11    1    3    3    0    0 -0.10965904062E+04 -0.92912851006E+03  0.16316480565E+04  0.21744115727E+04  0.00000000000E+00 0.  1.
         22    1    1    2    0    0  0.11816990162E+04  0.10327659673E+04 -0.34519527450E+04  0.37919646441E+04  0.00000000000E+00 0.  1.
<mgrwt>
<rscale>  0 0.59623534E+04</rscale>
<asrwt>0</asrwt>
<pdfrwt beam="1">  1        2 0.34913452E+00 0.59623534E+04</pdfrwt>
<pdfrwt beam="2">  1       -2 0.60249844E+00 0.59623534E+04</pdfrwt>
<totfact> 0.16139869E-03</totfact>
</mgrwt>
</event>
<event>
 6    1  0.2458683E-005  0.5111774E+04  0.7818608E-02  0.7811493E-01
         -2   -1    0    0    0  501 -0.00000000000E+00  0.00000000000E+00  0.40499036778E+04  0.40499036778E+04  0.00000000000E+00 0.  1.
          2   -1    0    0  501    0  0.00000000000E+00 -0.00000000000E+00 -0.16130159165E+04  0.16130159165E+04  0.00000000000E+00 0. -1.
         23    2    1    2    0    0  0.71625433532E+03  0.25592462349E+03  0.39210958240E+04  0.39951692356E+04  0.88696530241E+02 0.  0.
         11    1    3    3    0    0  0.33438946795E+03  0.13891240530E+03  0.20760555808E+04  0.21073964381E+04  0.00000000000E+00 0.  1.
        -11    1    3    3    0    0  0.38186486737E+03  0.11701221819E+03  0.18450402432E+04  0.18877727975E+04  0.00000000000E+00 0. -1.
         22    1    1    2    0    0 -0.71625433532E+03 -0.25592462349E+03 -0.14842080627E+04  0.16677503588E+04  0.00000000000E+00 0. -1.
<mgrwt>
<rscale>  0 0.51117743E+04</rscale>
<asrwt>0</asrwt>
<pdfrwt beam="1">  1        2 0.24815630E+00 0.51117743E+04</pdfrwt>
<pdfrwt beam="2">  1       -2 0.62306210E+00 0.51117743E+04</pdfrwt>
<totfact> 0.33312446E-03</totfact>
</mgrwt>
</event>
<event>
 6    1  0.2236204E-005  0.9717994E+03  0.7818608E-02  0.9340027E-01
          2   -1    0    0  501    0  0.00000000000E+00  0.00000000000E+00  0.13652551393E+04  0.13652551393E+04  0.00000000000E+00 0. -1.
         -2   -1    0    0    0  501 -0.00000000000E+00 -0.00000000000E+00 -0.17293363136E+03  0.17293363136E+03  0.00000000000E+00 0.  1.
         23    2    1    2    0    0 -0.19268527241E+03 -0.21624110894E+03 -0.81040359997E+01  0.30331658377E+03  0.89707542558E+02 0.  0.
         13    1    3    3    0    0 -0.12180773171E+03 -0.13333192019E+03 -0.48510901836E+02  0.18699687709E+03  0.00000000000E+00 0.  1.
        -13    1    3    3    0    0 -0.70877540706E+02 -0.82909188749E+02  0.40406865836E+02  0.11631970668E+03  0.00000000000E+00 0. -1.
         22    1    1    2    0    0  0.19268527241E+03  0.21624110894E+03  0.12004255439E+04  0.12348721869E+04  0.00000000000E+00 0. -1.
<mgrwt>
<rscale>  0 0.97179942E+03</rscale>
<asrwt>0</asrwt>
<pdfrwt beam="1">  1        2 0.21003924E+00 0.97179942E+03</pdfrwt>
<pdfrwt beam="2">  1       -2 0.26605175E-01 0.97179942E+03</pdfrwt>
<totfact> 0.19373687E+02</totfact>
</mgrwt>
</event>
<event>
 6    1  0.3985635E-005  0.3602559E+04  0.7818608E-02  0.8089906E-01
          2   -1    0    0  501    0  0.00000000000E+00  0.00000000000E+00  0.18235470461E+04  0.18235470461E+04  0.00000000000E+00 0. -1.
         -2   -1    0    0    0  501 -0.00000000000E+00 -0.00000000000E+00 -0.17792839278E+04  0.17792839278E+04  0.00000000000E+00 0.  1.
         23    2    1    2    0    0 -0.11736558259E+04 -0.21169714284E+03  0.13705440628E+04  0.18192097075E+04  0.94070473934E+02 0.  0.
         11    1    3    3    0    0 -0.60695396142E+03 -0.10373406092E+03  0.63649460353E+03  0.88559541948E+03  0.00000000000E+00 0. -1.
        -11    1    3    3    0    0 -0.56670186445E+03 -0.10796308193E+03  0.73404945926E+03  0.93361428806E+03  0.00000000000E+00 0.  1.
         22    1    1    2    0    0  0.11736558259E+04  0.21169714284E+03 -0.13262809445E+04  0.17836212663E+04  0.00000000000E+00 0.  1.
<mgrwt>
<rscale>  0 0.36025591E+04</rscale>
<asrwt>0</asrwt>
<pdfrwt beam="1">  1        2 0.28054570E+00 0.36025591E+04</pdfrwt>
<pdfrwt beam="2">  1       -2 0.27373599E+00 0.36025591E+04</pdfrwt>
<totfact> 0.31376567E-01</totfact>
</mgrwt>
</event>
<event>
 6    1  0.2236204E-005  0.3292419E+04  0.7818608E-02  0.8164827E-01
          2   -1    0    0  501    0  0.00000000000E+00  0.00000000000E+00  0.30175769161E+04  0.30175769161E+04  0.00000000000E+00 0. -1.
         -2   -1    0    0    0  501 -0.00000000000E+00 -0.00000000000E+00 -0.89807344887E+03  0.89807344887E+03  0.00000000000E+00 0.  1.
         23    2    1    2    0    0 -0.35144131423E+03 -0.14938288415E+04  0.17653338488E+04  0.23406990249E+04  0.86213238756E+02 0.  0.
         11    1    3    3    0    0 -0.16477838529E+03 -0.87144162891E+03  0.10442611699E+04  0.13700524880E+04  0.00000000000E+00 0. -1.
        -11    1    3    3    0    0 -0.18666292894E+03 -0.62238721254E+03  0.72107267890E+03  0.97064653692E+03  0.00000000000E+00 0.  1.
         22    1    1    2    0    0  0.35144131423E+03  0.14938288415E+04  0.35416961840E+03  0.15749513400E+04  0.00000000000E+00 0.  1.
<mgrwt>
<rscale>  0 0.32924190E+04</rscale>
<asrwt>0</asrwt>
<pdfrwt beam="1">  1        2 0.46424260E+00 0.32924190E+04</pdfrwt>
<pdfrwt beam="2">  1       -2 0.13816515E+00 0.32924190E+04</pdfrwt>
<totfact> 0.52685657E-01</totfact>
</mgrwt>
</event>
<event>
 6    1  0.2236204E-005  0.2640998E+04  0.7818608E-02  0.8354407E-01
         -1   -1    0    0    0  501 -0.00000000000E+00  0.00000000000E+00  0.40194795492E+03  0.40194795492E+03  0.00000000000E+00 0.  1.
          1   -1    0    0  501    0  0.00000000000E+00 -0.00000000000E+00 -0.43381670087E+04  0.43381670087E+04  0.00000000000E+00 0. -1.
         23    2    1    2    0    0 -0.62116492806E+03 -0.89172004800E+03 -0.33116903046E+04  0.34867009576E+04  0.93703694891E+02 0.  0.
         13    1    3    3    0    0 -0.47124449669E+03 -0.72100276844E+03 -0.27071561389E+04  0.28408820335E+04  0.00000000000E+00 0. -1.
        -13    1    3    3    0    0 -0.14992043136E+03 -0.17071727955E+03 -0.60453416571E+03  0.64581892415E+03  0.00000000000E+00 0.  1.
         22    1    1    2    0    0  0.62116492806E+03  0.89172004800E+03 -0.62452874916E+03  0.12534140060E+04  0.00000000000E+00 0.  1.
<mgrwt>
<rscale>  0 0.26409978E+04</rscale>
<asrwt>0</asrwt>
<pdfrwt beam="1">  1        1 0.66741029E+00 0.26409978E+04</pdfrwt>
<pdfrwt beam="2">  1       -1 0.61838148E-01 0.26409978E+04</pdfrwt>
<totfact> 0.10907859E-01</totfact>
</mgrwt>
</event>
<event>
 6    1  0.2236204E-005  0.2189314E+04  0.7818608E-02  0.8522889E-01
          1   -1    0    0  501    0  0.00000000000E+00  0.00000000000E+00  0.12419489881E+04  0.12419489881E+04  0.00000000000E+00 0. -1.
         -1   -1    0    0    0  501 -0.00000000000E+00 -0.00000000000E+00 -0.96483390491E+03  0.96483390491E+03  0.00000000000E+00 0.  1.
         23    2    1    2    0    0  0.35777246037E+02 -0.91998760672E+03  0.73226736992E+03  0.11797381949E+04  0.88935367154E+02 0.  0.
         13    1    3    3    0    0  0.65678773756E+02 -0.64454545549E+03  0.51688189567E+03  0.82880603254E+03  0.00000000000E+00 0. -1.
        -13    1    3    3    0    0 -0.29901527719E+02 -0.27544215124E+03  0.21538547426E+03  0.35093216233E+03  0.00000000000E+00 0.  1.
         22    1    1    2    0    0 -0.35777246037E+02  0.91998760672E+03 -0.45515228673E+03  0.10270446981E+04  0.00000000000E+00 0.  1.
<mgrwt>
<rscale>  0 0.21893145E+04</rscale>
<asrwt>0</asrwt>
<pdfrwt beam="1">  1        1 0.19106907E+00 0.21893145E+04</pdfrwt>
<pdfrwt beam="2">  1       -1 0.14843599E+00 0.21893145E+04</pdfrwt>
<totfact> 0.32621825E+00</totfact>
</mgrwt>
</event>
<event>
 6    1  0.2236204E-005  0.5256066E+04  0.7818608E-02  0.7790177E-01
          2   -1    0    0  501    0  0.00000000000E+00  0.00000000000E+00  0.19081160164E+04  0.19081160164E+04  0.00000000000E+00 0. -1.
         -2   -1    0    0    0  501 -0.00000000000E+00 -0.00000000000E+00 -0.36195685521E+04  0.36195685521E+04  0.00000000000E+00 0.  1.
         23    2    1    2    0    0  0.83196201888E+03  0.19689358027E+04 -0.24624925513E+04  0.32620874947E+04  0.92066618411E+02 0.  0.
         11    1    3    3    0    0  0.19015795561E+03  0.53427217783E+03 -0.68991023825E+03  0.89307499401E+03  0.00000000000E+00 0. -1.
        -11    1    3    3    0    0  0.64180406326E+03  0.14346636248E+04 -0.17725823131E+04  0.23690125007E+04  0.00000000000E+00 0.  1.
         22    1    1    2    0    0 -0.83196201888E+03 -0.19689358027E+04  0.75104001559E+03  0.22655970738E+04  0.00000000000E+00 0. -1.
<mgrwt>
<rscale>  0 0.52560657E+04</rscale>
<asrwt>0</asrwt>
<pdfrwt beam="1">  1        2 0.29355631E+00 0.52560657E+04</pdfrwt>
<pdfrwt beam="2">  1       -2 0.55685670E+00 0.52560657E+04</pdfrwt>
<totfact> 0.42795083E-03</totfact>
</mgrwt>
</event>
<event>
 6    1  0.2236204E-005  0.6521190E+03  0.7818608E-02  0.9802811E-01
          2   -1    0    0  501    0  0.00000000000E+00  0.00000000000E+00  0.34027727402E+03  0.34027727402E+03  0.00000000000E+00 0. -1.
         -2   -1    0    0    0  501 -0.00000000000E+00 -0.00000000000E+00 -0.31243574989E+03  0.31243574989E+03  0.00000000000E+00 0.  1.
         23    2    1    2    0    0 -0.21737488684E+03 -0.44070701515E+02 -0.21655578808E+03  0.32267648899E+03  0.89608253182E+02 0.  0.
         13    1    3    3    0    0 -0.19048795415E+03 -0.38846888994E+02 -0.13510765126E+03  0.23674631759E+03  0.00000000000E+00 0. -1.
        -13    1    3    3    0    0 -0.26886932685E+02 -0.52238125207E+01 -0.81448136820E+02  0.85930171406E+02  0.00000000000E+00 0.  1.
         22    1    1    2    0    0  0.21737488684E+03  0.44070701515E+02  0.24439731222E+03  0.33003653491E+03  0.00000000000E+00 0. -1.
<mgrwt>
<rscale>  0 0.65211896E+03</rscale>
<asrwt>0</asrwt>
<pdfrwt beam="1">  1        2 0.52350350E-01 0.65211896E+03</pdfrwt>
<pdfrwt beam="2">  1       -2 0.48067039E-01 0.65211896E+03</pdfrwt>
<totfact> 0.39466850E+02</totfact>
</mgrwt>
</event>
<event>
 6    1  0.2236204E-005  0.2116650E+04  0.7818608E-02  0.8553944E-01
         -1   -1    0    0    0  501 -0.00000000000E+00  0.00000000000E+00  0.20321731989E+04  0.20321731989E+04  0.00000000000E+00 0.  1.
          1   -1    0    0  501    0  0.00000000000E+00 -0.00000000000E+00 -0.55115980138E+03  0.55115980138E+03  0.00000000000E+00 0. -1.
         23    2    1    2    0    0 -0.94468499342E+03  0.90915495304E+02  0.17594720764E+03  0.96967469568E+03  0.92823658020E+02 0.  0.
         11    1    3    3    0    0 -0.64946001274E+03  0.10540382543E+03  0.11727676098E+03  0.66832784861E+03  0.00000000000E+00 0. -1.
        -11    1    3    3    0    0 -0.29522498068E+03 -0.14488330127E+02  0.58670446660E+02  0.30134684707E+03  0.00000000000E+00 0.  1.
         22    1    1    2    0    0  0.94468499342E+03 -0.90915495304E+02  0.13050661899E+04  0.16136583046E+04  0.00000000000E+00 0.  1.
<mgrwt>
<rscale>  0 0.21166504E+04</rscale>
<asrwt>0</asrwt>
<pdfrwt beam="1">  1        1 0.84793817E-01 0.21166504E+04</pdfrwt>
<pdfrwt beam="2">  1       -1 0.31264203E+00 0.21166504E+04</pdfrwt>
<totfact> 0.97144946E-01</totfact>
</mgrwt>
</event>
<event>
 6    1  0.2236204E-005  0.3695982E+04  0.7818608E-02  0.8068853E-01
          1   -1    0    0  501    0  0.00000000000E+00  0.00000000000E+00  0.24153670147E+04  0.24153670147E+04  0.00000000000E+00 0. -1.
         -1   -1    0    0    0  501 -0.00000000000E+00 -0.00000000000E+00 -0.14138933944E+04  0.14138933944E+04  0.00000000000E+00 0.  1.
         23    2    1    2    0    0  0.14992887758E+04 -0.10777807468E+04  0.53982850498E+03  0.19259489831E+04  0.91577832688E+02 0.  0.
         11    1    3    3    0    0  0.12335302984E+04 -0.87811434782E+03  0.40629554518E+03  0.15677237879E+04  0.00000000000E+00 0.  1.
        -11    1    3    3    0    0  0.26575847734E+03 -0.19966639902E+03  0.13353295980E+03  0.35822519527E+03  0.00000000000E+00 0. -1.
         22    1    1    2    0    0 -0.14992887758E+04  0.10777807468E+04  0.46164511532E+03  0.19033114259E+04  0.00000000000E+00 0.  1.
<mgrwt>
<rscale>  0 0.36959824E+04</rscale>
<asrwt>0</asrwt>
<pdfrwt beam="1">  1        1 0.37159493E+00 0.36959824E+04</pdfrwt>
<pdfrwt beam="2">  1       -1 0.21752206E+00 0.36959824E+04</pdfrwt>
<totfact> 0.14228715E-01</totfact>
</mgrwt>
</event>
<event>
 6    1  0.2236204E-005  0.1841494E+04  0.7818608E-02  0.8684540E-01
          2   -1    0    0  501    0  0.00000000000E+00  0.00000000000E+00  0.23511383807E+04  0.23511383807E+04  0.00000000000E+00 0. -1.
         -2   -1    0    0    0  501 -0.00000000000E+00 -0.00000000000E+00 -0.36058048919E+03  0.36058048919E+03  0.00000000000E+00 0.  1.
         23    2    1    2    0    0 -0.74328744212E+02  0.69194244640E+03  0.18804866844E+04  0.20071446850E+04  0.89947235276E+02 0.  0.
         13    1    3    3    0    0 -0.56484171605E+02  0.44687243396E+03  0.10917097617E+04  0.11809807948E+04  0.00000000000E+00 0. -1.
        -13    1    3    3    0    0 -0.17844572608E+02  0.24507001244E+03  0.78877692265E+03  0.82616389020E+03  0.00000000000E+00 0.  1.
         22    1    1    2    0    0  0.74328744212E+02 -0.69194244640E+03  0.11007120712E+03  0.70457418487E+03  0.00000000000E+00 0.  1.
<mgrwt>
<rscale>  0 0.18414936E+04</rscale>
<asrwt>0</asrwt>
<pdfrwt beam="1">  1        2 0.36171359E+00 0.18414936E+04</pdfrwt>
<pdfrwt beam="2">  1       -2 0.55473923E-01 0.18414936E+04</pdfrwt>
<totfact> 0.12189762E+01</totfact>
</mgrwt>
</event>
<event>
 6    1  0.2236204E-005  0.2963980E+04  0.7818608E-02  0.8254092E-01
          2   -1    0    0  501    0  0.00000000000E+00  0.00000000000E+00  0.21209339114E+04  0.21209339114E+04  0.00000000000E+00 0. -1.
         -2   -1    0    0    0  501 -0.00000000000E+00 -0.00000000000E+00 -0.10355318067E+04  0.10355318067E+04  0.00000000000E+00 0.  1.
         23    2    1    2    0    0 -0.87552688844E+03 -0.46841339681E+03  0.17127243957E+04  0.19819480726E+04  0.93460495541E+02 0.  0.
         13    1    3    3    0    0 -0.21698118246E+03 -0.14972852237E+03  0.51232301572E+03  0.57617214128E+03  0.00000000000E+00 0. -1.
        -13    1    3    3    0    0 -0.65854570598E+03 -0.31868487444E+03  0.12004013800E+04  0.14057759314E+04  0.00000000000E+00 0.  1.
         22    1    1    2    0    0  0.87552688844E+03  0.46841339681E+03 -0.62732229103E+03  0.11745176455E+04  0.00000000000E+00 0.  1.
<mgrwt>
<rscale>  0 0.29639801E+04</rscale>
<asrwt>0</asrwt>
<pdfrwt beam="1">  1        2 0.32629752E+00 0.29639801E+04</pdfrwt>
<pdfrwt beam="2">  1       -2 0.15931259E+00 0.29639801E+04</pdfrwt>
<totfact> 0.12515297E+00</totfact>
</mgrwt>
</event>
<event>
 6    1  0.2236204E-005  0.2514198E+04  0.7818608E-02  0.8397945E-01
          2   -1    0    0  501    0  0.00000000000E+00  0.00000000000E+00  0.21971938512E+04  0.21971938512E+04  0.00000000000E+00 0. -1.
         -2   -1    0    0    0  501 -0.00000000000E+00 -0.00000000000E+00 -0.71923469576E+03  0.71923469576E+03  0.00000000000E+00 0.  1.
         23    2    1    2    0    0 -0.42319763412E+03  0.97837115108E+03  0.15092174271E+04  0.18499936327E+04  0.91830562516E+02 0.  0.
         13    1    3    3    0    0 -0.18471714566E+03  0.53637000312E+03  0.77503763929E+03  0.96046683778E+03  0.00000000000E+00 0. -1.
        -13    1    3    3    0    0 -0.23848048847E+03  0.44200114795E+03  0.73417978778E+03  0.88952679496E+03  0.00000000000E+00 0.  1.
         22    1    1    2    0    0  0.42319763412E+03 -0.97837115108E+03 -0.31258271607E+02  0.10664349143E+04  0.00000000000E+00 0.  1.
<mgrwt>
<rscale>  0 0.25141981E+04</rscale>
<asrwt>0</asrwt>
<pdfrwt beam="1">  1        2 0.33802982E+00 0.25141981E+04</pdfrwt>
<pdfrwt beam="2">  1       -2 0.11065149E+00 0.25141981E+04</pdfrwt>
<totfact> 0.29899000E+00</totfact>
</mgrwt>
</event>
<event>
 6    1  0.2236204E-005  0.3906661E+04  0.7818608E-02  0.8023645E-01
          2   -1    0    0  501    0  0.00000000000E+00  0.00000000000E+00  0.14738148479E+04  0.14738148479E+04  0.00000000000E+00 0. -1.
         -2   -1    0    0    0  501 -0.00000000000E+00 -0.00000000000E+00 -0.25888595662E+04  0.25888595662E+04  0.00000000000E+00 0.  1.
         23    2    1    2    0    0 -0.38203958931E+03 -0.16143214222E+04  0.51265293272E+03  0.17385858734E+04  0.88768843980E+02 0.  0.
         11    1    3    3    0    0 -0.16276378357E+03 -0.52561394709E+03  0.15029145353E+03  0.57039424228E+03  0.00000000000E+00 0.  1.
        -11    1    3    3    0    0 -0.21927580574E+03 -0.10887074751E+04  0.36236147919E+03  0.11681916311E+04  0.00000000000E+00 0. -1.
         22    1    1    2    0    0  0.38203958931E+03  0.16143214222E+04 -0.16276976510E+04  0.23240885407E+04  0.00000000000E+00 0. -1.
<mgrwt>
<rscale>  0 0.39066608E+04</rscale>
<asrwt>0</asrwt>
<pdfrwt beam="1">  1        2 0.22674075E+00 0.39066608E+04</pdfrwt>
<pdfrwt beam="2">  1       -2 0.39828609E+00 0.39066608E+04</pdfrwt>
<totfact> 0.79469161E-02</totfact>
</mgrwt>
</event>
<event>
 6    1  0.2236204E-005  0.4013880E+04  0.7818608E-02  0.8001752E-01
          2   -1    0    0  501    0  0.00000000000E+00  0.00000000000E+00  0.39994760988E+04  0.39994760988E+04  0.00000000000E+00 0.  1.
         -2   -1    0    0    0  501 -0.00000000000E+00 -0.00000000000E+00 -0.10070840392E+04  0.10070840392E+04  0.00000000000E+00 0. -1.
         23    2    1    2    0    0  0.36836242291E+03  0.14232853438E+04 -0.20521387900E+03  0.14871687441E+04  0.90144843071E+02 0.  0.
         11    1    3    3    0    0  0.23936163321E+03  0.91431232263E+03 -0.88277676915E+02  0.94923862279E+03  0.00000000000E+00 0.  1.
        -11    1    3    3    0    0  0.12900078970E+03  0.50897302121E+03 -0.11693620208E+03  0.53793012132E+03  0.00000000000E+00 0. -1.
         22    1    1    2    0    0 -0.36836242291E+03 -0.14232853438E+04  0.31976059386E+04  0.35193913938E+04  0.00000000000E+00 0.  1.
<mgrwt>
<rscale>  0 0.40138802E+04</rscale>
<asrwt>0</asrwt>
<pdfrwt beam="1">  1        2 0.61530401E+00 0.40138802E+04</pdfrwt>
<pdfrwt beam="2">  1       -2 0.15493601E+00 0.40138802E+04</pdfrwt>
<totfact> 0.73890932E-02</totfact>
</mgrwt>
</event>
<event>
 6    1  0.2236204E-005  0.1459287E+04  0.7818608E-02  0.8911987E-01
          1   -1    0    0  501    0  0.00000000000E+00  0.00000000000E+00  0.84365761495E+03  0.84365761495E+03  0.00000000000E+00 0. -1.
         -1   -1    0    0    0  501 -0.00000000000E+00 -0.00000000000E+00 -0.63103797743E+03  0.63103797743E+03  0.00000000000E+00 0.  1.
         23    2    1    2    0    0  0.22275741518E+03  0.23958362733E+03 -0.54918226442E+03  0.64562182105E+03  0.90582535637E+02 0.  0.
         13    1    3    3    0    0  0.37159695634E+02  0.47924504065E+02 -0.46109987028E+02  0.76182228723E+02  0.00000000000E+00 0.  1.
        -13    1    3    3    0    0  0.18559771955E+03  0.19165912327E+03 -0.50307227739E+03  0.56943959233E+03  0.00000000000E+00 0. -1.
         22    1    1    2    0    0 -0.22275741518E+03 -0.23958362733E+03  0.76180190193E+03  0.82907377132E+03  0.00000000000E+00 0. -1.
<mgrwt>
<rscale>  0 0.14592875E+04</rscale>
<asrwt>0</asrwt>
<pdfrwt beam="1">  1        1 0.12979348E+00 0.14592875E+04</pdfrwt>
<pdfrwt beam="2">  1       -1 0.97082765E-01 0.14592875E+04</pdfrwt>
<totfact> 0.20072212E+01</totfact>
</mgrwt>
</event>
<event>
 6    1  0.2236204E-005  0.1429769E+04  0.7818608E-02  0.8932548E-01
         -4   -1    0    0    0  501 -0.00000000000E+00  0.00000000000E+00  0.11168581158E+04  0.11168581158E+04  0.00000000000E+00 0.  1.
          4   -1    0    0  501    0  0.00000000000E+00 -0.00000000000E+00 -0.45758713824E+03  0.45758713824E+03  0.00000000000E+00 0. -1.
         23    2    1    2    0    0  0.18990424899E+03 -0.18652172453E+03 -0.39625772670E+03  0.48587057904E+03  0.90532072202E+02 0.  0.
         13    1    3    3    0    0  0.13236892801E+03 -0.13517643847E+03 -0.20148710801E+03  0.27638968380E+03  0.00000000000E+00 0.  1.
        -13    1    3    3    0    0  0.57535320983E+02 -0.51345286054E+02 -0.19477061870E+03  0.20948089523E+03  0.00000000000E+00 0. -1.
         22    1    1    2    0    0 -0.18990424899E+03  0.18652172453E+03  0.10555287043E+04  0.10885746750E+04  0.00000000000E+00 0.  1.
<mgrwt>
<rscale>  0 0.14297691E+04</rscale>
<asrwt>0</asrwt>
<pdfrwt beam="1">  1        4 0.70398022E-01 0.14297691E+04</pdfrwt>
<pdfrwt beam="2">  1       -4 0.17182432E+00 0.14297691E+04</pdfrwt>
<totfact> 0.73665720E-01</totfact>
</mgrwt>
</event>
<event>
 6    1  0.2236204E-005  0.2555150E+04  0.7818608E-02  0.8383597E-01
          1   -1    0    0  501    0  0.00000000000E+00  0.00000000000E+00  0.14773486668E+04  0.14773486668E+04  0.00000000000E+00 0. -1.
         -1   -1    0    0    0  501 -0.00000000000E+00 -0.00000000000E+00 -0.11048157520E+04  0.11048157520E+04  0.00000000000E+00 0.  1.
         23    2    1    2    0    0  0.11031681321E+04 -0.26245241345E+03  0.77753081049E+03  0.13780529238E+04  0.92814344661E+02 0.  0.
         11    1    3    3    0    0  0.54404869356E+03 -0.13726989163E+03  0.32928302034E+03  0.65058382365E+03  0.00000000000E+00 0. -1.
        -11    1    3    3    0    0  0.55911943855E+03 -0.12518252182E+03  0.44824779015E+03  0.72746910017E+03  0.00000000000E+00 0.  1.
         22    1    1    2    0    0 -0.11031681321E+04  0.26245241345E+03 -0.40499789568E+03  0.12041114951E+04  0.00000000000E+00 0.  1.
<mgrwt>
<rscale>  0 0.25551502E+04</rscale>
<asrwt>0</asrwt>
<pdfrwt beam="1">  1        1 0.22728441E+00 0.25551502E+04</pdfrwt>
<pdfrwt beam="2">  1       -1 0.16997165E+00 0.25551502E+04</pdfrwt>
<totfact> 0.14765371E+00</totfact>
</mgrwt>
</event>
<event>
 6    1  0.2236204E-005  0.2955582E+04  0.7818608E-02  0.8256530E-01
         -2   -1    0    0    0  501 -0.00000000000E+00  0.00000000000E+00  0.60336528384E+03  0.60336528384E+03  0.00000000000E+00 0.  1.
          2   -1    0    0  501    0  0.00000000000E+00 -0.00000000000E+00 -0.36194765758E+04  0.36194765758E+04  0.00000000000E+00 0. -1.
         23    2    1    2    0    0  0.13896147366E+03 -0.70907736292E+03  0.32992061645E+03  0.79968096219E+03  0.92417695054E+02 0.  0.
         13    1    3    3    0    0  0.13158399389E+03 -0.48934993980E+03  0.20345406905E+03  0.54605061052E+03  0.00000000000E+00 0. -1.
        -13    1    3    3    0    0  0.73774797705E+01 -0.21972742312E+03  0.12646654740E+03  0.25363035167E+03  0.00000000000E+00 0.  1.
         22    1    1    2    0    0 -0.13896147366E+03  0.70907736292E+03 -0.33460319084E+04  0.34231608975E+04  0.00000000000E+00 0. -1.
<mgrwt>
<rscale>  0 0.29555822E+04</rscale>
<asrwt>0</asrwt>
<pdfrwt beam="1">  1        2 0.55684255E+00 0.29555822E+04</pdfrwt>
<pdfrwt beam="2">  1       -2 0.92825428E-01 0.29555822E+04</pdfrwt>
<totfact> 0.56457838E-01</totfact>
</mgrwt>
</event>
<event>
 6    1  0.2236204E-005  0.4683510E+04  0.7818608E-02  0.7879274E-01
         -2   -1    0    0    0  501 -0.00000000000E+00  0.00000000000E+00  0.27625594407E+04  0.27625594407E+04  0.00000000000E+00 0.  1.
          2   -1    0    0  501    0  0.00000000000E+00 -0.00000000000E+00 -0.19850490618E+04  0.19850490618E+04  0.00000000000E+00 0. -1.
         23    2    1    2    0    0 -0.40919858305E+02  0.17690529550E+04  0.19423446530E+04  0.26291039171E+04  0.90894795917E+02 0.  0.
         11    1    3    3    0    0 -0.82420883706E+01  0.15687228950E+04  0.17092978851E+04  0.23200557565E+04  0.00000000000E+00 0. -1.
        -11    1    3    3    0    0 -0.32677769934E+02  0.20033005998E+03  0.23304676782E+03  0.30904816061E+03  0.00000000000E+00 0.  1.
         22    1    1    2    0    0  0.40919858305E+02 -0.17690529550E+04 -0.11648342740E+04  0.21185045853E+04  0.00000000000E+00 0.  1.
<mgrwt>
<rscale>  0 0.46835098E+04</rscale>
<asrwt>0</asrwt>
<pdfrwt beam="1">  1        2 0.30539216E+00 0.46835098E+04</pdfrwt>
<pdfrwt beam="2">  1       -2 0.42500915E+00 0.46835098E+04</pdfrwt>
<totfact> 0.25854717E-02</totfact>
</mgrwt>
</event>
<event>
 6    1  0.2236204E-005  0.6462617E+04  0.7818608E-02  0.7635547E-01
         -2   -1    0    0    0  501 -0.00000000000E+00  0.00000000000E+00  0.31047118520E+04  0.31047118520E+04  0.00000000000E+00 0.  1.
          2   -1    0    0  501    0  0.00000000000E+00 -0.00000000000E+00 -0.33630671538E+04  0.33630671538E+04  0.00000000000E+00 0. -1.
         23    2    1    2    0    0  0.57378609172E+03 -0.29103205027E+04 -0.14101246413E+04  0.32856777317E+04  0.89614422005E+02 0.  0.
         13    1    3    3    0    0  0.19137098704E+03 -0.11795783606E+04 -0.58700214168E+03  0.13313900547E+04  0.00000000000E+00 0. -1.
        -13    1    3    3    0    0  0.38241510468E+03 -0.17307421421E+04 -0.82312249964E+03  0.19542876769E+04  0.00000000000E+00 0.  1.
         22    1    1    2    0    0 -0.57378609172E+03  0.29103205027E+04  0.11517693395E+04  0.31821012742E+04  0.00000000000E+00 0.  1.
<mgrwt>
<rscale>  0 0.64626169E+04</rscale>
<asrwt>0</asrwt>
<pdfrwt beam="1">  1        2 0.51739495E+00 0.64626169E+04</pdfrwt>
<pdfrwt beam="2">  1       -2 0.47764797E+00 0.64626169E+04</pdfrwt>
<totfact> 0.15124457E-03</totfact>
</mgrwt>
</event>
<event>
 6    1  0.2236204E-005  0.3055937E+04  0.7818608E-02  0.8227936E-01
         -1   -1    0    0    0  501 -0.00000000000E+00  0.00000000000E+00  0.30605399559E+04  0.30605399559E+04  0.00000000000E+00 0. -1.
          1   -1    0    0  501    0  0.00000000000E+00 -0.00000000000E+00 -0.76283504988E+03  0.76283504988E+03  0.00000000000E+00 0.  1.
         23    2    1    2    0    0 -0.17503359048E+03  0.11292844197E+04  0.24163099567E+04  0.26744680398E+04  0.91134137702E+02 0.  0.
         11    1    3    3    0    0 -0.77919105954E+02  0.43954288860E+03  0.10465815955E+04  0.11378059474E+04  0.00000000000E+00 0.  1.
        -11    1    3    3    0    0 -0.97114484530E+02  0.68974153108E+03  0.13697283612E+04  0.15366620924E+04  0.00000000000E+00 0. -1.
         22    1    1    2    0    0  0.17503359048E+03 -0.11292844197E+04 -0.11860505067E+03  0.11489069659E+04  0.00000000000E+00 0.  1.
<mgrwt>
<rscale>  0 0.30559366E+04</rscale>
<asrwt>0</asrwt>
<pdfrwt beam="1">  1        1 0.11735924E+00 0.30559366E+04</pdfrwt>
<pdfrwt beam="2">  1       -1 0.47085230E+00 0.30559366E+04</pdfrwt>
<totfact> 0.46964527E-02</totfact>
</mgrwt>
</event>
<event>
 6    1  0.2236204E-005  0.3899353E+04  0.7818608E-02  0.8025164E-01
          2   -1    0    0  501    0  0.00000000000E+00  0.00000000000E+00  0.37669503331E+04  0.37669503331E+04  0.00000000000E+00 0. -1.
         -2   -1    0    0    0  501 -0.00000000000E+00 -0.00000000000E+00 -0.10091021557E+04  0.10091021557E+04  0.00000000000E+00 0.  1.
         23    2    1    2    0    0 -0.99653380133E+03  0.14402908750E+04  0.24258473902E+04  0.29934302786E+04  0.91497813880E+02 0.  0.
         11    1    3    3    0    0 -0.50168703668E+03  0.73997415217E+03  0.13148526965E+04  0.15899966170E+04  0.00000000000E+00 0. -1.
        -11    1    3    3    0    0 -0.49484676465E+03  0.70031672284E+03  0.11109946937E+04  0.14034336615E+04  0.00000000000E+00 0.  1.
         22    1    1    2    0    0  0.99653380133E+03 -0.14402908750E+04  0.33200078710E+03  0.17826222102E+04  0.00000000000E+00 0.  1.
<mgrwt>
<rscale>  0 0.38993526E+04</rscale>
<asrwt>0</asrwt>
<pdfrwt beam="1">  1        2 0.57953081E+00 0.38993526E+04</pdfrwt>
<pdfrwt beam="2">  1       -2 0.15524649E+00 0.38993526E+04</pdfrwt>
<totfact> 0.11280558E-01</totfact>
</mgrwt>
</event>
<event>
 6    1  0.2236204E-005  0.4091704E+04  0.7818608E-02  0.7986298E-01
         -2   -1    0    0    0  501 -0.00000000000E+00  0.00000000000E+00  0.28514294520E+04  0.28514294520E+04  0.00000000000E+00 0.  1.
          2   -1    0    0  501    0  0.00000000000E+00 -0.00000000000E+00 -0.14678635835E+04  0.14678635835E+04  0.00000000000E+00 0. -1.
         23    2    1    2    0    0 -0.80343095151E+03 -0.45373249869E+02  0.26765148405E+04  0.27963757463E+04  0.91791050802E+02 0.  0.
         11    1    3    3    0    0 -0.51164079922E+03 -0.64943408430E+02  0.16184362013E+04  0.16986258245E+04  0.00000000000E+00 0. -1.
        -11    1    3    3    0    0 -0.29179015229E+03  0.19570158562E+02  0.10580786392E+04  0.10977499218E+04  0.00000000000E+00 0.  1.
         22    1    1    2    0    0  0.80343095151E+03  0.45373249869E+02 -0.12929489720E+04  0.15229172892E+04  0.00000000000E+00 0. -1.
<mgrwt>
<rscale>  0 0.40917035E+04</rscale>
<asrwt>0</asrwt>
<pdfrwt beam="1">  1        2 0.22582517E+00 0.40917035E+04</pdfrwt>
<pdfrwt beam="2">  1       -2 0.43868145E+00 0.40917035E+04</pdfrwt>
<totfact> 0.42751378E-02</totfact>
</mgrwt>
</event>
<event>
 6    1  0.2236204E-005  0.2324719E+04  0.7818608E-02  0.8468238E-01
          1   -1    0    0  501    0  0.00000000000E+00  0.00000000000E+00  0.79683685984E+03  0.79683685984E+03  0.00000000000E+00 0. -1.
         -1   -1    0    0    0  501 -0.00000000000E+00 -0.00000000000E+00 -0.16955541178E+04  0.16955541178E+04  0.00000000000E+00 0.  1.
         23    2    1    2    0    0 -0.67531951395E+03 -0.42329924784E+03  0.45443364077E+03  0.92195917273E+03  0.90884999689E+02 0.  0.
         13    1    3    3    0    0 -0.51557704589E+03 -0.33602956353E+03  0.30712982356E+03  0.68779668968E+03  0.00000000000E+00 0. -1.
        -13    1    3    3    0    0 -0.15974246806E+03 -0.87269684309E+02  0.14730381722E+03  0.23416248305E+03  0.00000000000E+00 0.  1.
         22    1    1    2    0    0  0.67531951395E+03  0.42329924784E+03 -0.13531508987E+04  0.15704318049E+04  0.00000000000E+00 0.  1.
<mgrwt>
<rscale>  0 0.23247194E+04</rscale>
<asrwt>0</asrwt>
<pdfrwt beam="1">  1        1 0.12259029E+00 0.23247194E+04</pdfrwt>
<pdfrwt beam="2">  1       -1 0.26085447E+00 0.23247194E+04</pdfrwt>
<totfact> 0.11888709E+00</totfact>
</mgrwt>
</event>
<event>
 6    1  0.2236204E-005  0.4198475E+04  0.7818608E-02  0.7965662E-01
          2   -1    0    0  501    0  0.00000000000E+00  0.00000000000E+00  0.36540713803E+04  0.36540713803E+04  0.00000000000E+00 0. -1.
         -2   -1    0    0    0  501 -0.00000000000E+00 -0.00000000000E+00 -0.12059965411E+04  0.12059965411E+04  0.00000000000E+00 0.  1.
         23    2    1    2    0    0  0.20772858312E+04  0.65852845727E+02  0.89082289430E+03  0.22630529731E+04  0.91598626096E+02 0.  0.
         11    1    3    3    0    0  0.78205551052E+03  0.14732634333E+02  0.38247473433E+03  0.87069787782E+03  0.00000000000E+00 0. -1.
        -11    1    3    3    0    0  0.12952303207E+04  0.51120211394E+02  0.50834815997E+03  0.13923550953E+04  0.00000000000E+00 0.  1.
         22    1    1    2    0    0 -0.20772858312E+04 -0.65852845727E+02  0.15572519449E+04  0.25970149483E+04  0.00000000000E+00 0.  1.
<mgrwt>
<rscale>  0 0.41984747E+04</rscale>
<asrwt>0</asrwt>
<pdfrwt beam="1">  1        2 0.56216482E+00 0.41984747E+04</pdfrwt>
<pdfrwt beam="2">  1       -2 0.18553793E+00 0.41984747E+04</pdfrwt>
<totfact> 0.81177789E-02</totfact>
</mgrwt>
</event>
<event>
 6    1  0.2236204E-005  0.1958505E+04  0.7818608E-02  0.8626270E-01
         -2   -1    0    0    0  501 -0.00000000000E+00  0.00000000000E+00  0.12101847544E+04  0.12101847544E+04  0.00000000000E+00 0.  1.
          2   -1    0    0  501    0  0.00000000000E+00 -0.00000000000E+00 -0.79238762212E+03  0.79238762212E+03  0.00000000000E+00 0. -1.
         23    2    1    2    0    0 -0.74920845107E+03  0.41099560643E+03 -0.27496246440E+03  0.90250576472E+03  0.93175140843E+02 0.  0.
         11    1    3    3    0    0 -0.38684543923E+03  0.17838981670E+03 -0.17447152277E+03  0.46033969285E+03  0.00000000000E+00 0. -1.
        -11    1    3    3    0    0 -0.36236301183E+03  0.23260578973E+03 -0.10049094162E+03  0.44216607187E+03  0.00000000000E+00 0.  1.
         22    1    1    2    0    0  0.74920845107E+03 -0.41099560643E+03  0.69275959672E+03  0.11000666118E+04  0.00000000000E+00 0.  1.
<mgrwt>
<rscale>  0 0.19585050E+04</rscale>
<asrwt>0</asrwt>
<pdfrwt beam="1">  1        2 0.12190579E+00 0.19585050E+04</pdfrwt>
<pdfrwt beam="2">  1       -2 0.18618227E+00 0.19585050E+04</pdfrwt>
<totfact> 0.53461332E+00</totfact>
</mgrwt>
</event>
<event>
 6    1  0.2236204E-005  0.2812751E+04  0.7818608E-02  0.8299321E-01
          2   -1    0    0  501    0  0.00000000000E+00  0.00000000000E+00  0.20005513991E+04  0.20005513991E+04  0.00000000000E+00 0.  1.
         -2   -1    0    0    0  501 -0.00000000000E+00 -0.00000000000E+00 -0.98867337564E+03  0.98867337564E+03  0.00000000000E+00 0. -1.
         23    2    1    2    0    0 -0.63087555229E+03 -0.35313204946E+03 -0.77365582242E+03  0.10628714007E+04  0.91902535756E+02 0.  0.
         11    1    3    3    0    0 -0.31159814966E+03 -0.21881565337E+03 -0.44092605180E+03  0.58257143784E+03  0.00000000000E+00 0.  1.
        -11    1    3    3    0    0 -0.31927740263E+03 -0.13431639609E+03 -0.33272977062E+03  0.48029996288E+03  0.00000000000E+00 0. -1.
         22    1    1    2    0    0  0.63087555229E+03  0.35313204946E+03  0.17855338458E+04  0.19263533740E+04  0.00000000000E+00 0. -1.
<mgrwt>
<rscale>  0 0.28127509E+04</rscale>
<asrwt>0</asrwt>
<pdfrwt beam="1">  1        2 0.30777714E+00 0.28127509E+04</pdfrwt>
<pdfrwt beam="2">  1       -2 0.15210360E+00 0.28127509E+04</pdfrwt>
<totfact> 0.16757420E+00</totfact>
</mgrwt>
</event>
<event>
 6    1  0.2236204E-005  0.3968293E+04  0.7818608E-02  0.8010973E-01
          2   -1    0    0  501    0  0.00000000000E+00  0.00000000000E+00  0.34341200268E+04  0.34341200268E+04  0.00000000000E+00 0. -1.
         -2   -1    0    0    0  501 -0.00000000000E+00 -0.00000000000E+00 -0.11463892340E+04  0.11463892340E+04  0.00000000000E+00 0.  1.
         23    2    1    2    0    0  0.13031665164E+03  0.19787552532E+04  0.11194485509E+04  0.22789145575E+04  0.88497009022E+02 0.  0.
         13    1    3    3    0    0  0.10692317995E+03  0.11155820472E+04  0.59952996306E+03  0.12709807422E+04  0.00000000000E+00 0. -1.
        -13    1    3    3    0    0  0.23393471685E+02  0.86317320594E+03  0.51991858787E+03  0.10079338153E+04  0.00000000000E+00 0.  1.
         22    1    1    2    0    0 -0.13031665164E+03 -0.19787552532E+04  0.11682822419E+04  0.23015947033E+04  0.00000000000E+00 0. -1.
<mgrwt>
<rscale>  0 0.39682935E+04</rscale>
<asrwt>0</asrwt>
<pdfrwt beam="1">  1        2 0.52832615E+00 0.39682935E+04</pdfrwt>
<pdfrwt beam="2">  1       -2 0.17636758E+00 0.39682935E+04</pdfrwt>
<totfact> 0.13708874E-01</totfact>
</mgrwt>
</event>
<event>
 6    1  0.2236204E-005  0.1533279E+04  0.7818608E-02  0.8862620E-01
         -2   -1    0    0    0  501 -0.00000000000E+00  0.00000000000E+00  0.18523828314E+04  0.18523828314E+04  0.00000000000E+00 0.  1.
          2   -1    0    0  501    0  0.00000000000E+00 -0.00000000000E+00 -0.31728635864E+03  0.31728635864E+03  0.00000000000E+00 0. -1.
         23    2    1    2    0    0  0.20382840703E+03 -0.61891902741E+03  0.13343583616E+04  0.14878315472E+04  0.92323850965E+02 0.  0.
         11    1    3    3    0    0  0.29228175314E+02 -0.24325302670E+02  0.90011777180E+02  0.97714515878E+02  0.00000000000E+00 0.  1.
        -11    1    3    3    0    0  0.17460023172E+03 -0.59459372474E+03  0.12443465845E+04  0.13901170313E+04  0.00000000000E+00 0. -1.
         22    1    1    2    0    0 -0.20382840703E+03  0.61891902741E+03  0.20073811115E+03  0.68183764290E+03  0.00000000000E+00 0. -1.
<mgrwt>
<rscale>  0 0.15332786E+04</rscale>
<asrwt>0</asrwt>
<pdfrwt beam="1">  1        2 0.48813287E-01 0.15332786E+04</pdfrwt>
<pdfrwt beam="2">  1       -2 0.28498197E+00 0.15332786E+04</pdfrwt>
<totfact> 0.39124627E+00</totfact>
</mgrwt>
</event>
<event>
 6    1  0.2236204E-005  0.1009899E+04  0.7818608E-02  0.9297754E-01
         -2   -1    0    0    0  501 -0.00000000000E+00  0.00000000000E+00  0.64357940694E+03  0.64357940694E+03  0.00000000000E+00 0.  1.
          2   -1    0    0  501    0  0.00000000000E+00 -0.00000000000E+00 -0.39618096823E+03  0.39618096823E+03  0.00000000000E+00 0. -1.
         23    2    1    2    0    0  0.25914909016E+03  0.23423208383E+03 -0.24475886185E+03  0.43623595270E+03  0.91498557076E+02 0.  0.
         11    1    3    3    0    0  0.17171815842E+03  0.10942441140E+03 -0.17565116481E+03  0.26891292167E+03  0.00000000000E+00 0. -1.
        -11    1    3    3    0    0  0.87430931735E+02  0.12480767244E+03 -0.69107697042E+02  0.16732303103E+03  0.00000000000E+00 0.  1.
         22    1    1    2    0    0 -0.25914909016E+03 -0.23423208383E+03  0.49215730056E+03  0.60352442247E+03  0.00000000000E+00 0.  1.
<mgrwt>
<rscale>  0 0.10098988E+04</rscale>
<asrwt>0</asrwt>
<pdfrwt beam="1">  1        2 0.60950918E-01 0.10098988E+04</pdfrwt>
<pdfrwt beam="2">  1       -2 0.99012217E-01 0.10098988E+04</pdfrwt>
<totfact> 0.67852364E+01</totfact>
</mgrwt>
</event>
<event>
 6    1  0.2236204E-005  0.1139820E+04  0.7818608E-02  0.9167227E-01
          1   -1    0    0  501    0  0.00000000000E+00  0.00000000000E+00  0.20312512260E+04  0.20312512260E+04  0.00000000000E+00 0. -1.
         -1   -1    0    0    0  501 -0.00000000000E+00 -0.00000000000E+00 -0.15990016420E+03  0.15990016420E+03  0.00000000000E+00 0.  1.
         23    2    1    2    0    0 -0.53501823584E+03  0.18321258444E+03  0.88163473652E+03  0.10512611462E+04  0.89770959480E+02 0.  0.
         13    1    3    3    0    0 -0.41963165201E+03  0.11592644687E+03  0.72219558131E+03  0.84326515529E+03  0.00000000000E+00 0. -1.
        -13    1    3    3    0    0 -0.11538658383E+03  0.67286137574E+02  0.15943915521E+03  0.20799599095E+03  0.00000000000E+00 0.  1.
         22    1    1    2    0    0  0.53501823584E+03 -0.18321258444E+03  0.98971632529E+03  0.11398902440E+04  0.00000000000E+00 0.  1.
<mgrwt>
<rscale>  0 0.11398200E+04</rscale>
<asrwt>0</asrwt>
<pdfrwt beam="1">  1        1 0.31250017E+00 0.11398200E+04</pdfrwt>
<pdfrwt beam="2">  1       -1 0.24600027E-01 0.11398200E+04</pdfrwt>
<totfact> 0.40726066E+01</totfact>
</mgrwt>
</event>
<event>
 6    1  0.2236204E-005  0.3215228E+04  0.7818608E-02  0.8184807E-01
          2   -1    0    0  501    0  0.00000000000E+00  0.00000000000E+00  0.30979570810E+04  0.30979570810E+04  0.00000000000E+00 0. -1.
         -2   -1    0    0    0  501 -0.00000000000E+00 -0.00000000000E+00 -0.83423467035E+03  0.83423467035E+03  0.00000000000E+00 0.  1.
         23    2    1    2    0    0  0.61428856886E+03 -0.11829224965E+04  0.22290995186E+04  0.25988295262E+04  0.91510458961E+02 0.  0.
         13    1    3    3    0    0  0.16658769602E+03 -0.34203176538E+03  0.56013243045E+03  0.67711559474E+03  0.00000000000E+00 0. -1.
        -13    1    3    3    0    0  0.44770087283E+03 -0.84089073117E+03  0.16689670881E+04  0.19217139315E+04  0.00000000000E+00 0.  1.
         22    1    1    2    0    0 -0.61428856886E+03  0.11829224965E+04  0.34622892070E+02  0.13333622251E+04  0.00000000000E+00 0.  1.
<mgrwt>
<rscale>  0 0.32152283E+04</rscale>
<asrwt>0</asrwt>
<pdfrwt beam="1">  1        2 0.47660878E+00 0.32152283E+04</pdfrwt>
<pdfrwt beam="2">  1       -2 0.12834380E+00 0.32152283E+04</pdfrwt>
<totfact> 0.56900926E-01</totfact>
</mgrwt>
</event>
<event>
 6    1  0.2236204E-005  0.2254682E+04  0.7818608E-02  0.8496007E-01
          2   -1    0    0  501    0  0.00000000000E+00  0.00000000000E+00  0.94573593782E+03  0.94573593782E+03  0.00000000000E+00 0. -1.
         -2   -1    0    0    0  501 -0.00000000000E+00 -0.00000000000E+00 -0.13438185101E+04  0.13438185101E+04  0.00000000000E+00 0.  1.
         23    2    1    2    0    0  0.74120942711E+03  0.68042460268E+03  0.31294981043E+03  0.10575089520E+04  0.89546328385E+02 0.  0.
         11    1    3    3    0    0  0.50106231694E+03  0.46388328746E+03  0.25563978933E+03  0.72911100096E+03  0.00000000000E+00 0. -1.
        -11    1    3    3    0    0  0.24014711017E+03  0.21654131521E+03  0.57310021106E+02  0.32839795102E+03  0.00000000000E+00 0.  1.
         22    1    1    2    0    0 -0.74120942711E+03 -0.68042460268E+03 -0.71103238267E+03  0.12320454959E+04  0.00000000000E+00 0. -1.
<mgrwt>
<rscale>  0 0.22546818E+04</rscale>
<asrwt>0</asrwt>
<pdfrwt beam="1">  1        2 0.14549784E+00 0.22546818E+04</pdfrwt>
<pdfrwt beam="2">  1       -2 0.20674131E+00 0.22546818E+04</pdfrwt>
<totfact> 0.29878738E+00</totfact>
</mgrwt>
</event>
<event>
 6    1  0.2236204E-005  0.2425788E+04  0.7818608E-02  0.8429911E-01
          2   -1    0    0  501    0  0.00000000000E+00  0.00000000000E+00  0.29439322588E+04  0.29439322588E+04  0.00000000000E+00 0. -1.
         -2   -1    0    0    0  501 -0.00000000000E+00 -0.00000000000E+00 -0.49970993544E+03  0.49970993544E+03  0.00000000000E+00 0.  1.
         23    2    1    2    0    0  0.39657098772E+03  0.52857763928E+03 -0.21686412647E+03  0.70173702402E+03  0.93498302071E+02 0.  0.
         11    1    3    3    0    0  0.58273027092E+02  0.11292367807E+03 -0.74199679751E+02  0.14714990734E+03  0.00000000000E+00 0.  1.
        -11    1    3    3    0    0  0.33829796062E+03  0.41565396121E+03 -0.14266444672E+03  0.55458711668E+03  0.00000000000E+00 0. -1.
         22    1    1    2    0    0 -0.39657098772E+03 -0.52857763928E+03  0.26610864499E+04  0.27419051703E+04  0.00000000000E+00 0. -1.
<mgrwt>
<rscale>  0 0.24257883E+04</rscale>
<asrwt>0</asrwt>
<pdfrwt beam="1">  1        2 0.45291265E+00 0.24257883E+04</pdfrwt>
<pdfrwt beam="2">  1       -2 0.76878453E-01 0.24257883E+04</pdfrwt>
<totfact> 0.25600413E+00</totfact>
</mgrwt>
</event>
<event>
 6    1  0.2236204E-005  0.1933580E+04  0.7818608E-02  0.8638319E-01
         -1   -1    0    0    0  501 -0.00000000000E+00  0.00000000000E+00  0.14877467668E+04  0.14877467668E+04  0.00000000000E+00 0. -1.
          1   -1    0    0  501    0  0.00000000000E+00 -0.00000000000E+00 -0.62825433662E+03  0.62825433662E+03  0.00000000000E+00 0.  1.
         23    2    1    2    0    0  0.93714981467E+02  0.43861292070E+03  0.13652142738E+04  0.14400437267E+04  0.93552815956E+02 0.  0.
         13    1    3    3    0    0  0.95852738194E+01  0.16758092239E+03  0.62945693859E+03  0.65145320673E+03  0.00000000000E+00 0.  1.
        -13    1    3    3    0    0  0.84129707648E+02  0.27103199832E+03  0.73575733523E+03  0.78859051995E+03  0.00000000000E+00 0. -1.
         22    1    1    2    0    0 -0.93714981467E+02 -0.43861292070E+03 -0.50572184367E+03  0.67595737671E+03  0.00000000000E+00 0.  1.
<mgrwt>
<rscale>  0 0.19335805E+04</rscale>
<asrwt>0</asrwt>
<pdfrwt beam="1">  1        1 0.96654514E-01 0.19335805E+04</pdfrwt>
<pdfrwt beam="2">  1       -1 0.22888412E+00 0.19335805E+04</pdfrwt>
<totfact> 0.28684448E+00</totfact>
</mgrwt>
</event>
<event>
 6    1  0.2236204E-005  0.1321362E+04  0.7818608E-02  0.9012795E-01
         -2   -1    0    0    0  501 -0.00000000000E+00  0.00000000000E+00  0.36270879911E+03  0.36270879911E+03  0.00000000000E+00 0.  1.
          2   -1    0    0  501    0  0.00000000000E+00 -0.00000000000E+00 -0.12034423151E+04  0.12034423151E+04  0.00000000000E+00 0. -1.
         23    2    1    2    0    0  0.21128401710E+03 -0.20326621010E+03  0.27579767216E+03  0.41176816989E+03  0.86778924366E+02 0.  0.
         11    1    3    3    0    0  0.19977156467E+02 -0.17422764386E+02  0.70112250883E+02  0.74955768446E+02  0.00000000000E+00 0.  1.
        -11    1    3    3    0    0  0.19130686063E+03 -0.18584344571E+03  0.20568542128E+03  0.33681240144E+03  0.00000000000E+00 0. -1.
         22    1    1    2    0    0 -0.21128401710E+03  0.20326621010E+03 -0.11165311881E+04  0.11543829443E+04  0.00000000000E+00 0. -1.
<mgrwt>
<rscale>  0 0.13213616E+04</rscale>
<asrwt>0</asrwt>
<pdfrwt beam="1">  1        2 0.18514497E+00 0.13213616E+04</pdfrwt>
<pdfrwt beam="2">  1       -2 0.55801354E-01 0.13213616E+04</pdfrwt>
<totfact> 0.55652381E+01</totfact>
</mgrwt>
</event>
<event>
 6    1  0.2236204E-005  0.3777730E+04  0.7818608E-02  0.8050951E-01
          2   -1    0    0  501    0  0.00000000000E+00  0.00000000000E+00  0.34302119150E+04  0.34302119150E+04  0.00000000000E+00 0. -1.
         -2   -1    0    0    0  501 -0.00000000000E+00 -0.00000000000E+00 -0.10401136233E+04  0.10401136233E+04  0.00000000000E+00 0.  1.
         23    2    1    2    0    0 -0.10488196596E+03  0.18818604419E+04  0.13204276333E+04  0.23031628155E+04  0.92902477266E+02 0.  0.
         13    1    3    3    0    0 -0.69043695382E+02  0.72900132536E+03  0.55604657256E+03  0.91945514035E+03  0.00000000000E+00 0. -1.
        -13    1    3    3    0    0 -0.35838270573E+02  0.11528591165E+04  0.76438106072E+03  0.13837076751E+04  0.00000000000E+00 0.  1.
         22    1    1    2    0    0  0.10488196596E+03 -0.18818604419E+04  0.10696706584E+04  0.21671627228E+04  0.00000000000E+00 0. -1.
<mgrwt>
<rscale>  0 0.37777296E+04</rscale>
<asrwt>0</asrwt>
<pdfrwt beam="1">  1        2 0.52772491E+00 0.37777296E+04</pdfrwt>
<pdfrwt beam="2">  1       -2 0.16001748E+00 0.37777296E+04</pdfrwt>
<totfact> 0.18357402E-01</totfact>
</mgrwt>
</event>
<event>
 6    1  0.2236204E-005  0.2967715E+04  0.7818608E-02  0.8253010E-01
          2   -1    0    0  501    0  0.00000000000E+00  0.00000000000E+00  0.15956984067E+04  0.15956984067E+04  0.00000000000E+00 0. -1.
         -2   -1    0    0    0  501 -0.00000000000E+00 -0.00000000000E+00 -0.13798557141E+04  0.13798557141E+04  0.00000000000E+00 0.  1.
         23    2    1    2    0    0  0.10597541555E+04 -0.30564044988E+03 -0.88507440619E+03  0.14171852899E+04  0.92533706177E+02 0.  0.
         13    1    3    3    0    0  0.84752723264E+03 -0.20739814764E+03 -0.68174475988E+03  0.11072905307E+04  0.00000000000E+00 0.  1.
        -13    1    3    3    0    0  0.21222692282E+03 -0.98242302236E+02 -0.20332964631E+03  0.30989475921E+03  0.00000000000E+00 0. -1.
         22    1    1    2    0    0 -0.10597541555E+04  0.30564044988E+03  0.11009170988E+04  0.15583688309E+04  0.00000000000E+00 0. -1.
<mgrwt>
<rscale>  0 0.29677153E+04</rscale>
<asrwt>0</asrwt>
<pdfrwt beam="1">  1        2 0.24549206E+00 0.29677153E+04</pdfrwt>
<pdfrwt beam="2">  1       -2 0.21228549E+00 0.29677153E+04</pdfrwt>
<totfact> 0.10655309E+00</totfact>
</mgrwt>
</event>
<event>
 6    1  0.2236204E-005  0.5128113E+04  0.7818608E-02  0.7809043E-01
          2   -1    0    0  501    0  0.00000000000E+00  0.00000000000E+00  0.28597557635E+04  0.28597557635E+04  0.00000000000E+00 0. -1.
         -2   -1    0    0    0  501 -0.00000000000E+00 -0.00000000000E+00 -0.22989328320E+04  0.22989328320E+04  0.00000000000E+00 0.  1.
         23    2    1    2    0    0  0.31659195849E+02 -0.13397258972E+04  0.24785558696E+04  0.28191229507E+04  0.91363164964E+02 0.  0.
         13    1    3    3    0    0  0.42383559893E+02 -0.46478025798E+03  0.92623251308E+03  0.10371710190E+04  0.00000000000E+00 0.  1.
        -13    1    3    3    0    0 -0.10724364044E+02 -0.87494563925E+03  0.15523233566E+04  0.17819519317E+04  0.00000000000E+00 0. -1.
         22    1    1    2    0    0 -0.31659195849E+02  0.13397258972E+04 -0.19177329381E+04  0.23395656448E+04  0.00000000000E+00 0.  1.
<mgrwt>
<rscale>  0 0.51281133E+04</rscale>
<asrwt>0</asrwt>
<pdfrwt beam="1">  1        2 0.43996242E+00 0.51281133E+04</pdfrwt>
<pdfrwt beam="2">  1       -2 0.35368197E+00 0.51281133E+04</pdfrwt>
<totfact> 0.22598759E-02</totfact>
</mgrwt>
</event>
<event>
 6    1  0.2236204E-005  0.2681254E+04  0.7818608E-02  0.8341113E-01
         -1   -1    0    0    0  501 -0.00000000000E+00  0.00000000000E+00  0.14598418008E+04  0.14598418008E+04  0.00000000000E+00 0.  1.
          1   -1    0    0  501    0  0.00000000000E+00 -0.00000000000E+00 -0.12311478335E+04  0.12311478335E+04  0.00000000000E+00 0. -1.
         23    2    1    2    0    0  0.76203786233E+03  0.79520400239E+03  0.87895518888E+03  0.14119701797E+04  0.89702035897E+02 0.  0.
         13    1    3    3    0    0  0.35795610451E+03  0.39409945275E+03  0.47913739334E+03  0.71625386080E+03  0.00000000000E+00 0. -1.
        -13    1    3    3    0    0  0.40408175782E+03  0.40110454964E+03  0.39981779554E+03  0.69571631889E+03  0.00000000000E+00 0.  1.
         22    1    1    2    0    0 -0.76203786233E+03 -0.79520400239E+03 -0.65026122157E+03  0.12790194546E+04  0.00000000000E+00 0. -1.
<mgrwt>
<rscale>  0 0.26812542E+04</rscale>
<asrwt>0</asrwt>
<pdfrwt beam="1">  1        1 0.18940736E+00 0.26812542E+04</pdfrwt>
<pdfrwt beam="2">  1       -1 0.22459105E+00 0.26812542E+04</pdfrwt>
<totfact> 0.90942768E-01</totfact>
</mgrwt>
</event>
<event>
 6    1  0.2236204E-005  0.1650965E+04  0.7818608E-02  0.8789836E-01
          2   -1    0    0  501    0  0.00000000000E+00  0.00000000000E+00  0.99739739160E+03  0.99739739160E+03  0.00000000000E+00 0. -1.
         -2   -1    0    0    0  501 -0.00000000000E+00 -0.00000000000E+00 -0.68319975650E+03  0.68319975650E+03  0.00000000000E+00 0.  1.
         23    2    1    2    0    0  0.24452214242E+03  0.38298951335E+03  0.85622823976E+03  0.97330002392E+03  0.87829906830E+02 0.  0.
         11    1    3    3    0    0  0.13310053696E+03  0.13577114762E+03  0.31478821264E+03  0.36775151431E+03  0.00000000000E+00 0.  1.
        -11    1    3    3    0    0  0.11142160546E+03  0.24721836573E+03  0.54144002713E+03  0.60554850961E+03  0.00000000000E+00 0. -1.
         22    1    1    2    0    0 -0.24452214242E+03 -0.38298951335E+03 -0.54203060467E+03  0.70729712418E+03  0.00000000000E+00 0.  1.
<mgrwt>
<rscale>  0 0.16509654E+04</rscale>
<asrwt>0</asrwt>
<pdfrwt beam="1">  1        2 0.15344575E+00 0.16509654E+04</pdfrwt>
<pdfrwt beam="2">  1       -2 0.10510765E+00 0.16509654E+04</pdfrwt>
<totfact> 0.17713448E+01</totfact>
</mgrwt>
</event>
<event>
 6    1  0.2236204E-005  0.1697212E+04  0.7818608E-02  0.8762956E-01
         -2   -1    0    0    0  501 -0.00000000000E+00  0.00000000000E+00  0.27149564172E+03  0.27149564172E+03  0.00000000000E+00 0.  1.
          2   -1    0    0  501    0  0.00000000000E+00 -0.00000000000E+00 -0.26524642526E+04  0.26524642526E+04  0.00000000000E+00 0. -1.
         23    2    1    2    0    0 -0.84485520636E+03 -0.46895120445E+02 -0.11801641490E+04  0.14549769715E+04  0.90504678377E+02 0.  0.
         11    1    3    3    0    0 -0.61160603848E+03 -0.66571975159E+02 -0.81292284910E+03  0.10194789516E+04  0.00000000000E+00 0. -1.
        -11    1    3    3    0    0 -0.23324916789E+03  0.19676854714E+02 -0.36724129991E+03  0.43549801985E+03  0.00000000000E+00 0.  1.
         22    1    1    2    0    0  0.84485520636E+03  0.46895120445E+02 -0.12008044619E+04  0.14689829229E+04  0.00000000000E+00 0. -1.
<mgrwt>
<rscale>  0 0.16972124E+04</rscale>
<asrwt>0</asrwt>
<pdfrwt beam="1">  1        2 0.40807141E+00 0.16972124E+04</pdfrwt>
<pdfrwt beam="2">  1       -2 0.41768562E-01 0.16972124E+04</pdfrwt>
<totfact> 0.14685817E+01</totfact>
</mgrwt>
</event>
<event>
 6    1  0.2236204E-005  0.3886756E+04  0.7818608E-02  0.8027789E-01
         -2   -1    0    0    0  501 -0.00000000000E+00  0.00000000000E+00  0.20824358518E+04  0.20824358518E+04  0.00000000000E+00 0.  1.
          2   -1    0    0  501    0  0.00000000000E+00 -0.00000000000E+00 -0.18136063295E+04  0.18136063295E+04  0.00000000000E+00 0. -1.
         23    2    1    2    0    0 -0.11530838611E+04  0.67623993470E+03 -0.12780338625E+04  0.18516133683E+04  0.90546518350E+02 0.  0.
         11    1    3    3    0    0 -0.65975677619E+03  0.43172037846E+03 -0.72175518038E+03  0.10689209650E+04  0.00000000000E+00 0. -1.
        -11    1    3    3    0    0 -0.49332708495E+03  0.24451955624E+03 -0.55627868212E+03  0.78269240338E+03  0.00000000000E+00 0.  1.
         22    1    1    2    0    0  0.11530838611E+04 -0.67623993470E+03  0.15468633848E+04  0.20444288129E+04  0.00000000000E+00 0.  1.
<mgrwt>
<rscale>  0 0.38867564E+04</rscale>
<asrwt>0</asrwt>
<pdfrwt beam="1">  1        2 0.27901636E+00 0.38867564E+04</pdfrwt>
<pdfrwt beam="2">  1       -2 0.32037475E+00 0.38867564E+04</pdfrwt>
<totfact> 0.16077752E-01</totfact>
</mgrwt>
</event>
<event>
 6    1  0.2236204E-005  0.2387118E+04  0.7818608E-02  0.8444342E-01
          2   -1    0    0  501    0  0.00000000000E+00  0.00000000000E+00  0.29647899706E+04  0.29647899706E+04  0.00000000000E+00 0.  1.
         -2   -1    0    0    0  501 -0.00000000000E+00 -0.00000000000E+00 -0.48050044108E+03  0.48050044108E+03  0.00000000000E+00 0. -1.
         23    2    1    2    0    0 -0.25293761878E+03 -0.82481051681E+03  0.57063033098E+02  0.86930161268E+03  0.90217938431E+02 0.  0.
         11    1    3    3    0    0 -0.23364544461E+03 -0.79209315696E+03  0.37761431562E+02  0.82669685424E+03  0.00000000000E+00 0. -1.
        -11    1    3    3    0    0 -0.19292174168E+02 -0.32717359856E+02  0.19301601535E+02  0.42604758442E+02  0.00000000000E+00 0.  1.
         22    1    1    2    0    0  0.25293761878E+03  0.82481051681E+03  0.24272264965E+04  0.25759887990E+04  0.00000000000E+00 0.  1.
<mgrwt>
<rscale>  0 0.23871178E+04</rscale>
<asrwt>0</asrwt>
<pdfrwt beam="1">  1        2 0.45612152E+00 0.23871178E+04</pdfrwt>
<pdfrwt beam="2">  1       -2 0.73923146E-01 0.23871178E+04</pdfrwt>
<totfact> 0.27198310E+00</totfact>
</mgrwt>
</event>
<event>
 6    1  0.2236204E-005  0.2491635E+04  0.7818608E-02  0.8405972E-01
          2   -1    0    0  501    0  0.00000000000E+00  0.00000000000E+00  0.13243373808E+04  0.13243373808E+04  0.00000000000E+00 0. -1.
         -2   -1    0    0    0  501 -0.00000000000E+00 -0.00000000000E+00 -0.11719528966E+04  0.11719528966E+04  0.00000000000E+00 0.  1.
         23    2    1    2    0    0  0.12087951372E+04 -0.28608374121E+03  0.74864106922E+01  0.12456804092E+04  0.92919560041E+02 0.  0.
         13    1    3    3    0    0  0.38949442934E+03 -0.50634715449E+02 -0.12756326674E+02  0.39297901823E+03  0.00000000000E+00 0.  1.
        -13    1    3    3    0    0  0.81930070788E+03 -0.23544902576E+03  0.20242737366E+02  0.85270139092E+03  0.00000000000E+00 0. -1.
         22    1    1    2    0    0 -0.12087951372E+04  0.28608374121E+03  0.14489807351E+03  0.12506098682E+04  0.00000000000E+00 0. -1.
<mgrwt>
<rscale>  0 0.24916348E+04</rscale>
<asrwt>0</asrwt>
<pdfrwt beam="1">  1        2 0.20374421E+00 0.24916348E+04</pdfrwt>
<pdfrwt beam="2">  1       -2 0.18030045E+00 0.24916348E+04</pdfrwt>
<totfact> 0.25772785E+00</totfact>
</mgrwt>
</event>
<event>
 6    1  0.2236204E-005  0.1121811E+04  0.7818608E-02  0.9184191E-01
          2   -1    0    0  501    0  0.00000000000E+00  0.00000000000E+00  0.13668773684E+04  0.13668773684E+04  0.00000000000E+00 0. -1.
         -2   -1    0    0    0  501 -0.00000000000E+00 -0.00000000000E+00 -0.23017045515E+03  0.23017045515E+03  0.00000000000E+00 0.  1.
         23    2    1    2    0    0  0.90347746268E+02  0.54854171887E+03  0.52110467217E+03  0.76757398320E+03  0.92514905455E+02 0.  0.
         13    1    3    3    0    0  0.49373484558E+02  0.18045713030E+03  0.12336276240E+03  0.22410017403E+03  0.00000000000E+00 0.  1.
        -13    1    3    3    0    0  0.40974261710E+02  0.36808458857E+03  0.39774190977E+03  0.54347380917E+03  0.00000000000E+00 0. -1.
         22    1    1    2    0    0 -0.90347746268E+02 -0.54854171887E+03  0.61560224106E+03  0.82947384033E+03  0.00000000000E+00 0.  1.
<mgrwt>
<rscale>  0 0.11218107E+04</rscale>
<asrwt>0</asrwt>
<pdfrwt beam="1">  1        2 0.21028882E+00 0.11218107E+04</pdfrwt>
<pdfrwt beam="2">  1       -2 0.35410840E-01 0.11218107E+04</pdfrwt>
<totfact> 0.11220890E+02</totfact>
</mgrwt>
</event>
<event>
 6    1  0.2236204E-005  0.1161732E+04  0.7818608E-02  0.9147028E-01
          1   -1    0    0  501    0  0.00000000000E+00  0.00000000000E+00  0.31954358667E+03  0.31954358667E+03  0.00000000000E+00 0. -1.
         -1   -1    0    0    0  501 -0.00000000000E+00 -0.00000000000E+00 -0.10558978782E+04  0.10558978782E+04  0.00000000000E+00 0.  1.
         23    2    1    2    0    0  0.22439321243E+02  0.22286756642E+03 -0.10004024881E+04  0.10291829987E+04  0.90769110034E+02 0.  0.
         13    1    3    3    0    0 -0.30344028609E+02  0.11386342645E+03 -0.41627040168E+03  0.43262765431E+03  0.00000000000E+00 0.  1.
        -13    1    3    3    0    0  0.52783349851E+02  0.10900413997E+03 -0.58413208638E+03  0.59655534436E+03  0.00000000000E+00 0. -1.
         22    1    1    2    0    0 -0.22439321243E+02 -0.22286756642E+03  0.26404819655E+03  0.34625846618E+03  0.00000000000E+00 0. -1.
<mgrwt>
<rscale>  0 0.11617321E+04</rscale>
<asrwt>0</asrwt>
<pdfrwt beam="1">  1        1 0.49160552E-01 0.11617321E+04</pdfrwt>
<pdfrwt beam="2">  1       -1 0.16244583E+00 0.11617321E+04</pdfrwt>
<totfact> 0.22436278E+01</totfact>
</mgrwt>
</event>
<event>
 6    1  0.2236204E-005  0.1776202E+04  0.7818608E-02  0.8719058E-01
         -2   -1    0    0    0  501 -0.00000000000E+00  0.00000000000E+00  0.49552882545E+03  0.49552882545E+03  0.00000000000E+00 0.  1.
          2   -1    0    0  501    0  0.00000000000E+00 -0.00000000000E+00 -0.15916809988E+04  0.15916809988E+04  0.00000000000E+00 0. -1.
         23    2    1    2    0    0  0.82218993722E+03  0.26842180821E+03 -0.32491716394E+03  0.92839577544E+03  0.91109782381E+02 0.  0.
         11    1    3    3    0    0  0.67288208836E+03  0.18278397698E+03 -0.25093331362E+03  0.74104508295E+03  0.00000000000E+00 0. -1.
        -11    1    3    3    0    0  0.14930784885E+03  0.85637831236E+02 -0.73983850316E+02  0.18735069249E+03  0.00000000000E+00 0.  1.
         22    1    1    2    0    0 -0.82218993722E+03 -0.26842180821E+03 -0.77123500939E+03  0.11588140488E+04  0.00000000000E+00 0. -1.
<mgrwt>
<rscale>  0 0.17762025E+04</rscale>
<asrwt>0</asrwt>
<pdfrwt beam="1">  1        2 0.24487400E+00 0.17762025E+04</pdfrwt>
<pdfrwt beam="2">  1       -2 0.76235203E-01 0.17762025E+04</pdfrwt>
<totfact> 0.16416723E+01</totfact>
</mgrwt>
</event>
<event>
 6    1  0.2236204E-005  0.3368447E+04  0.7818608E-02  0.8145694E-01
         -2   -1    0    0    0  501 -0.00000000000E+00  0.00000000000E+00  0.10873024864E+04  0.10873024864E+04  0.00000000000E+00 0.  1.
          2   -1    0    0  501    0  0.00000000000E+00 -0.00000000000E+00 -0.26088492668E+04  0.26088492668E+04  0.00000000000E+00 0. -1.
         23    2    1    2    0    0 -0.77328564574E+03  0.12877615907E+04  0.71502997811E+02  0.15066065492E+04  0.91923942540E+02 0.  0.
         11    1    3    3    0    0 -0.33846066264E+03  0.64369087273E+03  0.54887625757E+02  0.72931900513E+03  0.00000000000E+00 0.  1.
        -11    1    3    3    0    0 -0.43482498310E+03  0.64407071794E+03  0.16615372054E+02  0.77728754411E+03  0.00000000000E+00 0. -1.
         22    1    1    2    0    0  0.77328564574E+03 -0.12877615907E+04 -0.15930497782E+04  0.21895452039E+04  0.00000000000E+00 0. -1.
<mgrwt>
<rscale>  0 0.33684467E+04</rscale>
<asrwt>0</asrwt>
<pdfrwt beam="1">  1        2 0.40136142E+00 0.33684467E+04</pdfrwt>
<pdfrwt beam="2">  1       -2 0.16727731E+00 0.33684467E+04</pdfrwt>
<totfact> 0.55658822E-01</totfact>
</mgrwt>
</event>
<event>
 6    1  0.2236204E-005  0.3226420E+04  0.7818608E-02  0.8181874E-01
          2   -1    0    0  501    0  0.00000000000E+00  0.00000000000E+00  0.15274536687E+04  0.15274536687E+04  0.00000000000E+00 0. -1.
         -2   -1    0    0    0  501 -0.00000000000E+00 -0.00000000000E+00 -0.17037812001E+04  0.17037812001E+04  0.00000000000E+00 0.  1.
         23    2    1    2    0    0 -0.88394265848E+03 -0.59548461313E+03 -0.12993085918E+04  0.16829961889E+04  0.91196530837E+02 0.  0.
         11    1    3    3    0    0 -0.38156779343E+03 -0.24196829480E+03 -0.61943681671E+03  0.76671024942E+03  0.00000000000E+00 0. -1.
        -11    1    3    3    0    0 -0.50237486505E+03 -0.35351631834E+03 -0.67987177512E+03  0.91628593952E+03  0.00000000000E+00 0.  1.
         22    1    1    2    0    0  0.88394265848E+03  0.59548461313E+03  0.11229810604E+04  0.15482386799E+04  0.00000000000E+00 0. -1.
<mgrwt>
<rscale>  0 0.32264202E+04</rscale>
<asrwt>0</asrwt>
<pdfrwt beam="1">  1        2 0.23499287E+00 0.32264202E+04</pdfrwt>
<pdfrwt beam="2">  1       -2 0.26212019E+00 0.32264202E+04</pdfrwt>
<totfact> 0.55732044E-01</totfact>
</mgrwt>
</event>
<event>
 6    1  0.2236204E-005  0.1305144E+04  0.7818608E-02  0.9025496E-01
         -2   -1    0    0    0  501 -0.00000000000E+00  0.00000000000E+00  0.47069031246E+03  0.47069031246E+03  0.00000000000E+00 0.  1.
          2   -1    0    0  501    0  0.00000000000E+00 -0.00000000000E+00 -0.90473489283E+03  0.90473489283E+03  0.00000000000E+00 0. -1.
         23    2    1    2    0    0 -0.59003907802E+03 -0.26764150885E+03 -0.17173786783E+03  0.67643815084E+03  0.91085596089E+02 0.  0.
         13    1    3    3    0    0 -0.24915840628E+03 -0.12092324503E+03 -0.27631158962E+02  0.27832682866E+03  0.00000000000E+00 0. -1.
        -13    1    3    3    0    0 -0.34088067175E+03 -0.14671826383E+03 -0.14410670887E+03  0.39811132218E+03  0.00000000000E+00 0.  1.
         22    1    1    2    0    0  0.59003907802E+03  0.26764150885E+03 -0.26230671254E+03  0.69898705445E+03  0.00000000000E+00 0. -1.
<mgrwt>
<rscale>  0 0.13051436E+04</rscale>
<asrwt>0</asrwt>
<pdfrwt beam="1">  1        2 0.13918998E+00 0.13051436E+04</pdfrwt>
<pdfrwt beam="2">  1       -2 0.72413895E-01 0.13051436E+04</pdfrwt>
<totfact> 0.49229629E+01</totfact>
</mgrwt>
</event>
<event>
 6    1  0.2236204E-005  0.2276681E+04  0.7818608E-02  0.8487173E-01
          2   -1    0    0  501    0  0.00000000000E+00  0.00000000000E+00  0.25496115838E+04  0.25496115838E+04  0.00000000000E+00 0. -1.
         -2   -1    0    0    0  501 -0.00000000000E+00 -0.00000000000E+00 -0.50824171966E+03  0.50824171966E+03  0.00000000000E+00 0.  1.
         23    2    1    2    0    0 -0.41106473034E+03 -0.50480260477E+03 -0.22924394410E+03  0.69575953976E+03  0.87912848638E+02 0.  0.
         11    1    3    3    0    0 -0.19102171462E+03 -0.30030756020E+03 -0.10948181552E+03  0.37237104358E+03  0.00000000000E+00 0.  1.
        -11    1    3    3    0    0 -0.22004301572E+03 -0.20449504457E+03 -0.11976212858E+03  0.32338849618E+03  0.00000000000E+00 0. -1.
         22    1    1    2    0    0  0.41106473034E+03  0.50480260477E+03  0.22706138083E+04  0.23620937637E+04  0.00000000000E+00 0. -1.
<mgrwt>
<rscale>  0 0.22766809E+04</rscale>
<asrwt>0</asrwt>
<pdfrwt beam="1">  1        2 0.39224793E+00 0.22766809E+04</pdfrwt>
<pdfrwt beam="2">  1       -2 0.78191035E-01 0.22766809E+04</pdfrwt>
<totfact> 0.43054864E+00</totfact>
</mgrwt>
</event>
<event>
 6    1  0.2236204E-005  0.4730678E+04  0.7818608E-02  0.7871451E-01
          2   -1    0    0  501    0  0.00000000000E+00  0.00000000000E+00  0.36441344678E+04  0.36441344678E+04  0.00000000000E+00 0. -1.
         -2   -1    0    0    0  501 -0.00000000000E+00 -0.00000000000E+00 -0.15352967473E+04  0.15352967473E+04  0.00000000000E+00 0.  1.
         23    2    1    2    0    0 -0.19248898693E+04 -0.82722193006E+03 -0.14513963215E+03  0.21021091591E+04  0.91105835854E+02 0.  0.
         13    1    3    3    0    0 -0.94503740297E+03 -0.40589351782E+03 -0.25599442346E+02  0.10288345699E+04  0.00000000000E+00 0.  1.
        -13    1    3    3    0    0 -0.97985246636E+03 -0.42132841224E+03 -0.11954018980E+03  0.10732745892E+04  0.00000000000E+00 0. -1.
         22    1    1    2    0    0  0.19248898693E+04  0.82722193006E+03  0.22539773526E+04  0.30773220561E+04  0.00000000000E+00 0. -1.
<mgrwt>
<rscale>  0 0.47306777E+04</rscale>
<asrwt>0</asrwt>
<pdfrwt beam="1">  1        2 0.56063607E+00 0.47306777E+04</pdfrwt>
<pdfrwt beam="2">  1       -2 0.23619950E+00 0.47306777E+04</pdfrwt>
<totfact> 0.37217932E-02</totfact>
</mgrwt>
</event>
<event>
 6    1  0.2236204E-005  0.2467018E+04  0.7818608E-02  0.8414831E-01
         -2   -1    0    0    0  501 -0.00000000000E+00  0.00000000000E+00  0.62195002101E+03  0.62195002101E+03  0.00000000000E+00 0.  1.
          2   -1    0    0  501    0  0.00000000000E+00 -0.00000000000E+00 -0.24464091515E+04  0.24464091515E+04  0.00000000000E+00 0. -1.
         23    2    1    2    0    0  0.48962401137E+03  0.60173270994E+03  0.27665449154E+03  0.82860642290E+03  0.90757752653E+02 0.  0.
         13    1    3    3    0    0  0.20433009725E+03  0.32273797216E+03  0.13122582463E+03  0.40389454610E+03  0.00000000000E+00 0. -1.
        -13    1    3    3    0    0  0.28529391412E+03  0.27899473778E+03  0.14542866690E+03  0.42471187681E+03  0.00000000000E+00 0.  1.
         22    1    1    2    0    0 -0.48962401137E+03 -0.60173270994E+03 -0.21011136221E+04  0.22397527496E+04  0.00000000000E+00 0. -1.
<mgrwt>
<rscale>  0 0.24670178E+04</rscale>
<asrwt>0</asrwt>
<pdfrwt beam="1">  1        2 0.37637064E+00 0.24670178E+04</pdfrwt>
<pdfrwt beam="2">  1       -2 0.95684620E-01 0.24670178E+04</pdfrwt>
<totfact> 0.30636545E+00</totfact>
</mgrwt>
</event>
<event>
 6    1  0.2236204E-005  0.2222515E+04  0.7818608E-02  0.8509115E-01
          2   -1    0    0  501    0  0.00000000000E+00  0.00000000000E+00  0.26050314500E+04  0.26050314500E+04  0.00000000000E+00 0. -1.
         -2   -1    0    0    0  501 -0.00000000000E+00 -0.00000000000E+00 -0.47404152665E+03  0.47404152665E+03  0.00000000000E+00 0.  1.
         23    2    1    2    0    0  0.84196787340E+03 -0.30180338711E+03  0.19764442115E+04  0.21713948611E+04  0.92890997596E+02 0.  0.
         13    1    3    3    0    0  0.19427184334E+03 -0.66702241282E+02  0.55386350039E+03  0.59072456794E+03  0.00000000000E+00 0.  1.
        -13    1    3    3    0    0  0.64769603005E+03 -0.23510114582E+03  0.14225807111E+04  0.15806702932E+04  0.00000000000E+00 0. -1.
         22    1    1    2    0    0 -0.84196787340E+03  0.30180338711E+03  0.15454571180E+03  0.90767811549E+03  0.00000000000E+00 0.  1.
<mgrwt>
<rscale>  0 0.22225149E+04</rscale>
<asrwt>0</asrwt>
<pdfrwt beam="1">  1        2 0.40077406E+00 0.22225149E+04</pdfrwt>
<pdfrwt beam="2">  1       -2 0.72929467E-01 0.22225149E+04</pdfrwt>
<totfact> 0.46857827E+00</totfact>
</mgrwt>
</event>
<event>
 6    1  0.2236204E-005  0.6196489E+03  0.7818608E-02  0.9865459E-01
          1   -1    0    0  501    0  0.00000000000E+00  0.00000000000E+00  0.37306738518E+03  0.37306738518E+03  0.00000000000E+00 0.  1.
         -1   -1    0    0    0  501 -0.00000000000E+00 -0.00000000000E+00 -0.25730256744E+03  0.25730256744E+03  0.00000000000E+00 0. -1.
         23    2    1    2    0    0 -0.18830998254E+03 -0.83933409660E+02 -0.16729263869E+03  0.28018858472E+03  0.89517312663E+02 0.  0.
         13    1    3    3    0    0 -0.12778179368E+03 -0.92651800229E+02 -0.90221147474E+02  0.18180318571E+03  0.00000000000E+00 0. -1.
        -13    1    3    3    0    0 -0.60528188859E+02  0.87183905685E+01 -0.77071491215E+02  0.98385399013E+02  0.00000000000E+00 0.  1.
         22    1    1    2    0    0  0.18830998254E+03  0.83933409660E+02  0.28305745644E+03  0.35018136790E+03  0.00000000000E+00 0. -1.
<mgrwt>
<rscale>  0 0.61964892E+03</rscale>
<asrwt>0</asrwt>
<pdfrwt beam="1">  1        1 0.57394983E-01 0.61964892E+03</pdfrwt>
<pdfrwt beam="2">  1       -1 0.39585010E-01 0.61964892E+03</pdfrwt>
<totfact> 0.41367752E+02</totfact>
</mgrwt>
</event>
<event>
 6    1  0.2236204E-005  0.1755748E+04  0.7818608E-02  0.8730193E-01
         -2   -1    0    0    0  501 -0.00000000000E+00  0.00000000000E+00  0.22872264767E+03  0.22872264767E+03  0.00000000000E+00 0.  1.
          2   -1    0    0  501    0  0.00000000000E+00 -0.00000000000E+00 -0.33694210763E+04  0.33694210763E+04  0.00000000000E+00 0. -1.
         23    2    1    2    0    0 -0.54404225443E+03  0.68555104543E+03 -0.16103002653E+04  0.18351687528E+04  0.93889277933E+02 0.  0.
         13    1    3    3    0    0 -0.44574073107E+03  0.49917038629E+03 -0.12047102661E+04  0.13781083771E+04  0.00000000000E+00 0.  1.
        -13    1    3    3    0    0 -0.98301523365E+02  0.18638065913E+03 -0.40558999922E+03  0.45706037573E+03  0.00000000000E+00 0. -1.
         22    1    1    2    0    0  0.54404225443E+03 -0.68555104543E+03 -0.15303981634E+04  0.17629749712E+04  0.00000000000E+00 0.  1.
<mgrwt>
<rscale>  0 0.17557482E+04</rscale>
<asrwt>0</asrwt>
<pdfrwt beam="1">  1        2 0.51837246E+00 0.17557482E+04</pdfrwt>
<pdfrwt beam="2">  1       -2 0.35188101E-01 0.17557482E+04</pdfrwt>
<totfact> 0.72398477E+00</totfact>
</mgrwt>
</event>
<event>
 6    1  0.2236204E-005  0.2005718E+04  0.7818608E-02  0.8603952E-01
          2   -1    0    0  501    0  0.00000000000E+00  0.00000000000E+00  0.38162622225E+03  0.38162622225E+03  0.00000000000E+00 0. -1.
         -2   -1    0    0    0  501 -0.00000000000E+00 -0.00000000000E+00 -0.26353689229E+04  0.26353689229E+04  0.00000000000E+00 0.  1.
         23    2    1    2    0    0  0.83970554279E+03 -0.25364863584E+02 -0.19471360456E+04  0.21227041322E+04  0.93729813754E+02 0.  0.
         11    1    3    3    0    0  0.31005034896E+03 -0.27150788892E+02 -0.61876452739E+03  0.69263116056E+03  0.00000000000E+00 0. -1.
        -11    1    3    3    0    0  0.52965519383E+03  0.17859253079E+01 -0.13283715182E+04  0.14300729716E+04  0.00000000000E+00 0.  1.
         22    1    1    2    0    0 -0.83970554279E+03  0.25364863584E+02 -0.30660665508E+03  0.89429101295E+03  0.00000000000E+00 0. -1.
<mgrwt>
<rscale>  0 0.20057177E+04</rscale>
<asrwt>0</asrwt>
<pdfrwt beam="1">  1        2 0.58711725E-01 0.20057177E+04</pdfrwt>
<pdfrwt beam="2">  1       -2 0.40544139E+00 0.20057177E+04</pdfrwt>
<totfact> 0.53392830E-01</totfact>
</mgrwt>
</event>
<event>
 6    1  0.2236204E-005  0.1286693E+04  0.7818608E-02  0.9040185E-01
          2   -1    0    0  501    0  0.00000000000E+00  0.00000000000E+00  0.31942409304E+04  0.31942409304E+04  0.00000000000E+00 0. -1.
         -2   -1    0    0    0  501 -0.00000000000E+00 -0.00000000000E+00 -0.12957523622E+03  0.12957523622E+03  0.00000000000E+00 0.  1.
         23    2    1    2    0    0  0.39771418472E+03 -0.45337331699E+03  0.97290008720E+03  0.11468441200E+04  0.70660587246E+02 0.  0.
         11    1    3    3    0    0  0.16973999030E+03 -0.24488758759E+03  0.49647829202E+03  0.57902701949E+03  0.00000000000E+00 0.  1.
        -11    1    3    3    0    0  0.22797419442E+03 -0.20848572940E+03  0.47642179518E+03  0.56781710049E+03  0.00000000000E+00 0. -1.
         22    1    1    2    0    0 -0.39771418472E+03  0.45337331699E+03  0.20917656070E+04  0.21769720467E+04  0.00000000000E+00 0.  1.
<mgrwt>
<rscale>  0 0.12866927E+04</rscale>
<asrwt>0</asrwt>
<pdfrwt beam="1">  1        2 0.49142162E+00 0.12866927E+04</pdfrwt>
<pdfrwt beam="2">  1       -2 0.19934654E-01 0.12866927E+04</pdfrwt>
<totfact> 0.28010416E+01</totfact>
</mgrwt>
</event>
<event>
 6    1  0.2236204E-005  0.1530987E+04  0.7818608E-02  0.8864105E-01
          2   -1    0    0  501    0  0.00000000000E+00  0.00000000000E+00  0.17724041600E+04  0.17724041600E+04  0.00000000000E+00 0. -1.
         -2   -1    0    0    0  501 -0.00000000000E+00 -0.00000000000E+00 -0.33061318567E+03  0.33061318567E+03  0.00000000000E+00 0.  1.
         23    2    1    2    0    0 -0.20419447873E+03 -0.62351120138E+03  0.18918615734E+03  0.68898749063E+03  0.91927997462E+02 0.  0.
         11    1    3    3    0    0 -0.17322241276E+03 -0.58485000836E+03  0.19172327530E+03  0.63938513499E+03  0.00000000000E+00 0. -1.
        -11    1    3    3    0    0 -0.30972065978E+02 -0.38661193026E+02 -0.25371179608E+01  0.49602355636E+02  0.00000000000E+00 0.  1.
         22    1    1    2    0    0  0.20419447873E+03  0.62351120138E+03  0.12526048170E+04  0.14140298551E+04  0.00000000000E+00 0. -1.
<mgrwt>
<rscale>  0 0.15309869E+04</rscale>
<asrwt>0</asrwt>
<pdfrwt beam="1">  1        2 0.27267756E+00 0.15309869E+04</pdfrwt>
<pdfrwt beam="2">  1       -2 0.50863568E-01 0.15309869E+04</pdfrwt>
<totfact> 0.31481635E+01</totfact>
</mgrwt>
</event>
<event>
 6    1  0.2236204E-005  0.1938946E+04  0.7818608E-02  0.8635710E-01
         -2   -1    0    0    0  501 -0.00000000000E+00  0.00000000000E+00  0.64345065876E+03  0.64345065876E+03  0.00000000000E+00 0.  1.
          2   -1    0    0  501    0  0.00000000000E+00 -0.00000000000E+00 -0.14606833448E+04  0.14606833448E+04  0.00000000000E+00 0. -1.
         23    2    1    2    0    0  0.19556018661E+03  0.61883406121E+03  0.36890820688E+03  0.75205057427E+03  0.91035263790E+02 0.  0.
         13    1    3    3    0    0  0.68138037306E+02  0.26399656549E+03  0.20410844237E+03  0.34058366809E+03  0.00000000000E+00 0. -1.
        -13    1    3    3    0    0  0.12742214930E+03  0.35483749572E+03  0.16479976450E+03  0.41146690618E+03  0.00000000000E+00 0.  1.
         22    1    1    2    0    0 -0.19556018661E+03 -0.61883406121E+03 -0.11861408929E+04  0.13520834293E+04  0.00000000000E+00 0. -1.
<mgrwt>
<rscale>  0 0.19389458E+04</rscale>
<asrwt>0</asrwt>
<pdfrwt beam="1">  1        2 0.22472051E+00 0.19389458E+04</pdfrwt>
<pdfrwt beam="2">  1       -2 0.98992410E-01 0.19389458E+04</pdfrwt>
<totfact> 0.10555853E+01</totfact>
</mgrwt>
</event>
<event>
 6    1  0.2236204E-005  0.1285013E+04  0.7818608E-02  0.9041535E-01
         -2   -1    0    0    0  501 -0.00000000000E+00  0.00000000000E+00  0.58342456233E+03  0.58342456233E+03  0.00000000000E+00 0.  1.
          2   -1    0    0  501    0  0.00000000000E+00 -0.00000000000E+00 -0.70757124369E+03  0.70757124369E+03  0.00000000000E+00 0. -1.
         23    2    1    2    0    0  0.33384935644E+03  0.51825397876E+03 -0.23206210186E+03  0.66514573030E+03  0.92322500585E+02 0.  0.
         13    1    3    3    0    0  0.24487955066E+03  0.44531542489E+03 -0.19382014083E+03  0.54390998241E+03  0.00000000000E+00 0. -1.
        -13    1    3    3    0    0  0.88969805784E+02  0.72938553874E+02 -0.38241961024E+02  0.12123574789E+03  0.00000000000E+00 0.  1.
         22    1    1    2    0    0 -0.33384935644E+03 -0.51825397876E+03  0.10791542050E+03  0.62585007572E+03  0.00000000000E+00 0.  1.
<mgrwt>
<rscale>  0 0.12850128E+04</rscale>
<asrwt>0</asrwt>
<pdfrwt beam="1">  1        2 0.10885711E+00 0.12850128E+04</pdfrwt>
<pdfrwt beam="2">  1       -2 0.89757625E-01 0.12850128E+04</pdfrwt>
<totfact> 0.42187201E+01</totfact>
</mgrwt>
</event>
<event>
 6    1  0.2236204E-005  0.1389787E+04  0.7818608E-02  0.8961245E-01
          2   -1    0    0  501    0  0.00000000000E+00  0.00000000000E+00  0.11991859563E+04  0.11991859563E+04  0.00000000000E+00 0.  1.
         -2   -1    0    0    0  501 -0.00000000000E+00 -0.00000000000E+00 -0.40267053541E+03  0.40267053541E+03  0.00000000000E+00 0. -1.
         23    2    1    2    0    0 -0.57212520746E+03 -0.28896099169E+03  0.99647209748E+02  0.65504552250E+03  0.91265340632E+02 0.  0.
         13    1    3    3    0    0 -0.13470958371E+03 -0.26558266868E+02  0.23854240877E+02  0.13935938537E+03  0.00000000000E+00 0.  1.
        -13    1    3    3    0    0 -0.43741562375E+03 -0.26240272483E+03  0.75792968871E+02  0.51568613713E+03  0.00000000000E+00 0. -1.
         22    1    1    2    0    0  0.57212520746E+03  0.28896099169E+03  0.69686821116E+03  0.94681096923E+03  0.00000000000E+00 0.  1.
<mgrwt>
<rscale>  0 0.13897868E+04</rscale>
<asrwt>0</asrwt>
<pdfrwt beam="1">  1        2 0.18449015E+00 0.13897868E+04</pdfrwt>
<pdfrwt beam="2">  1       -2 0.61949314E-01 0.13897868E+04</pdfrwt>
<totfact> 0.44694837E+01</totfact>
</mgrwt>
</event>
<event>
 6    1  0.2236204E-005  0.3477482E+04  0.7818608E-02  0.8119147E-01
         -1   -1    0    0    0  501 -0.00000000000E+00  0.00000000000E+00  0.22123296266E+04  0.22123296266E+04  0.00000000000E+00 0.  1.
          1   -1    0    0  501    0  0.00000000000E+00 -0.00000000000E+00 -0.13665327821E+04  0.13665327821E+04  0.00000000000E+00 0. -1.
         23    2    1    2    0    0 -0.17208791179E+04 -0.17817159402E+03  0.58821120865E+03  0.18297139258E+04  0.93223221284E+02 0.  0.
         13    1    3    3    0    0 -0.74357602361E+03 -0.76858852278E+02  0.30304133717E+03  0.80662670306E+03  0.00000000000E+00 0. -1.
        -13    1    3    3    0    0 -0.97730309432E+03 -0.10131274174E+03  0.28516987147E+03  0.10230872228E+04  0.00000000000E+00 0.  1.
         22    1    1    2    0    0  0.17208791179E+04  0.17817159402E+03  0.25758563587E+03  0.17491484829E+04  0.00000000000E+00 0. -1.
<mgrwt>
<rscale>  0 0.34774824E+04</rscale>
<asrwt>0</asrwt>
<pdfrwt beam="1">  1        1 0.21023581E+00 0.34774824E+04</pdfrwt>
<pdfrwt beam="2">  1       -1 0.34035840E+00 0.34774824E+04</pdfrwt>
<totfact> 0.11927368E-01</totfact>
</mgrwt>
</event>
<event>
 6    1  0.2236204E-005  0.2616063E+04  0.7818608E-02  0.8362765E-01
         -1   -1    0    0    0  501 -0.00000000000E+00  0.00000000000E+00  0.11767072094E+04  0.11767072094E+04  0.00000000000E+00 0.  1.
          1   -1    0    0  501    0  0.00000000000E+00 -0.00000000000E+00 -0.14540116183E+04  0.14540116183E+04  0.00000000000E+00 0. -1.
         23    2    1    2    0    0  0.63495438435E+03  0.95156920100E+03 -0.77335470671E+03  0.13838359493E+04  0.90958329836E+02 0.  0.
         13    1    3    3    0    0  0.20498560971E+03  0.38424693515E+03 -0.28043291423E+03  0.51798400240E+03  0.00000000000E+00 0. -1.
        -13    1    3    3    0    0  0.42996877464E+03  0.56732226584E+03 -0.49292179248E+03  0.86585194692E+03  0.00000000000E+00 0.  1.
         22    1    1    2    0    0 -0.63495438435E+03 -0.95156920100E+03  0.49605029786E+03  0.12468828784E+04  0.00000000000E+00 0.  1.
<mgrwt>
<rscale>  0 0.26160627E+04</rscale>
<asrwt>0</asrwt>
<pdfrwt beam="1">  1        1 0.22369409E+00 0.26160627E+04</pdfrwt>
<pdfrwt beam="2">  1       -1 0.18103188E+00 0.26160627E+04</pdfrwt>
<totfact> 0.12671912E+00</totfact>
</mgrwt>
</event>
<event>
 6    1  0.2236204E-005  0.2052768E+04  0.7818608E-02  0.8582340E-01
         -2   -1    0    0    0  501 -0.00000000000E+00  0.00000000000E+00  0.44742433411E+03  0.44742433411E+03  0.00000000000E+00 0.  1.
          2   -1    0    0  501    0  0.00000000000E+00 -0.00000000000E+00 -0.23545076631E+04  0.23545076631E+04  0.00000000000E+00 0. -1.
         23    2    1    2    0    0 -0.37998301119E+03 -0.88751317601E+03 -0.48789494932E+03  0.10854931304E+04  0.90482751280E+02 0.  0.
         11    1    3    3    0    0 -0.26144079298E+03 -0.70085914843E+03 -0.36155353780E+03  0.83082837871E+03  0.00000000000E+00 0.  1.
        -11    1    3    3    0    0 -0.11854221821E+03 -0.18665402758E+03 -0.12634141152E+03  0.25466475174E+03  0.00000000000E+00 0. -1.
         22    1    1    2    0    0  0.37998301119E+03  0.88751317601E+03 -0.14191883797E+04  0.17164388668E+04  0.00000000000E+00 0. -1.
<mgrwt>
<rscale>  0 0.20527679E+04</rscale>
<asrwt>0</asrwt>
<pdfrwt beam="1">  1        2 0.36223195E+00 0.20527679E+04</pdfrwt>
<pdfrwt beam="2">  1       -2 0.68834513E-01 0.20527679E+04</pdfrwt>
<totfact> 0.75309078E+00</totfact>
</mgrwt>
</event>
<event>
 6    1  0.2236204E-005  0.1672138E+04  0.7818608E-02  0.8777417E-01
          1   -1    0    0  501    0  0.00000000000E+00  0.00000000000E+00  0.24569474522E+04  0.24569474522E+04  0.00000000000E+00 0. -1.
         -1   -1    0    0    0  501 -0.00000000000E+00 -0.00000000000E+00 -0.28450386802E+03  0.28450386802E+03  0.00000000000E+00 0.  1.
         23    2    1    2    0    0 -0.44924742844E+03 -0.39152835881E+03  0.13595033309E+03  0.61956007195E+03  0.10126441613E+03 0.  0.
         13    1    3    3    0    0 -0.28801396810E+03 -0.29565805018E+03  0.12664673128E+03  0.43174659582E+03  0.00000000000E+00 0. -1.
        -13    1    3    3    0    0 -0.16123346034E+03 -0.95870308634E+02  0.93036018096E+01  0.18781347613E+03  0.00000000000E+00 0.  1.
         22    1    1    2    0    0  0.44924742844E+03  0.39152835881E+03  0.20364932511E+04  0.21218912483E+04  0.00000000000E+00 0. -1.
<mgrwt>
<rscale>  0 0.16721376E+04</rscale>
<asrwt>0</asrwt>
<pdfrwt beam="1">  1        1 0.37799190E+00 0.16721376E+04</pdfrwt>
<pdfrwt beam="2">  1       -1 0.43769828E-01 0.16721376E+04</pdfrwt>
<totfact> 0.71491194E+00</totfact>
</mgrwt>
</event>
<event>
 6    1  0.2236204E-005  0.1522098E+04  0.7818608E-02  0.8869890E-01
          1   -1    0    0  501    0  0.00000000000E+00  0.00000000000E+00  0.70814489272E+03  0.70814489272E+03  0.00000000000E+00 0.  1.
         -1   -1    0    0    0  501 -0.00000000000E+00 -0.00000000000E+00 -0.81790502965E+03  0.81790502965E+03  0.00000000000E+00 0. -1.
         23    2    1    2    0    0  0.50299969305E+03  0.41124590308E+03  0.33702699442E+03  0.73753827075E+03  0.90794393193E+02 0.  0.
         13    1    3    3    0    0  0.61366640099E+02  0.93793234253E+02  0.61217458251E+02  0.12771300836E+03  0.00000000000E+00 0. -1.
        -13    1    3    3    0    0  0.44163305295E+03  0.31745266883E+03  0.27580953617E+03  0.60982526239E+03  0.00000000000E+00 0.  1.
         22    1    1    2    0    0 -0.50299969305E+03 -0.41124590308E+03 -0.44678713135E+03  0.78851165163E+03  0.00000000000E+00 0. -1.
<mgrwt>
<rscale>  0 0.15220976E+04</rscale>
<asrwt>0</asrwt>
<pdfrwt beam="1">  1        1 0.10894537E+00 0.15220976E+04</pdfrwt>
<pdfrwt beam="2">  1       -1 0.12583154E+00 0.15220976E+04</pdfrwt>
<totfact> 0.14231221E+01</totfact>
</mgrwt>
</event>
<event>
 6    1  0.2852865E-005  0.4687480E+04  0.7818608E-02  0.7878612E-01
         -2   -1    0    0    0  501 -0.00000000000E+00  0.00000000000E+00  0.17605446400E+04  0.17605446400E+04  0.00000000000E+00 0.  1.
          2   -1    0    0  501    0  0.00000000000E+00 -0.00000000000E+00 -0.31201236292E+04  0.31201236292E+04  0.00000000000E+00 0. -1.
         23    2    1    2    0    0  0.64369332136E+03  0.34171559254E+03 -0.29984354246E+04  0.30870793938E+04  0.91288278468E+02 0.  0.
         11    1    3    3    0    0  0.21932359858E+03  0.88211037071E+02 -0.11212537131E+04  0.11459031011E+04  0.00000000000E+00 0. -1.
        -11    1    3    3    0    0  0.42436972277E+03  0.25350455547E+03 -0.18771817116E+04  0.19411762927E+04  0.00000000000E+00 0.  1.
         22    1    1    2    0    0 -0.64369332136E+03 -0.34171559254E+03  0.16388564354E+04  0.17935888754E+04  0.00000000000E+00 0.  1.
<mgrwt>
<rscale>  0 0.46874799E+04</rscale>
<asrwt>0</asrwt>
<pdfrwt beam="1">  1        2 0.48001902E+00 0.46874799E+04</pdfrwt>
<pdfrwt beam="2">  1       -2 0.27085302E+00 0.46874799E+04</pdfrwt>
<totfact> 0.52170292E-02</totfact>
</mgrwt>
</event>
<event>
 6    1  0.2236204E-005  0.1587264E+04  0.7818608E-02  0.8828410E-01
         -2   -1    0    0    0  501 -0.00000000000E+00  0.00000000000E+00  0.39217532277E+03  0.39217532277E+03  0.00000000000E+00 0.  1.
          2   -1    0    0  501    0  0.00000000000E+00 -0.00000000000E+00 -0.16060471724E+04  0.16060471724E+04  0.00000000000E+00 0. -1.
         23    2    1    2    0    0 -0.56350742763E+03 -0.39556040882E+03 -0.11844868103E+03  0.70440621133E+03  0.90273819583E+02 0.  0.
         13    1    3    3    0    0 -0.33468314011E+03 -0.27556901088E+03 -0.10280875986E+03  0.44555664639E+03  0.00000000000E+00 0. -1.
        -13    1    3    3    0    0 -0.22882428752E+03 -0.11999139793E+03 -0.15639921165E+02  0.25884956494E+03  0.00000000000E+00 0.  1.
         22    1    1    2    0    0  0.56350742763E+03  0.39556040882E+03 -0.10954231686E+04  0.12938162838E+04  0.00000000000E+00 0. -1.
<mgrwt>
<rscale>  0 0.15872644E+04</rscale>
<asrwt>0</asrwt>
<pdfrwt beam="1">  1        2 0.24708418E+00 0.15872644E+04</pdfrwt>
<pdfrwt beam="2">  1       -2 0.60334666E-01 0.15872644E+04</pdfrwt>
<totfact> 0.27182473E+01</totfact>
</mgrwt>
</event>
<event>
 6    1  0.2236204E-005  0.5449032E+04  0.7818608E-02  0.7762742E-01
         -1   -1    0    0    0  501 -0.00000000000E+00  0.00000000000E+00  0.25668128257E+04  0.25668128257E+04  0.00000000000E+00 0. -1.
          1   -1    0    0  501    0  0.00000000000E+00 -0.00000000000E+00 -0.28919082037E+04  0.28919082037E+04  0.00000000000E+00 0.  1.
         23    2    1    2    0    0  0.15036314667E+04  0.15059907102E+04 -0.18655906493E+04  0.28315473983E+04  0.91195348884E+02 0.  0.
         13    1    3    3    0    0  0.12344131899E+04  0.12093465164E+04 -0.14737085519E+04  0.22711476870E+04  0.00000000000E+00 0. -1.
        -13    1    3    3    0    0  0.26921827682E+03  0.29664419371E+03 -0.39188209735E+03  0.56039971133E+03  0.00000000000E+00 0.  1.
         22    1    1    2    0    0 -0.15036314667E+04 -0.15059907102E+04  0.15404952712E+04  0.26271736310E+04  0.00000000000E+00 0. -1.
<mgrwt>
<rscale>  0 0.54490319E+04</rscale>
<asrwt>0</asrwt>
<pdfrwt beam="1">  1        1 0.44490895E+00 0.54490319E+04</pdfrwt>
<pdfrwt beam="2">  1       -1 0.39489428E+00 0.54490319E+04</pdfrwt>
<totfact> 0.38706629E-03</totfact>
</mgrwt>
</event>
<event>
 6    1  0.2236204E-005  0.1188202E+04  0.7818608E-02  0.9123247E-01
         -2   -1    0    0    0  501 -0.00000000000E+00  0.00000000000E+00  0.15059977653E+03  0.15059977653E+03  0.00000000000E+00 0.  1.
          2   -1    0    0  501    0  0.00000000000E+00 -0.00000000000E+00 -0.23436672885E+04  0.23436672885E+04  0.00000000000E+00 0. -1.
         23    2    1    2    0    0  0.34855072451E+02  0.58336499981E+03 -0.92519738129E+03  0.10981924727E+04  0.92232931551E+02 0.  0.
         11    1    3    3    0    0  0.97650150799E+01  0.20667216619E+03 -0.41263735031E+03  0.46160407566E+03  0.00000000000E+00 0. -1.
        -11    1    3    3    0    0  0.25090057371E+02  0.37669283362E+03 -0.51256003098E+03  0.63658839703E+03  0.00000000000E+00 0.  1.
         22    1    1    2    0    0 -0.34855072451E+02 -0.58336499981E+03 -0.12678701307E+04  0.13960745923E+04  0.00000000000E+00 0.  1.
<mgrwt>
<rscale>  0 0.11882016E+04</rscale>
<asrwt>0</asrwt>
<pdfrwt beam="1">  1        2 0.36056418E+00 0.11882016E+04</pdfrwt>
<pdfrwt beam="2">  1       -2 0.23169197E-01 0.11882016E+04</pdfrwt>
<totfact> 0.69909546E+01</totfact>
</mgrwt>
</event>
<event>
 6    1  0.2236204E-005  0.5020514E+03  0.7818608E-02  0.1013245E+00
          2   -1    0    0  501    0  0.00000000000E+00  0.00000000000E+00  0.15114014167E+04  0.15114014167E+04  0.00000000000E+00 0. -1.
         -2   -1    0    0    0  501 -0.00000000000E+00 -0.00000000000E+00 -0.41692370834E+02  0.41692370834E+02  0.00000000000E+00 0.  1.
         23    2    1    2    0    0 -0.20151027848E+03  0.53083276915E+02  0.11419170024E+04  0.11646715297E+04  0.95189837155E+02 0.  0.
         11    1    3    3    0    0 -0.89684781496E+02  0.14726869396E+02  0.74498181945E+03  0.75050526449E+03  0.00000000000E+00 0. -1.
        -11    1    3    3    0    0 -0.11182549698E+03  0.38356407519E+02  0.39693518293E+03  0.41416626519E+03  0.00000000000E+00 0.  1.
         22    1    1    2    0    0  0.20151027848E+03 -0.53083276915E+02  0.32779204345E+03  0.38842225782E+03  0.00000000000E+00 0. -1.
<mgrwt>
<rscale>  0 0.50205143E+03</rscale>
<asrwt>0</asrwt>
<pdfrwt beam="1">  1        2 0.23252325E+00 0.50205143E+03</pdfrwt>
<pdfrwt beam="2">  1       -2 0.64142120E-02 0.50205143E+03</pdfrwt>
<totfact> 0.17827597E+03</totfact>
</mgrwt>
</event>
<event>
 6    1  0.2236204E-005  0.1889994E+04  0.7818608E-02  0.8659853E-01
         -2   -1    0    0    0  501 -0.00000000000E+00  0.00000000000E+00  0.49929086345E+03  0.49929086345E+03  0.00000000000E+00 0.  1.
          2   -1    0    0  501    0  0.00000000000E+00 -0.00000000000E+00 -0.17885762773E+04  0.17885762773E+04  0.00000000000E+00 0. -1.
         23    2    1    2    0    0  0.65502930734E+03 -0.18926581456E+03  0.14364081187E+03  0.70099521447E+03  0.76659414504E+02 0.  0.
         13    1    3    3    0    0  0.21014477341E+03 -0.23926632219E+02  0.45282952553E+02  0.21629575888E+03  0.00000000000E+00 0.  1.
        -13    1    3    3    0    0  0.44488453394E+03 -0.16533918234E+03  0.98357859317E+02  0.48469945558E+03  0.00000000000E+00 0. -1.
         22    1    1    2    0    0 -0.65502930734E+03  0.18926581456E+03 -0.14329262257E+04  0.15868719263E+04  0.00000000000E+00 0. -1.
<mgrwt>
<rscale>  0 0.18899945E+04</rscale>
<asrwt>0</asrwt>
<pdfrwt beam="1">  1        2 0.27516558E+00 0.18899945E+04</pdfrwt>
<pdfrwt beam="2">  1       -2 0.76813979E-01 0.18899945E+04</pdfrwt>
<totfact> 0.12424953E+01</totfact>
</mgrwt>
</event>
<event>
 6    1  0.2236204E-005  0.2007352E+04  0.7818608E-02  0.8603191E-01
          1   -1    0    0  501    0  0.00000000000E+00  0.00000000000E+00  0.32275919998E+04  0.32275919998E+04  0.00000000000E+00 0. -1.
         -1   -1    0    0    0  501 -0.00000000000E+00 -0.00000000000E+00 -0.31211065422E+03  0.31211065422E+03  0.00000000000E+00 0.  1.
         23    2    1    2    0    0  0.55499619401E+03 -0.49474422160E+03  0.26441252447E+04  0.27482313951E+04  0.92654580051E+02 0.  0.
         13    1    3    3    0    0  0.41578977313E+03 -0.31690567681E+03  0.18968107530E+04  0.19675368805E+04  0.00000000000E+00 0.  1.
        -13    1    3    3    0    0  0.13920642088E+03 -0.17783854478E+03  0.74731449165E+03  0.78069451455E+03  0.00000000000E+00 0. -1.
         22    1    1    2    0    0 -0.55499619401E+03  0.49474422160E+03  0.27135610084E+03  0.79147125888E+03  0.00000000000E+00 0.  1.
<mgrwt>
<rscale>  0 0.20073523E+04</rscale>
<asrwt>0</asrwt>
<pdfrwt beam="1">  1        1 0.49655259E+00 0.20073523E+04</pdfrwt>
<pdfrwt beam="2">  1       -1 0.48017026E-01 0.20073523E+04</pdfrwt>
<totfact> 0.16330712E+00</totfact>
</mgrwt>
</event>
<event>
 6    1  0.2236204E-005  0.5634913E+04  0.7818608E-02  0.7737393E-01
          2   -1    0    0  501    0  0.00000000000E+00  0.00000000000E+00  0.16698400482E+04  0.16698400482E+04  0.00000000000E+00 0. -1.
         -2   -1    0    0    0  501 -0.00000000000E+00 -0.00000000000E+00 -0.47537852838E+04  0.47537852838E+04  0.00000000000E+00 0.  1.
         23    2    1    2    0    0  0.24943904094E+03 -0.13212094897E+04  0.12790976347E+04  0.18581070220E+04  0.93040826965E+02 0.  0.
         11    1    3    3    0    0  0.24334704591E+03 -0.12118626153E+04  0.12023440103E+04  0.17243723212E+04  0.00000000000E+00 0.  1.
        -11    1    3    3    0    0  0.60919950298E+01 -0.10934687442E+03  0.76753624380E+02  0.13373470082E+03  0.00000000000E+00 0. -1.
         22    1    1    2    0    0 -0.24943904094E+03  0.13212094897E+04 -0.43630428703E+04  0.45655183100E+04  0.00000000000E+00 0.  1.
<mgrwt>
<rscale>  0 0.56349130E+04</rscale>
<asrwt>0</asrwt>
<pdfrwt beam="1">  1        2 0.25689847E+00 0.56349130E+04</pdfrwt>
<pdfrwt beam="2">  1       -2 0.73135158E+00 0.56349130E+04</pdfrwt>
<totfact> 0.12328238E-03</totfact>
</mgrwt>
</event>
<event>
 6    1  0.2236204E-005  0.1514997E+04  0.7818608E-02  0.8874541E-01
          2   -1    0    0  501    0  0.00000000000E+00  0.00000000000E+00  0.46303493542E+03  0.46303493542E+03  0.00000000000E+00 0. -1.
         -2   -1    0    0    0  501 -0.00000000000E+00 -0.00000000000E+00 -0.12392247111E+04  0.12392247111E+04  0.00000000000E+00 0.  1.
         23    2    1    2    0    0 -0.18200211972E+03 -0.53465064880E+03 -0.95198409970E+03  0.11107533218E+04  0.92320788803E+02 0.  0.
         13    1    3    3    0    0 -0.70576250555E+02 -0.11720694666E+03 -0.18009038300E+03  0.22616591595E+03  0.00000000000E+00 0.  1.
        -13    1    3    3    0    0 -0.11142586917E+03 -0.41744370214E+03 -0.77189371670E+03  0.88458740589E+03  0.00000000000E+00 0. -1.
         22    1    1    2    0    0  0.18200211972E+03  0.53465064880E+03  0.17579432397E+03  0.59150632472E+03  0.00000000000E+00 0. -1.
<mgrwt>
<rscale>  0 0.15149975E+04</rscale>
<asrwt>0</asrwt>
<pdfrwt beam="1">  1        2 0.71236145E-01 0.15149975E+04</pdfrwt>
<pdfrwt beam="2">  1       -2 0.19064995E+00 0.15149975E+04</pdfrwt>
<totfact> 0.99568448E+00</totfact>
</mgrwt>
</event>
<event>
 6    1  0.2236204E-005  0.2235354E+04  0.7818608E-02  0.8503855E-01
         -2   -1    0    0    0  501 -0.00000000000E+00  0.00000000000E+00  0.64849775406E+03  0.64849775406E+03  0.00000000000E+00 0.  1.
          2   -1    0    0  501    0  0.00000000000E+00 -0.00000000000E+00 -0.19263017289E+04  0.19263017289E+04  0.00000000000E+00 0. -1.
         23    2    1    2    0    0  0.60867320778E+03 -0.24095394995E+03 -0.16807526578E+04  0.18060930884E+04  0.92200148945E+02 0.  0.
         11    1    3    3    0    0  0.27669493077E+03 -0.75835989874E+02 -0.64332893463E+03  0.70440279685E+03  0.00000000000E+00 0. -1.
        -11    1    3    3    0    0  0.33197827701E+03 -0.16511796008E+03 -0.10374237232E+04  0.11016902916E+04  0.00000000000E+00 0.  1.
         22    1    1    2    0    0 -0.60867320778E+03  0.24095394995E+03  0.40294868298E+03  0.76870639452E+03  0.00000000000E+00 0.  1.
<mgrwt>
<rscale>  0 0.22353544E+04</rscale>
<asrwt>0</asrwt>
<pdfrwt beam="1">  1        2 0.29635411E+00 0.22353544E+04</pdfrwt>
<pdfrwt beam="2">  1       -2 0.99768885E-01 0.22353544E+04</pdfrwt>
<totfact> 0.55576568E+00</totfact>
</mgrwt>
</event>
<event>
 6    1  0.2236204E-005  0.3705549E+04  0.7818608E-02  0.8066733E-01
          2   -1    0    0  501    0  0.00000000000E+00  0.00000000000E+00  0.21932533209E+04  0.21932533209E+04  0.00000000000E+00 0. -1.
         -2   -1    0    0    0  501 -0.00000000000E+00 -0.00000000000E+00 -0.15651511427E+04  0.15651511427E+04  0.00000000000E+00 0.  1.
         23    2    1    2    0    0 -0.80390843042E+03 -0.13917677029E+04  0.12468402504E+04  0.20361608963E+04  0.89746767436E+02 0.  0.
         11    1    3    3    0    0 -0.76538890013E+03 -0.12870273726E+04  0.11440765847E+04  0.18844550559E+04  0.00000000000E+00 0. -1.
        -11    1    3    3    0    0 -0.38519530290E+02 -0.10474033028E+03  0.10276366574E+03  0.15170584035E+03  0.00000000000E+00 0.  1.
         22    1    1    2    0    0  0.80390843042E+03  0.13917677029E+04 -0.61873807223E+03  0.17222435673E+04  0.00000000000E+00 0.  1.
<mgrwt>
<rscale>  0 0.37055488E+04</rscale>
<asrwt>0</asrwt>
<pdfrwt beam="1">  1        2 0.33742359E+00 0.37055488E+04</pdfrwt>
<pdfrwt beam="2">  1       -2 0.24079248E+00 0.37055488E+04</pdfrwt>
<totfact> 0.30831071E-01</totfact>
</mgrwt>
</event>
<event>
 6    1  0.2236204E-005  0.2985434E+04  0.7818608E-02  0.8247903E-01
          2   -1    0    0  501    0  0.00000000000E+00  0.00000000000E+00  0.20361495812E+04  0.20361495812E+04  0.00000000000E+00 0. -1.
         -2   -1    0    0    0  501 -0.00000000000E+00 -0.00000000000E+00 -0.10943221207E+04  0.10943221207E+04  0.00000000000E+00 0.  1.
         23    2    1    2    0    0 -0.12581382814E+03 -0.41766025740E+03 -0.10240238434E+04  0.11168082347E+04  0.91469072688E+02 0.  0.
         11    1    3    3    0    0 -0.79421793601E+02 -0.13079374873E+03 -0.40586922799E+03  0.43375644806E+03  0.00000000000E+00 0. -1.
        -11    1    3    3    0    0 -0.46392034542E+02 -0.28686650867E+03 -0.61815461541E+03  0.68305178663E+03  0.00000000000E+00 0.  1.
         22    1    1    2    0    0  0.12581382814E+03  0.41766025740E+03  0.19658513039E+04  0.20136634671E+04  0.00000000000E+00 0. -1.
<mgrwt>
<rscale>  0 0.29854337E+04</rscale>
<asrwt>0</asrwt>
<pdfrwt beam="1">  1        2 0.31325378E+00 0.29854337E+04</pdfrwt>
<pdfrwt beam="2">  1       -2 0.16835725E+00 0.29854337E+04</pdfrwt>
<totfact> 0.11971107E+00</totfact>
</mgrwt>
</event>
<event>
 6    1  0.2236204E-005  0.4178279E+04  0.7818608E-02  0.7969517E-01
         -2   -1    0    0    0  501 -0.00000000000E+00  0.00000000000E+00  0.29262752873E+04  0.29262752873E+04  0.00000000000E+00 0.  1.
          2   -1    0    0  501    0  0.00000000000E+00 -0.00000000000E+00 -0.14914880869E+04  0.14914880869E+04  0.00000000000E+00 0. -1.
         23    2    1    2    0    0  0.22002579457E+03  0.91000525834E+03 -0.12557291907E+04  0.15690093710E+04  0.91726142847E+02 0.  0.
         11    1    3    3    0    0  0.13363764719E+03  0.46432076750E+03 -0.57911616720E+03  0.75420708761E+03  0.00000000000E+00 0.  1.
        -11    1    3    3    0    0  0.86388147388E+02  0.44568449083E+03 -0.67661302351E+03  0.81480228335E+03  0.00000000000E+00 0. -1.
         22    1    1    2    0    0 -0.22002579457E+03 -0.91000525834E+03  0.26905163910E+04  0.28487540032E+04  0.00000000000E+00 0.  1.
<mgrwt>
<rscale>  0 0.41782794E+04</rscale>
<asrwt>0</asrwt>
<pdfrwt beam="1">  1        2 0.22945970E+00 0.41782794E+04</pdfrwt>
<pdfrwt beam="2">  1       -2 0.45019620E+00 0.41782794E+04</pdfrwt>
<totfact> 0.34555117E-02</totfact>
</mgrwt>
</event>
<event>
 6    1  0.2236204E-005  0.2147198E+04  0.7818608E-02  0.8540733E-01
         -2   -1    0    0    0  501 -0.00000000000E+00  0.00000000000E+00  0.15744827659E+04  0.15744827659E+04  0.00000000000E+00 0.  1.
          2   -1    0    0  501    0  0.00000000000E+00 -0.00000000000E+00 -0.73205907116E+03  0.73205907116E+03  0.00000000000E+00 0. -1.
         23    2    1    2    0    0 -0.47909297499E+01  0.67698199223E+03 -0.47048479488E+03  0.82936335329E+03  0.90333043595E+02 0.  0.
         13    1    3    3    0    0 -0.42775724779E+02  0.26043633737E+03 -0.16260738758E+03  0.30999679184E+03  0.00000000000E+00 0. -1.
        -13    1    3    3    0    0  0.37984795029E+02  0.41654565485E+03 -0.30787740730E+03  0.51936656145E+03  0.00000000000E+00 0.  1.
         22    1    1    2    0    0  0.47909297499E+01 -0.67698199223E+03  0.13129084896E+04  0.14771784838E+04  0.00000000000E+00 0.  1.
<mgrwt>
<rscale>  0 0.21471976E+04</rscale>
<asrwt>0</asrwt>
<pdfrwt beam="1">  1        2 0.11262447E+00 0.21471976E+04</pdfrwt>
<pdfrwt beam="2">  1       -2 0.24222812E+00 0.21471976E+04</pdfrwt>
<totfact> 0.25482500E+00</totfact>
</mgrwt>
</event>
<event>
 6    1  0.2236204E-005  0.1613361E+04  0.7818608E-02  0.8812382E-01
          2   -1    0    0  501    0  0.00000000000E+00  0.00000000000E+00  0.10718555882E+04  0.10718555882E+04  0.00000000000E+00 0. -1.
         -2   -1    0    0    0  501 -0.00000000000E+00 -0.00000000000E+00 -0.60710912013E+03  0.60710912013E+03  0.00000000000E+00 0.  1.
         23    2    1    2    0    0 -0.63546007433E+03  0.44033309983E+03  0.46264931638E+03  0.90584948867E+03  0.93894415622E+02 0.  0.
         13    1    3    3    0    0 -0.41025781029E+03  0.24860614183E+03  0.32636177829E+03  0.58019694500E+03  0.00000000000E+00 0. -1.
        -13    1    3    3    0    0 -0.22520226404E+03  0.19172695801E+03  0.13628753810E+03  0.32565254367E+03  0.00000000000E+00 0.  1.
         22    1    1    2    0    0  0.63546007433E+03 -0.44033309983E+03  0.20971517164E+01  0.77311521970E+03  0.00000000000E+00 0.  1.
<mgrwt>
<rscale>  0 0.16133608E+04</rscale>
<asrwt>0</asrwt>
<pdfrwt beam="1">  1        2 0.16490086E+00 0.16133608E+04</pdfrwt>
<pdfrwt beam="2">  1       -2 0.93401403E-01 0.16133608E+04</pdfrwt>
<totfact> 0.21072704E+01</totfact>
</mgrwt>
</event>
<event>
 6    1  0.2236204E-005  0.3825915E+04  0.7818608E-02  0.8040616E-01
          2   -1    0    0  501    0  0.00000000000E+00  0.00000000000E+00  0.24029220318E+04  0.24029220318E+04  0.00000000000E+00 0. -1.
         -2   -1    0    0    0  501 -0.00000000000E+00 -0.00000000000E+00 -0.15228984659E+04  0.15228984659E+04  0.00000000000E+00 0.  1.
         23    2    1    2    0    0  0.10921316025E+04  0.44446706866E+03  0.19845656510E+04  0.23101733735E+04  0.89987666203E+02 0.  0.
         13    1    3    3    0    0  0.17011882696E+03  0.10510342507E+03  0.32516945604E+03  0.38173593018E+03  0.00000000000E+00 0. -1.
        -13    1    3    3    0    0  0.92201277554E+03  0.33936364359E+03  0.16593961950E+04  0.19284374433E+04  0.00000000000E+00 0.  1.
         22    1    1    2    0    0 -0.10921316025E+04 -0.44446706866E+03 -0.11045420851E+04  0.16156471242E+04  0.00000000000E+00 0.  1.
<mgrwt>
<rscale>  0 0.38259149E+04</rscale>
<asrwt>0</asrwt>
<pdfrwt beam="1">  1        2 0.36968031E+00 0.38259149E+04</pdfrwt>
<pdfrwt beam="2">  1       -2 0.23429207E+00 0.38259149E+04</pdfrwt>
<totfact> 0.25469463E-01</totfact>
</mgrwt>
</event>
<event>
 6    1  0.2236204E-005  0.2209572E+04  0.7818608E-02  0.8514455E-01
         -2   -1    0    0    0  501 -0.00000000000E+00  0.00000000000E+00  0.54462748022E+03  0.54462748022E+03  0.00000000000E+00 0.  1.
          2   -1    0    0  501    0  0.00000000000E+00 -0.00000000000E+00 -0.22410771146E+04  0.22410771146E+04  0.00000000000E+00 0. -1.
         23    2    1    2    0    0  0.94711023930E+03  0.48427913785E+03 -0.48223579997E+03  0.11714371683E+04  0.90385749475E+02 0.  0.
         11    1    3    3    0    0  0.43374610209E+03  0.26996769632E+03 -0.21541792606E+03  0.55445750152E+03  0.00000000000E+00 0.  1.
        -11    1    3    3    0    0  0.51336413721E+03  0.21431144153E+03 -0.26681787391E+03  0.61697966675E+03  0.00000000000E+00 0. -1.
         22    1    1    2    0    0 -0.94711023930E+03 -0.48427913785E+03 -0.12142138344E+04  0.16142674265E+04  0.00000000000E+00 0. -1.
<mgrwt>
<rscale>  0 0.22095721E+04</rscale>
<asrwt>0</asrwt>
<pdfrwt beam="1">  1        2 0.34478109E+00 0.22095721E+04</pdfrwt>
<pdfrwt beam="2">  1       -2 0.83788845E-01 0.22095721E+04</pdfrwt>
<totfact> 0.55657513E+00</totfact>
</mgrwt>
</event>
<event>
 6    1  0.2236204E-005  0.9723639E+03  0.7818608E-02  0.9339386E-01
          2   -1    0    0  501    0  0.00000000000E+00  0.00000000000E+00  0.20542186603E+03  0.20542186603E+03  0.00000000000E+00 0. -1.
         -2   -1    0    0    0  501 -0.00000000000E+00 -0.00000000000E+00 -0.11506706419E+04  0.11506706419E+04  0.00000000000E+00 0.  1.
         23    2    1    2    0    0  0.27269530980E+03 -0.50525533629E+02 -0.10264567213E+04  0.10671110346E+04  0.90537273292E+02 0.  0.
         13    1    3    3    0    0  0.15555794677E+03 -0.37881785555E+02 -0.42354265307E+03  0.45279320164E+03  0.00000000000E+00 0. -1.
        -13    1    3    3    0    0  0.11713736303E+03 -0.12643748075E+02 -0.60291406822E+03  0.61431783291E+03  0.00000000000E+00 0.  1.
         22    1    1    2    0    0 -0.27269530980E+03  0.50525533629E+02  0.81207945445E+02  0.28898147335E+03  0.00000000000E+00 0. -1.
<mgrwt>
<rscale>  0 0.97236395E+03</rscale>
<asrwt>0</asrwt>
<pdfrwt beam="1">  1        2 0.31603364E-01 0.97236395E+03</pdfrwt>
<pdfrwt beam="2">  1       -2 0.17702625E+00 0.97236395E+03</pdfrwt>
<totfact> 0.31912859E+01</totfact>
</mgrwt>
</event>
<event>
 6    1  0.2236204E-005  0.2251385E+04  0.7818608E-02  0.8497340E-01
          1   -1    0    0  501    0  0.00000000000E+00  0.00000000000E+00  0.31752861243E+04  0.31752861243E+04  0.00000000000E+00 0. -1.
         -1   -1    0    0    0  501 -0.00000000000E+00 -0.00000000000E+00 -0.39907692635E+03  0.39907692635E+03  0.00000000000E+00 0.  1.
         23    2    1    2    0    0  0.14145258315E+03 -0.11071910704E+04  0.15988399296E+04  0.19519946296E+04  0.90072269007E+02 0.  0.
         11    1    3    3    0    0  0.66737879948E+02 -0.73435067391E+03  0.11116750496E+04  0.13339963541E+04  0.00000000000E+00 0.  1.
        -11    1    3    3    0    0  0.74714703197E+02 -0.37284039651E+03  0.48716488001E+03  0.61799827545E+03  0.00000000000E+00 0. -1.
         22    1    1    2    0    0 -0.14145258315E+03  0.11071910704E+04  0.11773692683E+04  0.16223684211E+04  0.00000000000E+00 0. -1.
<mgrwt>
<rscale>  0 0.22513848E+04</rscale>
<asrwt>0</asrwt>
<pdfrwt beam="1">  1        1 0.48850554E+00 0.22513848E+04</pdfrwt>
<pdfrwt beam="2">  1       -1 0.61396452E-01 0.22513848E+04</pdfrwt>
<totfact> 0.10846383E+00</totfact>
</mgrwt>
</event>
<event>
 6    1  0.2236204E-005  0.2415854E+04  0.7818608E-02  0.8433592E-01
         -2   -1    0    0    0  501 -0.00000000000E+00  0.00000000000E+00  0.45499177989E+03  0.45499177989E+03  0.00000000000E+00 0. -1.
          2   -1    0    0  501    0  0.00000000000E+00 -0.00000000000E+00 -0.32068430356E+04  0.32068430356E+04  0.00000000000E+00 0.  1.
         23    2    1    2    0    0  0.28925702598E+03 -0.11572710025E+04 -0.16492459924E+04  0.20374321047E+04  0.90396003629E+02 0.  0.
         11    1    3    3    0    0  0.20688255268E+02 -0.22930884714E+03 -0.31450252702E+03  0.38977222937E+03  0.00000000000E+00 0.  1.
        -11    1    3    3    0    0  0.26856877071E+03 -0.92796215533E+03 -0.13347434654E+04  0.16476598753E+04  0.00000000000E+00 0. -1.
         22    1    1    2    0    0 -0.28925702598E+03  0.11572710025E+04 -0.11026052633E+04  0.16244027108E+04  0.00000000000E+00 0.  1.
<mgrwt>
<rscale>  0 0.24158537E+04</rscale>
<asrwt>0</asrwt>
<pdfrwt beam="1">  1        2 0.49336044E+00 0.24158537E+04</pdfrwt>
<pdfrwt beam="2">  1       -2 0.69998739E-01 0.24158537E+04</pdfrwt>
<totfact> 0.21446601E+00</totfact>
</mgrwt>
</event>
<event>
 6    1  0.2236204E-005  0.2893376E+04  0.7818608E-02  0.8274851E-01
         -2   -1    0    0    0  501 -0.00000000000E+00  0.00000000000E+00  0.13946093123E+04  0.13946093123E+04  0.00000000000E+00 0.  1.
          2   -1    0    0  501    0  0.00000000000E+00 -0.00000000000E+00 -0.15007113525E+04  0.15007113525E+04  0.00000000000E+00 0. -1.
         23    2    1    2    0    0  0.32243815469E+03 -0.30773893653E+03  0.13231104110E+04  0.13982175130E+04  0.75640182246E+02 0.  0.
         13    1    3    3    0    0  0.69699088960E+02 -0.10554195646E+03  0.31589634665E+03  0.34027572555E+03  0.00000000000E+00 0. -1.
        -13    1    3    3    0    0  0.25273906573E+03 -0.20219698008E+03  0.10072140644E+04  0.10579417874E+04  0.00000000000E+00 0.  1.
         22    1    1    2    0    0 -0.32243815469E+03  0.30773893653E+03 -0.14292124512E+04  0.14971031518E+04  0.00000000000E+00 0. -1.
<mgrwt>
<rscale>  0 0.28933759E+04</rscale>
<asrwt>0</asrwt>
<pdfrwt beam="1">  1        2 0.23087867E+00 0.28933759E+04</pdfrwt>
<pdfrwt beam="2">  1       -2 0.21455528E+00 0.28933759E+04</pdfrwt>
<totfact> 0.11724330E+00</totfact>
</mgrwt>
</event>
<event>
 6    1  0.2236204E-005  0.1710766E+04  0.7818608E-02  0.8755248E-01
         -2   -1    0    0    0  501 -0.00000000000E+00  0.00000000000E+00  0.26844421057E+03  0.26844421057E+03  0.00000000000E+00 0.  1.
          2   -1    0    0  501    0  0.00000000000E+00 -0.00000000000E+00 -0.27256312127E+04  0.27256312127E+04  0.00000000000E+00 0. -1.
         23    2    1    2    0    0  0.11400542494E+03 -0.78884172971E+03 -0.70053733372E+03  0.10650636118E+04  0.91320477973E+02 0.  0.
         11    1    3    3    0    0 -0.12845266986E+02 -0.15439128380E+03 -0.12363400838E+03  0.19820957955E+03  0.00000000000E+00 0.  1.
        -11    1    3    3    0    0  0.12685069192E+03 -0.63445044591E+03 -0.57690332535E+03  0.86685403221E+03  0.00000000000E+00 0. -1.
         22    1    1    2    0    0 -0.11400542494E+03  0.78884172971E+03 -0.17566496685E+04  0.19290118116E+04  0.00000000000E+00 0. -1.
<mgrwt>
<rscale>  0 0.17107658E+04</rscale>
<asrwt>0</asrwt>
<pdfrwt beam="1">  1        2 0.41932791E+00 0.17107658E+04</pdfrwt>
<pdfrwt beam="2">  1       -2 0.41299106E-01 0.17107658E+04</pdfrwt>
<totfact> 0.13574514E+01</totfact>
</mgrwt>
</event>
<event>
 6    1  0.2236204E-005  0.3044837E+04  0.7818608E-02  0.8231042E-01
         -2   -1    0    0    0  501 -0.00000000000E+00  0.00000000000E+00  0.71291384631E+03  0.71291384631E+03  0.00000000000E+00 0.  1.
          2   -1    0    0  501    0  0.00000000000E+00 -0.00000000000E+00 -0.32511051812E+04  0.32511051812E+04  0.00000000000E+00 0. -1.
         23    2    1    2    0    0 -0.63065023188E+03  0.12760974201E+04 -0.57270808749E+03  0.15372374683E+04  0.94658015772E+02 0.  0.
         11    1    3    3    0    0 -0.42513631942E+03  0.75964478418E+03 -0.36243650337E+03  0.94295350214E+03  0.00000000000E+00 0.  1.
        -11    1    3    3    0    0 -0.20551391246E+03  0.51645263588E+03 -0.21027158411E+03  0.59428396613E+03  0.00000000000E+00 0. -1.
         22    1    1    2    0    0  0.63065023188E+03 -0.12760974201E+04 -0.19654832474E+04  0.24267815592E+04  0.00000000000E+00 0. -1.
<mgrwt>
<rscale>  0 0.30448369E+04</rscale>
<asrwt>0</asrwt>
<pdfrwt beam="1">  1        2 0.50017003E+00 0.30448369E+04</pdfrwt>
<pdfrwt beam="2">  1       -2 0.10967905E+00 0.30448369E+04</pdfrwt>
<totfact> 0.67683068E-01</totfact>
</mgrwt>
</event>
<event>
 6    1  0.2236204E-005  0.1614389E+04  0.7818608E-02  0.8811757E-01
         -1   -1    0    0    0  501 -0.00000000000E+00  0.00000000000E+00  0.30356151994E+03  0.30356151994E+03  0.00000000000E+00 0.  1.
          1   -1    0    0  501    0  0.00000000000E+00 -0.00000000000E+00 -0.21463960869E+04  0.21463960869E+04  0.00000000000E+00 0. -1.
         23    2    1    2    0    0  0.34307229181E+03 -0.32325123115E+03  0.65486943893E+02  0.48428191013E+03  0.89724427049E+02 0.  0.
         11    1    3    3    0    0  0.67362811018E+02 -0.36172611077E+02 -0.15695525175E+02  0.78054824392E+02  0.00000000000E+00 0. -1.
        -11    1    3    3    0    0  0.27570948079E+03 -0.28707862007E+03  0.81182469068E+02  0.40622708574E+03  0.00000000000E+00 0.  1.
         22    1    1    2    0    0 -0.34307229181E+03  0.32325123115E+03 -0.19083215108E+04  0.19656756967E+04  0.00000000000E+00 0. -1.
<mgrwt>
<rscale>  0 0.16143894E+04</rscale>
<asrwt>0</asrwt>
<pdfrwt beam="1">  1        1 0.33021479E+00 0.16143894E+04</pdfrwt>
<pdfrwt beam="2">  1       -1 0.46701771E-01 0.16143894E+04</pdfrwt>
<totfact> 0.10382120E+01</totfact>
</mgrwt>
</event>
<event>
 6    1  0.2236204E-005  0.2975207E+04  0.7818608E-02  0.8250846E-01
         -2   -1    0    0    0  501 -0.00000000000E+00  0.00000000000E+00  0.13874431749E+04  0.13874431749E+04  0.00000000000E+00 0.  1.
          2   -1    0    0  501    0  0.00000000000E+00 -0.00000000000E+00 -0.15949942390E+04  0.15949942390E+04  0.00000000000E+00 0. -1.
         23    2    1    2    0    0  0.72480765841E+03  0.11076247037E+04  0.57043369492E+03  0.14470420540E+04  0.12789636361E+03 0.  0.
         13    1    3    3    0    0  0.62438476709E+02  0.10509886845E+03  0.95013848426E+02  0.15482883102E+03  0.00000000000E+00 0.  1.
        -13    1    3    3    0    0  0.66236918170E+03  0.10025258352E+04  0.47541984649E+03  0.12922132230E+04  0.00000000000E+00 0. -1.
         22    1    1    2    0    0 -0.72480765841E+03 -0.11076247037E+04 -0.77798475906E+03  0.15353953599E+04  0.00000000000E+00 0. -1.
<mgrwt>
<rscale>  0 0.29752068E+04</rscale>
<asrwt>0</asrwt>
<pdfrwt beam="1">  1        2 0.24538373E+00 0.29752068E+04</pdfrwt>
<pdfrwt beam="2">  1       -2 0.21345280E+00 0.29752068E+04</pdfrwt>
<totfact> 0.10476179E+00</totfact>
</mgrwt>
</event>
<event>
 6    1  0.2236204E-005  0.2063853E+04  0.7818608E-02  0.8577336E-01
         -1   -1    0    0    0  501 -0.00000000000E+00  0.00000000000E+00  0.44262843772E+03  0.44262843772E+03  0.00000000000E+00 0.  1.
          1   -1    0    0  501    0  0.00000000000E+00 -0.00000000000E+00 -0.24057925547E+04  0.24057925547E+04  0.00000000000E+00 0. -1.
         23    2    1    2    0    0  0.45987345421E+03 -0.86387692070E+02  0.28306599034E+03  0.55397201232E+03  0.88386697625E+02 0.  0.
         13    1    3    3    0    0  0.68555887865E+02 -0.45876977651E+02  0.41822159553E+02  0.92486214481E+02  0.00000000000E+00 0. -1.
        -13    1    3    3    0    0  0.39131756635E+03 -0.40510714418E+02  0.24124383079E+03  0.46148579784E+03  0.00000000000E+00 0.  1.
         22    1    1    2    0    0 -0.45987345421E+03  0.86387692070E+02 -0.22462301073E+04  0.22944489801E+04  0.00000000000E+00 0. -1.
<mgrwt>
<rscale>  0 0.20638529E+04</rscale>
<asrwt>0</asrwt>
<pdfrwt beam="1">  1        1 0.37012193E+00 0.20638529E+04</pdfrwt>
<pdfrwt beam="2">  1       -1 0.68096683E-01 0.20638529E+04</pdfrwt>
<totfact> 0.31711491E+00</totfact>
</mgrwt>
</event>
<event>
 6    1  0.2236204E-005  0.3623071E+04  0.7818608E-02  0.8085227E-01
         -1   -1    0    0    0  501 -0.00000000000E+00  0.00000000000E+00  0.77751759942E+03  0.77751759942E+03  0.00000000000E+00 0.  1.
          1   -1    0    0  501    0  0.00000000000E+00 -0.00000000000E+00 -0.42206902770E+04  0.42206902770E+04  0.00000000000E+00 0. -1.
         23    2    1    2    0    0 -0.27028204044E+03 -0.23776975182E+03 -0.41703360605E+04  0.41868180677E+04  0.90309678463E+02 0.  0.
         11    1    3    3    0    0 -0.13121659417E+03 -0.58136626448E+02 -0.15158008000E+04  0.15225799576E+04  0.00000000000E+00 0.  1.
        -11    1    3    3    0    0 -0.13906544627E+03 -0.17963312537E+03 -0.26545352605E+04  0.26642381101E+04  0.00000000000E+00 0. -1.
         22    1    1    2    0    0  0.27028204044E+03  0.23776975182E+03  0.72716338293E+03  0.81138980875E+03  0.00000000000E+00 0.  1.
<mgrwt>
<rscale>  0 0.36230711E+04</rscale>
<asrwt>0</asrwt>
<pdfrwt beam="1">  1        1 0.64933697E+00 0.36230711E+04</pdfrwt>
<pdfrwt beam="2">  1       -1 0.11961809E+00 0.36230711E+04</pdfrwt>
<totfact> 0.30375376E-02</totfact>
</mgrwt>
</event>
<event>
 6    1  0.2708778E-005  0.4732364E+04  0.7818608E-02  0.7871173E-01
          1   -1    0    0  501    0  0.00000000000E+00  0.00000000000E+00  0.16397446037E+04  0.16397446037E+04  0.00000000000E+00 0. -1.
         -1   -1    0    0    0  501 -0.00000000000E+00 -0.00000000000E+00 -0.34144442101E+04  0.34144442101E+04  0.00000000000E+00 0.  1.
         23    2    1    2    0    0 -0.17444670327E+04 -0.11754853075E+04  0.26740953077E+03  0.21224417809E+04  0.91215787984E+02 0.  0.
         13    1    3    3    0    0 -0.11046519440E+04 -0.76622162980E+03  0.13061208839E+03  0.13507076001E+04  0.00000000000E+00 0. -1.
        -13    1    3    3    0    0 -0.63981508866E+03 -0.40926367771E+03  0.13679744238E+03  0.77173418080E+03  0.00000000000E+00 0.  1.
         22    1    1    2    0    0  0.17444670327E+04  0.11754853075E+04 -0.20421091372E+04  0.29317470328E+04  0.00000000000E+00 0.  1.
<mgrwt>
<rscale>  0 0.47323637E+04</rscale>
<asrwt>0</asrwt>
<pdfrwt beam="1">  1        1 0.25226841E+00 0.47323637E+04</pdfrwt>
<pdfrwt beam="2">  1       -1 0.52529910E+00 0.47323637E+04</pdfrwt>
<totfact> 0.40298092E-03</totfact>
</mgrwt>
</event>
<event>
 6    1  0.2236204E-005  0.1595017E+04  0.7818608E-02  0.8823615E-01
          2   -1    0    0  501    0  0.00000000000E+00  0.00000000000E+00  0.16127344847E+04  0.16127344847E+04  0.00000000000E+00 0. -1.
         -2   -1    0    0    0  501 -0.00000000000E+00 -0.00000000000E+00 -0.39437366029E+03  0.39437366029E+03  0.00000000000E+00 0.  1.
         23    2    1    2    0    0  0.34984856791E+03  0.71347052224E+03  0.63625340385E+03  0.10220785740E+04  0.91607919987E+02 0.  0.
         13    1    3    3    0    0  0.34419551144E+03  0.66728771564E+03  0.57807471319E+03  0.94758314652E+03  0.00000000000E+00 0.  1.
        -13    1    3    3    0    0  0.56530564736E+01  0.46182806597E+02  0.58178690660E+02  0.74495427508E+02  0.00000000000E+00 0. -1.
         22    1    1    2    0    0 -0.34984856791E+03 -0.71347052224E+03  0.58210742055E+03  0.98502957095E+03  0.00000000000E+00 0.  1.
<mgrwt>
<rscale>  0 0.15950172E+04</rscale>
<asrwt>0</asrwt>
<pdfrwt beam="1">  1        2 0.24811299E+00 0.15950172E+04</pdfrwt>
<pdfrwt beam="2">  1       -2 0.60672872E-01 0.15950172E+04</pdfrwt>
<totfact> 0.26616020E+01</totfact>
</mgrwt>
</event>
<event>
 6    1  0.2236204E-005  0.2116661E+04  0.7818608E-02  0.8553940E-01
          2   -1    0    0  501    0  0.00000000000E+00  0.00000000000E+00  0.23661230872E+04  0.23661230872E+04  0.00000000000E+00 0. -1.
         -2   -1    0    0    0  501 -0.00000000000E+00 -0.00000000000E+00 -0.47337484950E+03  0.47337484950E+03  0.00000000000E+00 0.  1.
         23    2    1    2    0    0  0.50828379344E+02  0.23116007890E+03  0.23292515628E+04  0.23429562375E+04  0.89513025092E+02 0.  0.
         11    1    3    3    0    0 -0.26693256889E+01  0.16271314107E+03  0.13255101145E+04  0.13354623751E+04  0.00000000000E+00 0. -1.
        -11    1    3    3    0    0  0.53497705033E+02  0.68446937829E+02  0.10037414483E+04  0.10074938624E+04  0.00000000000E+00 0.  1.
         22    1    1    2    0    0 -0.50828379344E+02 -0.23116007890E+03 -0.43650332511E+03  0.49654169921E+03  0.00000000000E+00 0.  1.
<mgrwt>
<rscale>  0 0.21166607E+04</rscale>
<asrwt>0</asrwt>
<pdfrwt beam="1">  1        2 0.36401893E+00 0.21166607E+04</pdfrwt>
<pdfrwt beam="2">  1       -2 0.72826901E-01 0.21166607E+04</pdfrwt>
<totfact> 0.65199919E+00</totfact>
</mgrwt>
</event>
<event>
 6    1  0.2236204E-005  0.2379701E+04  0.7818608E-02  0.8447142E-01
          2   -1    0    0  501    0  0.00000000000E+00  0.00000000000E+00  0.19984022998E+04  0.19984022998E+04  0.00000000000E+00 0. -1.
         -2   -1    0    0    0  501 -0.00000000000E+00 -0.00000000000E+00 -0.70843823403E+03  0.70843823403E+03  0.00000000000E+00 0.  1.
         23    2    1    2    0    0 -0.10748144619E+04  0.13626002972E+03  0.90852646932E+02  0.10907770704E+04  0.88019831270E+02 0.  0.
         13    1    3    3    0    0 -0.43680936843E+03  0.89406712046E+02  0.10124355480E+02  0.44598036625E+03  0.00000000000E+00 0.  1.
        -13    1    3    3    0    0 -0.63800509344E+03  0.46853317674E+02  0.80728291452E+02  0.64479670414E+03  0.00000000000E+00 0. -1.
         22    1    1    2    0    0  0.10748144619E+04 -0.13626002972E+03  0.11991114189E+04  0.16160634635E+04  0.00000000000E+00 0. -1.
<mgrwt>
<rscale>  0 0.23797013E+04</rscale>
<asrwt>0</asrwt>
<pdfrwt beam="1">  1        2 0.30744651E+00 0.23797013E+04</pdfrwt>
<pdfrwt beam="2">  1       -2 0.10899050E+00 0.23797013E+04</pdfrwt>
<totfact> 0.40513186E+00</totfact>
</mgrwt>
</event>
<event>
 6    1  0.2236204E-005  0.2514424E+04  0.7818608E-02  0.8397865E-01
          2   -1    0    0  501    0  0.00000000000E+00  0.00000000000E+00  0.13066800996E+04  0.13066800996E+04  0.00000000000E+00 0.  1.
         -2   -1    0    0    0  501 -0.00000000000E+00 -0.00000000000E+00 -0.12096163937E+04  0.12096163937E+04  0.00000000000E+00 0. -1.
         23    2    1    2    0    0  0.11522396101E+04 -0.11899077370E+03 -0.43468809283E+03  0.12417083642E+04  0.10521882087E+03 0.  0.
         13    1    3    3    0    0  0.89834188317E+03 -0.80874669090E+02 -0.29247144506E+03  0.94820799266E+03  0.00000000000E+00 0.  1.
        -13    1    3    3    0    0  0.25389772695E+03 -0.38116104606E+02 -0.14221664778E+03  0.29350037153E+03  0.00000000000E+00 0. -1.
         22    1    1    2    0    0 -0.11522396101E+04  0.11899077370E+03  0.53175179871E+03  0.12745881291E+04  0.00000000000E+00 0.  1.
<mgrwt>
<rscale>  0 0.25144237E+04</rscale>
<asrwt>0</asrwt>
<pdfrwt beam="1">  1        2 0.20102771E+00 0.25144237E+04</pdfrwt>
<pdfrwt beam="2">  1       -2 0.18609483E+00 0.25144237E+04</pdfrwt>
<totfact> 0.24039906E+00</totfact>
</mgrwt>
</event>
<event>
 6    1  0.2236204E-005  0.2400680E+04  0.7818608E-02  0.8439249E-01
         -2   -1    0    0    0  501 -0.00000000000E+00  0.00000000000E+00  0.16670246441E+04  0.16670246441E+04  0.00000000000E+00 0.  1.
          2   -1    0    0  501    0  0.00000000000E+00 -0.00000000000E+00 -0.86430436778E+03  0.86430436778E+03  0.00000000000E+00 0. -1.
         23    2    1    2    0    0  0.79903613773E+03 -0.64532983017E+03 -0.24960609869E+03  0.10608528514E+04  0.90533025135E+02 0.  0.
         13    1    3    3    0    0  0.27268516312E+03 -0.25244141231E+03 -0.53790260624E+02  0.37546938220E+03  0.00000000000E+00 0.  1.
        -13    1    3    3    0    0  0.52635097462E+03 -0.39288841786E+03 -0.19581583807E+03  0.68538346917E+03  0.00000000000E+00 0. -1.
         22    1    1    2    0    0 -0.79903613773E+03  0.64532983017E+03  0.10523263750E+04  0.14704761605E+04  0.00000000000E+00 0.  1.
<mgrwt>
<rscale>  0 0.24006805E+04</rscale>
<asrwt>0</asrwt>
<pdfrwt beam="1">  1        2 0.13296990E+00 0.24006805E+04</pdfrwt>
<pdfrwt beam="2">  1       -2 0.25646533E+00 0.24006805E+04</pdfrwt>
<totfact> 0.16355604E+00</totfact>
</mgrwt>
</event>
<event>
 6    1  0.2236204E-005  0.1140991E+04  0.7818608E-02  0.9166135E-01
          1   -1    0    0  501    0  0.00000000000E+00  0.00000000000E+00  0.33217002345E+03  0.33217002345E+03  0.00000000000E+00 0. -1.
         -1   -1    0    0    0  501 -0.00000000000E+00 -0.00000000000E+00 -0.97981463349E+03  0.97981463349E+03  0.00000000000E+00 0.  1.
         23    2    1    2    0    0  0.25505538209E+03 -0.46782681733E+03 -0.10376746953E+03  0.55059282424E+03  0.92030383167E+02 0.  0.
         13    1    3    3    0    0  0.38582002132E+02 -0.15619971228E+03 -0.40557084715E+02  0.16592708677E+03  0.00000000000E+00 0.  1.
        -13    1    3    3    0    0  0.21647337995E+03 -0.31162710505E+03 -0.63210384812E+02  0.38466573747E+03  0.00000000000E+00 0. -1.
         22    1    1    2    0    0 -0.25505538209E+03  0.46782681733E+03 -0.54387714051E+03  0.76139183271E+03  0.00000000000E+00 0.  1.
<mgrwt>
<rscale>  0 0.11409909E+04</rscale>
<asrwt>0</asrwt>
<pdfrwt beam="1">  1        1 0.51103081E-01 0.11409909E+04</pdfrwt>
<pdfrwt beam="2">  1       -1 0.15074071E+00 0.11409909E+04</pdfrwt>
<totfact> 0.26251833E+01</totfact>
</mgrwt>
</event>
<event>
 6    1  0.2236204E-005  0.6575294E+03  0.7818608E-02  0.9792753E-01
         -1   -1    0    0    0  501 -0.00000000000E+00  0.00000000000E+00  0.37476783074E+03  0.37476783074E+03  0.00000000000E+00 0.  1.
          1   -1    0    0  501    0  0.00000000000E+00 -0.00000000000E+00 -0.28840848789E+03  0.28840848789E+03  0.00000000000E+00 0. -1.
         23    2    1    2    0    0 -0.46709884477E+02  0.10575794506E+03 -0.25859494441E+03  0.29936315703E+03  0.96852456141E+02 0.  0.
         11    1    3    3    0    0 -0.55771601175E+02  0.48114079088E+02 -0.21279928653E+03  0.22518652813E+03  0.00000000000E+00 0. -1.
        -11    1    3    3    0    0  0.90617166983E+01  0.57643865973E+02 -0.45795657877E+02  0.74176628895E+02  0.00000000000E+00 0.  1.
         22    1    1    2    0    0  0.46709884477E+02 -0.10575794506E+03  0.34495428726E+03  0.36381316160E+03  0.00000000000E+00 0.  1.
<mgrwt>
<rscale>  0 0.65752939E+03</rscale>
<asrwt>0</asrwt>
<pdfrwt beam="1">  1        1 0.44370537E-01 0.65752939E+03</pdfrwt>
<pdfrwt beam="2">  1       -1 0.57656589E-01 0.65752939E+03</pdfrwt>
<totfact> 0.28526880E+02</totfact>
</mgrwt>
</event>
<event>
 6    1  0.2236204E-005  0.2387669E+04  0.7818608E-02  0.8444134E-01
         -2   -1    0    0    0  501 -0.00000000000E+00  0.00000000000E+00  0.10672956493E+04  0.10672956493E+04  0.00000000000E+00 0.  1.
          2   -1    0    0  501    0  0.00000000000E+00 -0.00000000000E+00 -0.13353762377E+04  0.13353762377E+04  0.00000000000E+00 0. -1.
         23    2    1    2    0    0 -0.11612584250E+03  0.68642767336E+03  0.83923900520E+03  0.10946868548E+04  0.96690434383E+02 0.  0.
         11    1    3    3    0    0  0.16044432491E+02  0.10244212492E+03  0.11085014889E+03  0.15178790558E+03  0.00000000000E+00 0. -1.
        -11    1    3    3    0    0 -0.13217027500E+03  0.58398554845E+03  0.72838885632E+03  0.94289894919E+03  0.00000000000E+00 0.  1.
         22    1    1    2    0    0  0.11612584250E+03 -0.68642767336E+03 -0.11073195936E+04  0.13079850322E+04  0.00000000000E+00 0. -1.
<mgrwt>
<rscale>  0 0.23876694E+04</rscale>
<asrwt>0</asrwt>
<pdfrwt beam="1">  1        2 0.20544250E+00 0.23876694E+04</pdfrwt>
<pdfrwt beam="2">  1       -2 0.16419933E+00 0.23876694E+04</pdfrwt>
<totfact> 0.33303551E+00</totfact>
</mgrwt>
</event>
<event>
 6    1  0.2236204E-005  0.9995885E+03  0.7818608E-02  0.9308996E-01
          2   -1    0    0  501    0  0.00000000000E+00  0.00000000000E+00  0.11510621070E+04  0.11510621070E+04  0.00000000000E+00 0. -1.
         -2   -1    0    0    0  501 -0.00000000000E+00 -0.00000000000E+00 -0.21701201515E+03  0.21701201515E+03  0.00000000000E+00 0.  1.
         23    2    1    2    0    0 -0.20946719614E+03 -0.91821424073E+02 -0.13095705577E+03  0.27878632517E+03  0.90908660004E+02 0.  0.
         13    1    3    3    0    0  0.56833877552E+01 -0.14094277918E+02 -0.65481025565E-02  0.15197026330E+02  0.00000000000E+00 0. -1.
        -13    1    3    3    0    0 -0.21515058390E+03 -0.77727146154E+02 -0.13095050767E+03  0.26358929884E+03  0.00000000000E+00 0.  1.
         22    1    1    2    0    0  0.20946719614E+03  0.91821424073E+02  0.10650071476E+04  0.10892877970E+04  0.00000000000E+00 0. -1.
<mgrwt>
<rscale>  0 0.99958853E+03</rscale>
<asrwt>0</asrwt>
<pdfrwt beam="1">  1        2 0.17708647E+00 0.99958853E+03</pdfrwt>
<pdfrwt beam="2">  1       -2 0.33386465E-01 0.99958853E+03</pdfrwt>
<totfact> 0.16943490E+02</totfact>
</mgrwt>
</event>
<event>
 6    1  0.2236204E-005  0.2804400E+04  0.7818608E-02  0.8301904E-01
         -2   -1    0    0    0  501 -0.00000000000E+00  0.00000000000E+00  0.49503109647E+03  0.49503109647E+03  0.00000000000E+00 0.  1.
          2   -1    0    0  501    0  0.00000000000E+00 -0.00000000000E+00 -0.39718015826E+04  0.39718015826E+04  0.00000000000E+00 0. -1.
         23    2    1    2    0    0  0.68157896767E+02 -0.10405348697E+04 -0.32300293530E+04  0.33952733010E+04  0.86213995816E+02 0.  0.
         11    1    3    3    0    0  0.30295421075E+02 -0.89337321416E+02 -0.28308151904E+03  0.29838585080E+03  0.00000000000E+00 0. -1.
        -11    1    3    3    0    0  0.37862475692E+02 -0.95119754828E+03 -0.29469478340E+04  0.30968874502E+04  0.00000000000E+00 0.  1.
         22    1    1    2    0    0 -0.68157896767E+02  0.10405348697E+04 -0.24674113309E+03  0.10715593781E+04  0.00000000000E+00 0.  1.
<mgrwt>
<rscale>  0 0.28044003E+04</rscale>
<asrwt>0</asrwt>
<pdfrwt beam="1">  1        2 0.61104638E+00 0.28044003E+04</pdfrwt>
<pdfrwt beam="2">  1       -2 0.76158632E-01 0.28044003E+04</pdfrwt>
<totfact> 0.48426946E-01</totfact>
</mgrwt>
</event>
<event>
 6    1  0.2236204E-005  0.7244981E+03  0.7818608E-02  0.9676231E-01
         -2   -1    0    0    0  501 -0.00000000000E+00  0.00000000000E+00  0.57637485859E+02  0.57637485859E+02  0.00000000000E+00 0. -1.
          2   -1    0    0  501    0  0.00000000000E+00 -0.00000000000E+00 -0.22767194775E+04  0.22767194775E+04  0.00000000000E+00 0.  1.
         23    2    1    2    0    0 -0.23213568885E+03  0.22795799494E+03 -0.15964755192E+04  0.16318680702E+04  0.91692364172E+02 0.  0.
         11    1    3    3    0    0 -0.20587693161E+02  0.72718504813E+02 -0.34547957385E+03  0.35364950163E+03  0.00000000000E+00 0.  1.
        -11    1    3    3    0    0 -0.21154799569E+03  0.15523949012E+03 -0.12509959453E+04  0.12782185685E+04  0.00000000000E+00 0. -1.
         22    1    1    2    0    0  0.23213568885E+03 -0.22795799494E+03 -0.62260647251E+03  0.70248889323E+03  0.00000000000E+00 0. -1.
<mgrwt>
<rscale>  0 0.72449813E+03</rscale>
<asrwt>0</asrwt>
<pdfrwt beam="1">  1        2 0.35026451E+00 0.72449813E+03</pdfrwt>
<pdfrwt beam="2">  1       -2 0.88673062E-02 0.72449813E+03</pdfrwt>
<totfact> 0.40275323E+02</totfact>
</mgrwt>
</event>
<event>
 6    1  0.2236204E-005  0.8675655E+03  0.7818608E-02  0.9467060E-01
         -1   -1    0    0    0  501 -0.00000000000E+00  0.00000000000E+00  0.13557524257E+03  0.13557524257E+03  0.00000000000E+00 0.  1.
          1   -1    0    0  501    0  0.00000000000E+00 -0.00000000000E+00 -0.13879190937E+04  0.13879190937E+04  0.00000000000E+00 0. -1.
         23    2    1    2    0    0  0.39886896458E+03  0.96973995061E+02 -0.85493184980E+03  0.95214793922E+03  0.84716136107E+02 0.  0.
         11    1    3    3    0    0  0.10820348339E+03  0.31019779703E+02 -0.15648311420E+03  0.19276199206E+03  0.00000000000E+00 0. -1.
        -11    1    3    3    0    0  0.29066548119E+03  0.65954215358E+02 -0.69844873560E+03  0.75938594716E+03  0.00000000000E+00 0.  1.
         22    1    1    2    0    0 -0.39886896458E+03 -0.96973995061E+02 -0.39741200130E+03  0.57134639704E+03  0.00000000000E+00 0.  1.
<mgrwt>
<rscale>  0 0.86756549E+03</rscale>
<asrwt>0</asrwt>
<pdfrwt beam="1">  1        1 0.21352603E+00 0.86756549E+03</pdfrwt>
<pdfrwt beam="2">  1       -1 0.20857728E-01 0.86756549E+03</pdfrwt>
<totfact> 0.15076157E+02</totfact>
</mgrwt>
</event>
<event>
 6    1  0.2236204E-005  0.1977650E+04  0.7818608E-02  0.8617142E-01
          2   -1    0    0  501    0  0.00000000000E+00  0.00000000000E+00  0.20619454307E+04  0.20619454307E+04  0.00000000000E+00 0. -1.
         -2   -1    0    0    0  501 -0.00000000000E+00 -0.00000000000E+00 -0.47420030139E+03  0.47420030139E+03  0.00000000000E+00 0.  1.
         23    2    1    2    0    0  0.41456118329E+03 -0.44328748404E+03  0.17932391670E+04  0.18953707577E+04  0.91426642130E+02 0.  0.
         11    1    3    3    0    0  0.22157036135E+03 -0.23933885758E+03  0.11028427023E+04  0.11500602332E+04  0.00000000000E+00 0. -1.
        -11    1    3    3    0    0  0.19299082194E+03 -0.20394862646E+03  0.69039646468E+03  0.74531052457E+03  0.00000000000E+00 0.  1.
         22    1    1    2    0    0 -0.41456118329E+03  0.44328748404E+03 -0.20549403774E+03  0.64077497434E+03  0.00000000000E+00 0.  1.
<mgrwt>
<rscale>  0 0.19776503E+04</rscale>
<asrwt>0</asrwt>
<pdfrwt beam="1">  1        2 0.31722237E+00 0.19776503E+04</pdfrwt>
<pdfrwt beam="2">  1       -2 0.72953894E-01 0.19776503E+04</pdfrwt>
<totfact> 0.97492047E+00</totfact>
</mgrwt>
</event>
<event>
 6    1  0.2236204E-005  0.1534026E+04  0.7818608E-02  0.8862136E-01
          2   -1    0    0  501    0  0.00000000000E+00  0.00000000000E+00  0.26301971957E+04  0.26301971957E+04  0.00000000000E+00 0. -1.
         -2   -1    0    0    0  501 -0.00000000000E+00 -0.00000000000E+00 -0.22367478673E+03  0.22367478673E+03  0.00000000000E+00 0.  1.
         23    2    1    2    0    0 -0.56377719280E+02  0.13335711711E+03  0.26036106305E+04  0.26093186447E+04  0.93770498005E+02 0.  0.
         13    1    3    3    0    0 -0.74699837153E+02  0.69542959562E+02  0.12898570812E+04  0.12938885496E+04  0.00000000000E+00 0. -1.
        -13    1    3    3    0    0  0.18322117873E+02  0.63814157544E+02  0.13137535493E+04  0.13154300950E+04  0.00000000000E+00 0.  1.
         22    1    1    2    0    0  0.56377719280E+02 -0.13335711711E+03 -0.19708822156E+03  0.24455333772E+03  0.00000000000E+00 0.  1.
<mgrwt>
<rscale>  0 0.15340258E+04</rscale>
<asrwt>0</asrwt>
<pdfrwt beam="1">  1        2 0.40464570E+00 0.15340258E+04</pdfrwt>
<pdfrwt beam="2">  1       -2 0.34411508E-01 0.15340258E+04</pdfrwt>
<totfact> 0.22354753E+01</totfact>
</mgrwt>
</event>
<event>
 6    1  0.2236204E-005  0.9517686E+03  0.7818608E-02  0.9363086E-01
         -2   -1    0    0    0  501 -0.00000000000E+00  0.00000000000E+00  0.12476954021E+03  0.12476954021E+03  0.00000000000E+00 0.  1.
          2   -1    0    0  501    0  0.00000000000E+00 -0.00000000000E+00 -0.18150733701E+04  0.18150733701E+04  0.00000000000E+00 0. -1.
         23    2    1    2    0    0  0.10465862402E+01  0.45249035749E+03 -0.11250893759E+04  0.12158152879E+04  0.87361843155E+02 0.  0.
         13    1    3    3    0    0  0.27077559208E+02  0.10764715175E+03 -0.34736793252E+03  0.36467188545E+03  0.00000000000E+00 0. -1.
        -13    1    3    3    0    0 -0.26030972968E+02  0.34484320573E+03 -0.77772144336E+03  0.85114340247E+03  0.00000000000E+00 0.  1.
         22    1    1    2    0    0 -0.10465862402E+01 -0.45249035749E+03 -0.56521445399E+03  0.72402762237E+03  0.00000000000E+00 0.  1.
<mgrwt>
<rscale>  0 0.95176861E+03</rscale>
<asrwt>0</asrwt>
<pdfrwt beam="1">  1        2 0.27924203E+00 0.95176861E+03</pdfrwt>
<pdfrwt beam="2">  1       -2 0.19195316E-01 0.95176861E+03</pdfrwt>
<totfact> 0.19501722E+02</totfact>
</mgrwt>
</event>
<event>
 6    1  0.2236204E-005  0.3270435E+04  0.7818608E-02  0.8170459E-01
         -2   -1    0    0    0  501 -0.00000000000E+00  0.00000000000E+00  0.15770769736E+04  0.15770769736E+04  0.00000000000E+00 0.  1.
          2   -1    0    0  501    0  0.00000000000E+00 -0.00000000000E+00 -0.16955010765E+04  0.16955010765E+04  0.00000000000E+00 0. -1.
         23    2    1    2    0    0 -0.61779594129E+02 -0.16318967983E+04 -0.63707413025E+01  0.16356724834E+04  0.92086958860E+02 0.  0.
         11    1    3    3    0    0  0.63902301569E+01 -0.60630779519E+03 -0.35820044183E+02  0.60739859493E+03  0.00000000000E+00 0. -1.
        -11    1    3    3    0    0 -0.68169824286E+02 -0.10255890031E+04  0.29449302881E+02  0.10282738884E+04  0.00000000000E+00 0.  1.
         22    1    1    2    0    0  0.61779594129E+02  0.16318967983E+04 -0.11205336168E+03  0.16369055667E+04  0.00000000000E+00 0.  1.
<mgrwt>
<rscale>  0 0.32704347E+04</rscale>
<asrwt>0</asrwt>
<pdfrwt beam="1">  1        2 0.26084632E+00 0.32704347E+04</pdfrwt>
<pdfrwt beam="2">  1       -2 0.24262723E+00 0.32704347E+04</pdfrwt>
<totfact> 0.58927198E-01</totfact>
</mgrwt>
</event>
<event>
 6    1  0.2236204E-005  0.2803019E+04  0.7818608E-02  0.8302332E-01
          2   -1    0    0  501    0  0.00000000000E+00  0.00000000000E+00  0.22108272308E+04  0.22108272308E+04  0.00000000000E+00 0. -1.
         -2   -1    0    0    0  501 -0.00000000000E+00 -0.00000000000E+00 -0.88845887916E+03  0.88845887916E+03  0.00000000000E+00 0.  1.
         23    2    1    2    0    0  0.66267579894E+03  0.10764974244E+04 -0.26886636740E+01  0.12679581729E+04  0.98614299128E+02 0.  0.
         13    1    3    3    0    0  0.64341733710E+03  0.10070138088E+04 -0.13227164396E+02  0.11950889669E+04  0.00000000000E+00 0.  1.
        -13    1    3    3    0    0  0.19258461839E+02  0.69483615594E+02  0.10538500722E+02  0.72869206019E+02  0.00000000000E+00 0. -1.
         22    1    1    2    0    0 -0.66267579894E+03 -0.10764974244E+04  0.13250570153E+04  0.18313279371E+04  0.00000000000E+00 0. -1.
<mgrwt>
<rscale>  0 0.28030191E+04</rscale>
<asrwt>0</asrwt>
<pdfrwt beam="1">  1        2 0.34012727E+00 0.28030191E+04</pdfrwt>
<pdfrwt beam="2">  1       -2 0.13668598E+00 0.28030191E+04</pdfrwt>
<totfact> 0.16927516E+00</totfact>
</mgrwt>
</event>
<event>
 6    1  0.2236204E-005  0.4191402E+04  0.7818608E-02  0.7967010E-01
         -2   -1    0    0    0  501 -0.00000000000E+00  0.00000000000E+00  0.24606133387E+04  0.24606133387E+04  0.00000000000E+00 0.  1.
          2   -1    0    0  501    0  0.00000000000E+00 -0.00000000000E+00 -0.17849056938E+04  0.17849056938E+04  0.00000000000E+00 0. -1.
         23    2    1    2    0    0 -0.52655749554E+03 -0.56655869035E+03  0.23097079260E+04  0.24377003292E+04  0.96853734969E+02 0.  0.
         11    1    3    3    0    0 -0.44823718919E+03 -0.52522084853E+03  0.20726875196E+04  0.21846755071E+04  0.00000000000E+00 0.  1.
        -11    1    3    3    0    0 -0.78320306351E+02 -0.41337841815E+02  0.23702040635E+03  0.25302482206E+03  0.00000000000E+00 0. -1.
         22    1    1    2    0    0  0.52655749554E+03  0.56655869035E+03 -0.16340002810E+04  0.18078187033E+04  0.00000000000E+00 0. -1.
<mgrwt>
<rscale>  0 0.41914020E+04</rscale>
<asrwt>0</asrwt>
<pdfrwt beam="1">  1        2 0.27460087E+00 0.41914020E+04</pdfrwt>
<pdfrwt beam="2">  1       -2 0.37855590E+00 0.41914020E+04</pdfrwt>
<totfact> 0.69883442E-02</totfact>
</mgrwt>
</event>
<event>
 6    1  0.2236204E-005  0.1927769E+04  0.7818608E-02  0.8641156E-01
         -1   -1    0    0    0  501 -0.00000000000E+00  0.00000000000E+00  0.17179166505E+04  0.17179166505E+04  0.00000000000E+00 0.  1.
          1   -1    0    0  501    0  0.00000000000E+00 -0.00000000000E+00 -0.54081413353E+03  0.54081413353E+03  0.00000000000E+00 0. -1.
         23    2    1    2    0    0 -0.55624948171E+03 -0.36898945559E+03 -0.22147958226E+03  0.70902158791E+03  0.89953891110E+02 0.  0.
         13    1    3    3    0    0 -0.44766786837E+03 -0.27808023001E+03 -0.13855558444E+03  0.54491539221E+03  0.00000000000E+00 0. -1.
        -13    1    3    3    0    0 -0.10858161334E+03 -0.90909225576E+02 -0.82923997824E+02  0.16410619570E+03  0.00000000000E+00 0.  1.
         22    1    1    2    0    0  0.55624948171E+03  0.36898945559E+03  0.13985820993E+04  0.15497091962E+04  0.00000000000E+00 0.  1.
<mgrwt>
<rscale>  0 0.19277693E+04</rscale>
<asrwt>0</asrwt>
<pdfrwt beam="1">  1        1 0.83202175E-01 0.19277693E+04</pdfrwt>
<pdfrwt beam="2">  1       -1 0.26429487E+00 0.19277693E+04</pdfrwt>
<totfact> 0.20867994E+00</totfact>
</mgrwt>
</event>
<event>
 6    1  0.2236204E-005  0.2368123E+04  0.7818608E-02  0.8451535E-01
         -2   -1    0    0    0  501 -0.00000000000E+00  0.00000000000E+00  0.17330220020E+04  0.17330220020E+04  0.00000000000E+00 0. -1.
          2   -1    0    0  501    0  0.00000000000E+00 -0.00000000000E+00 -0.80899222404E+03  0.80899222404E+03  0.00000000000E+00 0.  1.
         23    2    1    2    0    0  0.72295359432E+03  0.47646955645E+03  0.13269503061E+04  0.15870115613E+04  0.90130145894E+02 0.  0.
         11    1    3    3    0    0  0.25883477716E+03  0.13619277282E+03  0.39103115846E+03  0.48831268683E+03  0.00000000000E+00 0. -1.
        -11    1    3    3    0    0  0.46411881716E+03  0.34027678363E+03  0.93591914763E+03  0.10986988745E+04  0.00000000000E+00 0.  1.
         22    1    1    2    0    0 -0.72295359432E+03 -0.47646955645E+03 -0.40292052808E+03  0.95500266476E+03  0.00000000000E+00 0.  1.
<mgrwt>
<rscale>  0 0.23681227E+04</rscale>
<asrwt>0</asrwt>
<pdfrwt beam="1">  1        2 0.12446034E+00 0.23681227E+04</pdfrwt>
<pdfrwt beam="2">  1       -2 0.26661877E+00 0.23681227E+04</pdfrwt>
<totfact> 0.15550624E+00</totfact>
</mgrwt>
</event>
<event>
 6    1  0.2236204E-005  0.1767718E+04  0.7818608E-02  0.8723657E-01
         -1   -1    0    0    0  501 -0.00000000000E+00  0.00000000000E+00  0.93034319317E+03  0.93034319317E+03  0.00000000000E+00 0.  1.
          1   -1    0    0  501    0  0.00000000000E+00 -0.00000000000E+00 -0.83969782591E+03  0.83969782591E+03  0.00000000000E+00 0. -1.
         23    2    1    2    0    0 -0.82674637640E+03  0.19973222460E+02 -0.26013105063E+03  0.87173561675E+03  0.91358204366E+02 0.  0.
         13    1    3    3    0    0 -0.48752282549E+03  0.50494258928E+02 -0.17730895104E+03  0.52121649981E+03  0.00000000000E+00 0. -1.
        -13    1    3    3    0    0 -0.33922355091E+03 -0.30521036467E+02 -0.82822099595E+02  0.35051911694E+03  0.00000000000E+00 0.  1.
         22    1    1    2    0    0  0.82674637640E+03 -0.19973222460E+02  0.35077641790E+03  0.89830540233E+03  0.00000000000E+00 0.  1.
<mgrwt>
<rscale>  0 0.17677185E+04</rscale>
<asrwt>0</asrwt>
<pdfrwt beam="1">  1        1 0.12918428E+00 0.17677185E+04</pdfrwt>
<pdfrwt beam="2">  1       -1 0.14312972E+00 0.17677185E+04</pdfrwt>
<totfact> 0.76473430E+00</totfact>
</mgrwt>
</event>
<event>
 6    1  0.2236204E-005  0.3572236E+04  0.7818608E-02  0.8096881E-01
          2   -1    0    0  501    0  0.00000000000E+00  0.00000000000E+00  0.27063116871E+04  0.27063116871E+04  0.00000000000E+00 0. -1.
         -2   -1    0    0    0  501 -0.00000000000E+00 -0.00000000000E+00 -0.11788064705E+04  0.11788064705E+04  0.00000000000E+00 0.  1.
         23    2    1    2    0    0  0.77927332984E+03  0.11584141298E+03 -0.97779402674E+03  0.12588640849E+04  0.89283088990E+02 0.  0.
         11    1    3    3    0    0  0.35405052369E+03  0.73353619470E+02 -0.51123398182E+03  0.62617306791E+03  0.00000000000E+00 0. -1.
        -11    1    3    3    0    0  0.42522280615E+03  0.42487793508E+02 -0.46656004493E+03  0.63269101700E+03  0.00000000000E+00 0.  1.
         22    1    1    2    0    0 -0.77927332984E+03 -0.11584141298E+03  0.25052992433E+04  0.26262540727E+04  0.00000000000E+00 0. -1.
<mgrwt>
<rscale>  0 0.35722361E+04</rscale>
<asrwt>0</asrwt>
<pdfrwt beam="1">  1        2 0.41635564E+00 0.35722361E+04</pdfrwt>
<pdfrwt beam="2">  1       -2 0.18135484E+00 0.35722361E+04</pdfrwt>
<totfact> 0.38153218E-01</totfact>
</mgrwt>
</event>
<event>
 6    1  0.2236204E-005  0.4733455E+04  0.7818608E-02  0.7870994E-01
         -2   -1    0    0    0  501 -0.00000000000E+00  0.00000000000E+00  0.17991141438E+04  0.17991141438E+04  0.00000000000E+00 0.  1.
          2   -1    0    0  501    0  0.00000000000E+00 -0.00000000000E+00 -0.31134203786E+04  0.31134203786E+04  0.00000000000E+00 0. -1.
         23    2    1    2    0    0 -0.64435834092E+03 -0.19291714279E+04 -0.19116646594E+04  0.27926908591E+04  0.88093101994E+02 0.  0.
         13    1    3    3    0    0 -0.42735087053E+03 -0.12185961033E+04 -0.12649356522E+04  0.18076690609E+04  0.00000000000E+00 0. -1.
        -13    1    3    3    0    0 -0.21700747039E+03 -0.71057532454E+03 -0.64672900723E+03  0.98502179816E+03  0.00000000000E+00 0.  1.
         22    1    1    2    0    0  0.64435834092E+03  0.19291714279E+04  0.59735842464E+03  0.21198436634E+04  0.00000000000E+00 0.  1.
<mgrwt>
<rscale>  0 0.47334548E+04</rscale>
<asrwt>0</asrwt>
<pdfrwt beam="1">  1        2 0.47898775E+00 0.47334548E+04</pdfrwt>
<pdfrwt beam="2">  1       -2 0.27678679E+00 0.47334548E+04</pdfrwt>
<totfact> 0.48296025E-02</totfact>
</mgrwt>
</event>
<event>
 6    1  0.2236204E-005  0.4812083E+03  0.7818608E-02  0.1018804E+00
          2   -1    0    0  501    0  0.00000000000E+00  0.00000000000E+00  0.64602982824E+03  0.64602982824E+03  0.00000000000E+00 0. -1.
         -2   -1    0    0    0  501 -0.00000000000E+00 -0.00000000000E+00 -0.89609416023E+02  0.89609416023E+02  0.00000000000E+00 0.  1.
         23    2    1    2    0    0 -0.14473612953E+03  0.18590646755E+02  0.56410271478E+03  0.58951198086E+03  0.89545203167E+02 0.  0.
         11    1    3    3    0    0 -0.32574834108E+02 -0.34175334457E+02  0.16154087712E+03  0.16829892538E+03  0.00000000000E+00 0. -1.
        -11    1    3    3    0    0 -0.11216129542E+03  0.52765981212E+02  0.40256183766E+03  0.42121305548E+03  0.00000000000E+00 0.  1.
         22    1    1    2    0    0  0.14473612953E+03 -0.18590646755E+02 -0.76823025687E+01  0.14612726340E+03  0.00000000000E+00 0.  1.
<mgrwt>
<rscale>  0 0.48120829E+03</rscale>
<asrwt>0</asrwt>
<pdfrwt beam="1">  1        2 0.99389202E-01 0.48120829E+03</pdfrwt>
<pdfrwt beam="2">  1       -2 0.13786064E-01 0.48120829E+03</pdfrwt>
<totfact> 0.18280444E+03</totfact>
</mgrwt>
</event>
<event>
 6    1  0.2236204E-005  0.2279613E+04  0.7818608E-02  0.8486003E-01
         -2   -1    0    0    0  501 -0.00000000000E+00  0.00000000000E+00  0.56493575449E+03  0.56493575449E+03  0.00000000000E+00 0. -1.
          2   -1    0    0  501    0  0.00000000000E+00 -0.00000000000E+00 -0.22996578168E+04  0.22996578168E+04  0.00000000000E+00 0.  1.
         23    2    1    2    0    0 -0.11251987879E+02  0.11054174675E+04 -0.12081064067E+04  0.16400943131E+04  0.91180487996E+02 0.  0.
         13    1    3    3    0    0  0.33749904128E+02  0.24586219891E+03 -0.25393408174E+03  0.35506308560E+03  0.00000000000E+00 0. -1.
        -13    1    3    3    0    0 -0.45001892007E+02  0.85955526854E+03 -0.95417232497E+03  0.12850312275E+04  0.00000000000E+00 0.  1.
         22    1    1    2    0    0  0.11251987879E+02 -0.11054174675E+04 -0.52661565560E+03  0.12244992582E+04  0.00000000000E+00 0. -1.
<mgrwt>
<rscale>  0 0.22796131E+04</rscale>
<asrwt>0</asrwt>
<pdfrwt beam="1">  1        2 0.35379351E+00 0.22796131E+04</pdfrwt>
<pdfrwt beam="2">  1       -2 0.86913194E-01 0.22796131E+04</pdfrwt>
<totfact> 0.47162005E+00</totfact>
</mgrwt>
</event>
<event>
 6    1  0.2236204E-005  0.3035308E+04  0.7818608E-02  0.8233720E-01
          2   -1    0    0  501    0  0.00000000000E+00  0.00000000000E+00  0.10976666953E+04  0.10976666953E+04  0.00000000000E+00 0. -1.
         -2   -1    0    0    0  501 -0.00000000000E+00 -0.00000000000E+00 -0.20983364939E+04  0.20983364939E+04  0.00000000000E+00 0.  1.
         23    2    1    2    0    0  0.53635015071E+03  0.14183108259E+04 -0.49779362397E+03  0.15984545890E+04  0.89339230882E+02 0.  0.
         11    1    3    3    0    0  0.13028610592E+03  0.38473273839E+03 -0.17253081023E+03  0.44131692678E+03  0.00000000000E+00 0.  1.
        -11    1    3    3    0    0  0.40606404479E+03  0.10335780875E+04 -0.32526281375E+03  0.11571376623E+04  0.00000000000E+00 0. -1.
         22    1    1    2    0    0 -0.53635015071E+03 -0.14183108259E+04 -0.50287617460E+03  0.15975486002E+04  0.00000000000E+00 0.  1.
<mgrwt>
<rscale>  0 0.30353083E+04</rscale>
<asrwt>0</asrwt>
<pdfrwt beam="1">  1        2 0.16887180E+00 0.30353083E+04</pdfrwt>
<pdfrwt beam="2">  1       -2 0.32282100E+00 0.30353083E+04</pdfrwt>
<totfact> 0.42906989E-01</totfact>
</mgrwt>
</event>
<event>
 6    1  0.2236204E-005  0.2237365E+04  0.7818608E-02  0.8503035E-01
         -2   -1    0    0    0  501 -0.00000000000E+00  0.00000000000E+00  0.38883185428E+03  0.38883185428E+03  0.00000000000E+00 0.  1.
          2   -1    0    0  501    0  0.00000000000E+00 -0.00000000000E+00 -0.32184870802E+04  0.32184870802E+04  0.00000000000E+00 0. -1.
         23    2    1    2    0    0 -0.61894490553E+03  0.28083246615E+03  0.12406610668E+02  0.68511511663E+03  0.85259186692E+02 0.  0.
         13    1    3    3    0    0 -0.45742934599E+03  0.24371537485E+03  0.25043850641E+02  0.51890845529E+03  0.00000000000E+00 0.  1.
        -13    1    3    3    0    0 -0.16151555954E+03  0.37117091301E+02 -0.12637239973E+02  0.16620666134E+03  0.00000000000E+00 0. -1.
         22    1    1    2    0    0  0.61894490553E+03 -0.28083246615E+03 -0.28420618366E+04  0.29222038179E+04  0.00000000000E+00 0. -1.
<mgrwt>
<rscale>  0 0.22373648E+04</rscale>
<asrwt>0</asrwt>
<pdfrwt beam="1">  1        2 0.49515187E+00 0.22373648E+04</pdfrwt>
<pdfrwt beam="2">  1       -2 0.59820283E-01 0.22373648E+04</pdfrwt>
<totfact> 0.30008583E+00</totfact>
</mgrwt>
</event>
<event>
 6    1  0.2236204E-005  0.1366002E+04  0.7818608E-02  0.8978802E-01
          2   -1    0    0  501    0  0.00000000000E+00  0.00000000000E+00  0.57420594677E+03  0.57420594677E+03  0.00000000000E+00 0. -1.
         -2   -1    0    0    0  501 -0.00000000000E+00 -0.00000000000E+00 -0.81240985782E+03  0.81240985782E+03  0.00000000000E+00 0.  1.
         23    2    1    2    0    0  0.29412097161E+03 -0.18877711391E+03  0.47243231747E+03  0.59468917039E+03  0.91208388404E+02 0.  0.
         11    1    3    3    0    0  0.22356199434E+03 -0.17077437433E+03  0.32216960931E+03  0.42771147916E+03  0.00000000000E+00 0. -1.
        -11    1    3    3    0    0  0.70558977270E+02 -0.18002739576E+02  0.15026270817E+03  0.16697769124E+03  0.00000000000E+00 0.  1.
         22    1    1    2    0    0 -0.29412097161E+03  0.18877711391E+03 -0.71063622852E+03  0.79192663420E+03  0.00000000000E+00 0.  1.
<mgrwt>
<rscale>  0 0.13660023E+04</rscale>
<asrwt>0</asrwt>
<pdfrwt beam="1">  1        2 0.88339377E-01 0.13660023E+04</pdfrwt>
<pdfrwt beam="2">  1       -2 0.12498613E+00 0.13660023E+04</pdfrwt>
<totfact> 0.24462760E+01</totfact>
</mgrwt>
</event>
<event>
 6    1  0.2236204E-005  0.4793107E+04  0.7818608E-02  0.7861240E-01
         -2   -1    0    0    0  501 -0.00000000000E+00  0.00000000000E+00  0.16369570869E+04  0.16369570869E+04  0.00000000000E+00 0.  1.
          2   -1    0    0  501    0  0.00000000000E+00 -0.00000000000E+00 -0.35086247491E+04  0.35086247491E+04  0.00000000000E+00 0. -1.
         23    2    1    2    0    0  0.20200423966E+04  0.39967822163E+02  0.44579907440E+03  0.20710378395E+04  0.91061555438E+02 0.  0.
         11    1    3    3    0    0  0.12352033925E+04  0.34151013408E+02  0.31688580651E+03  0.12756607413E+04  0.00000000000E+00 0. -1.
        -11    1    3    3    0    0  0.78483900414E+03  0.58168087554E+01  0.12891326789E+03  0.79537709819E+03  0.00000000000E+00 0.  1.
         22    1    1    2    0    0 -0.20200423966E+04 -0.39967822163E+02 -0.23174667366E+04  0.30745439965E+04  0.00000000000E+00 0. -1.
<mgrwt>
<rscale>  0 0.47931068E+04</rscale>
<asrwt>0</asrwt>
<pdfrwt beam="1">  1        2 0.53978842E+00 0.47931068E+04</pdfrwt>
<pdfrwt beam="2">  1       -2 0.25183956E+00 0.47931068E+04</pdfrwt>
<totfact> 0.37074184E-02</totfact>
</mgrwt>
</event>
<event>
 6    1  0.2236204E-005  0.1240433E+04  0.7818608E-02  0.9078183E-01
          2   -1    0    0  501    0  0.00000000000E+00  0.00000000000E+00  0.17733889950E+04  0.17733889950E+04  0.00000000000E+00 0. -1.
         -2   -1    0    0    0  501 -0.00000000000E+00 -0.00000000000E+00 -0.21691160488E+03  0.21691160488E+03  0.00000000000E+00 0.  1.
         23    2    1    2    0    0 -0.43457004590E+03  0.43762676032E+03  0.79658612643E+03  0.10116264770E+04  0.92034591424E+02 0.  0.
         11    1    3    3    0    0 -0.30119550579E+03  0.31576935967E+03  0.62649675149E+03  0.76349669340E+03  0.00000000000E+00 0. -1.
        -11    1    3    3    0    0 -0.13337454010E+03  0.12185740065E+03  0.17008937495E+03  0.24812978361E+03  0.00000000000E+00 0.  1.
         22    1    1    2    0    0  0.43457004590E+03 -0.43762676032E+03  0.75989126371E+03  0.97867412288E+03  0.00000000000E+00 0. -1.
<mgrwt>
<rscale>  0 0.12404332E+04</rscale>
<asrwt>0</asrwt>
<pdfrwt beam="1">  1        2 0.27282907E+00 0.12404332E+04</pdfrwt>
<pdfrwt beam="2">  1       -2 0.33371017E-01 0.12404332E+04</pdfrwt>
<totfact> 0.73718263E+01</totfact>
</mgrwt>
</event>
<event>
 6    1  0.2236204E-005  0.7363181E+03  0.7818608E-02  0.9657063E-01
          2   -1    0    0  501    0  0.00000000000E+00  0.00000000000E+00  0.25061092787E+04  0.25061092787E+04  0.00000000000E+00 0. -1.
         -2   -1    0    0    0  501 -0.00000000000E+00 -0.00000000000E+00 -0.54084266446E+02  0.54084266446E+02  0.00000000000E+00 0.  1.
         23    2    1    2    0    0 -0.63938223395E+02  0.16071243292E+03  0.23526145967E+04  0.23606966449E+04  0.90424697974E+02 0.  0.
         13    1    3    3    0    0 -0.32748740857E+02  0.16220785422E+02  0.22456794994E+03  0.22752221441E+03  0.00000000000E+00 0.  1.
        -13    1    3    3    0    0 -0.31189482537E+02  0.14449164750E+03  0.21280466467E+04  0.21331744304E+04  0.00000000000E+00 0. -1.
         22    1    1    2    0    0  0.63938223395E+02 -0.16071243292E+03  0.99410415601E+02  0.19949690032E+03  0.00000000000E+00 0.  1.
<mgrwt>
<rscale>  0 0.73631809E+03</rscale>
<asrwt>0</asrwt>
<pdfrwt beam="1">  1        2 0.38555518E+00 0.73631809E+03</pdfrwt>
<pdfrwt beam="2">  1       -2 0.83206583E-02 0.73631809E+03</pdfrwt>
<totfact> 0.33157654E+02</totfact>
</mgrwt>
</event>
<event>
 6    1  0.2236204E-005  0.1039927E+04  0.7818608E-02  0.9265806E-01
         -2   -1    0    0    0  501 -0.00000000000E+00  0.00000000000E+00  0.33823024205E+03  0.33823024205E+03  0.00000000000E+00 0.  1.
          2   -1    0    0  501    0  0.00000000000E+00 -0.00000000000E+00 -0.79934334029E+03  0.79934334029E+03  0.00000000000E+00 0. -1.
         23    2    1    2    0    0  0.19724838737E+03 -0.63185668504E+02 -0.74936004050E+03  0.78262900252E+03  0.89823884692E+02 0.  0.
         13    1    3    3    0    0  0.14225648750E+03 -0.61810192033E+02 -0.40098438063E+03  0.42993706701E+03  0.00000000000E+00 0. -1.
        -13    1    3    3    0    0  0.54991899864E+02 -0.13754764715E+01 -0.34837565987E+03  0.35269193551E+03  0.00000000000E+00 0.  1.
         22    1    1    2    0    0 -0.19724838737E+03  0.63185668504E+02  0.28824694227E+03  0.35494457983E+03  0.00000000000E+00 0.  1.
<mgrwt>
<rscale>  0 0.10399271E+04</rscale>
<asrwt>0</asrwt>
<pdfrwt beam="1">  1        2 0.12297590E+00 0.10399271E+04</pdfrwt>
<pdfrwt beam="2">  1       -2 0.52035422E-01 0.10399271E+04</pdfrwt>
<totfact> 0.11980288E+02</totfact>
</mgrwt>
</event>
<event>
 6    1  0.2236204E-005  0.1192184E+04  0.7818608E-02  0.9119725E-01
          2   -1    0    0  501    0  0.00000000000E+00  0.00000000000E+00  0.17079083134E+04  0.17079083134E+04  0.00000000000E+00 0. -1.
         -2   -1    0    0    0  501 -0.00000000000E+00 -0.00000000000E+00 -0.20804734570E+03  0.20804734570E+03  0.00000000000E+00 0.  1.
         23    2    1    2    0    0 -0.20773830656E+03  0.51712854150E+03  0.43085436442E+03  0.71040505864E+03  0.91993105996E+02 0.  0.
         13    1    3    3    0    0 -0.10768494391E+03  0.16943920943E+03  0.18477732748E+03  0.27285225597E+03  0.00000000000E+00 0. -1.
        -13    1    3    3    0    0 -0.10005336265E+03  0.34768933207E+03  0.24607703694E+03  0.43755280267E+03  0.00000000000E+00 0.  1.
         22    1    1    2    0    0  0.20773830656E+03 -0.51712854150E+03  0.10690066033E+04  0.12055506005E+04  0.00000000000E+00 0. -1.
<mgrwt>
<rscale>  0 0.11921842E+04</rscale>
<asrwt>0</asrwt>
<pdfrwt beam="1">  1        2 0.26275512E+00 0.11921842E+04</pdfrwt>
<pdfrwt beam="2">  1       -2 0.32007285E-01 0.11921842E+04</pdfrwt>
<totfact> 0.87014827E+01</totfact>
</mgrwt>
</event>
<event>
 6    1  0.2236204E-005  0.2275503E+04  0.7818608E-02  0.8487643E-01
          2   -1    0    0  501    0  0.00000000000E+00  0.00000000000E+00  0.12515798506E+04  0.12515798506E+04  0.00000000000E+00 0.  1.
         -2   -1    0    0    0  501 -0.00000000000E+00 -0.00000000000E+00 -0.10342752514E+04  0.10342752514E+04  0.00000000000E+00 0. -1.
         23    2    1    2    0    0  0.70769760438E+03  0.78220056639E+03  0.53205117835E+03  0.11850649156E+04  0.92880420848E+02 0.  0.
         11    1    3    3    0    0  0.45363060009E+02  0.88247700178E+02  0.59410797906E+02  0.11565079640E+03  0.00000000000E+00 0. -1.
        -11    1    3    3    0    0  0.66233454437E+03  0.69395286621E+03  0.47264038045E+03  0.10694141192E+04  0.00000000000E+00 0.  1.
         22    1    1    2    0    0 -0.70769760438E+03 -0.78220056639E+03 -0.31474657918E+03  0.11007901864E+04  0.00000000000E+00 0.  1.
<mgrwt>
<rscale>  0 0.22755026E+04</rscale>
<asrwt>0</asrwt>
<pdfrwt beam="1">  1        2 0.19255075E+00 0.22755026E+04</pdfrwt>
<pdfrwt beam="2">  1       -2 0.15911927E+00 0.22755026E+04</pdfrwt>
<totfact> 0.41002292E+00</totfact>
</mgrwt>
</event>
<event>
 6    1  0.2236204E-005  0.1180665E+04  0.7818608E-02  0.9129951E-01
         -4   -1    0    0    0  501 -0.00000000000E+00  0.00000000000E+00  0.33989368663E+03  0.33989368663E+03  0.00000000000E+00 0. -1.
          4   -1    0    0  501    0  0.00000000000E+00 -0.00000000000E+00 -0.10252986508E+04  0.10252986508E+04  0.00000000000E+00 0.  1.
         23    2    1    2    0    0  0.16541594263E+03  0.54394507290E+03 -0.17745028769E+03  0.60279045539E+03  0.92892691305E+02 0.  0.
         13    1    3    3    0    0  0.13508644189E+03  0.51386880324E+03 -0.15029589189E+03  0.55217601255E+03  0.00000000000E+00 0. -1.
        -13    1    3    3    0    0  0.30329500740E+02  0.30076269664E+02 -0.27154395802E+02  0.50614442835E+02  0.00000000000E+00 0.  1.
         22    1    1    2    0    0 -0.16541594263E+03 -0.54394507290E+03 -0.50795467653E+03  0.76240188209E+03  0.00000000000E+00 0.  1.
<mgrwt>
<rscale>  0 0.11806651E+04</rscale>
<asrwt>0</asrwt>
<pdfrwt beam="1">  1        4 0.15773825E+00 0.11806651E+04</pdfrwt>
<pdfrwt beam="2">  1       -4 0.52291337E-01 0.11806651E+04</pdfrwt>
<totfact> 0.18005210E+00</totfact>
</mgrwt>
</event>
<event>
 6    1  0.2236204E-005  0.1954719E+04  0.7818608E-02  0.8628088E-01
         -2   -1    0    0    0  501 -0.00000000000E+00  0.00000000000E+00  0.10845201156E+04  0.10845201156E+04  0.00000000000E+00 0.  1.
          2   -1    0    0  501    0  0.00000000000E+00 -0.00000000000E+00 -0.88078765882E+03  0.88078765882E+03  0.00000000000E+00 0. -1.
         23    2    1    2    0    0  0.49417807032E+03 -0.79927572052E+03  0.36462239731E+03  0.10119247373E+04  0.89378625457E+02 0.  0.
         13    1    3    3    0    0  0.20424220959E+03 -0.39216236063E+03  0.20393912943E+03  0.48692644803E+03  0.00000000000E+00 0.  1.
        -13    1    3    3    0    0  0.28993586073E+03 -0.40711335989E+03  0.16068326788E+03  0.52499828925E+03  0.00000000000E+00 0. -1.
         22    1    1    2    0    0 -0.49417807032E+03  0.79927572052E+03 -0.16088994052E+03  0.95338303717E+03  0.00000000000E+00 0.  1.
<mgrwt>
<rscale>  0 0.19547193E+04</rscale>
<asrwt>0</asrwt>
<pdfrwt beam="1">  1        2 0.13550579E+00 0.19547193E+04</pdfrwt>
<pdfrwt beam="2">  1       -2 0.16684925E+00 0.19547193E+04</pdfrwt>
<totfact> 0.63237845E+00</totfact>
</mgrwt>
</event>
<event>
 6    1  0.2236204E-005  0.1795551E+04  0.7818608E-02  0.8708669E-01
         -2   -1    0    0    0  501 -0.00000000000E+00  0.00000000000E+00  0.68899496783E+03  0.68899496783E+03  0.00000000000E+00 0. -1.
          2   -1    0    0  501    0  0.00000000000E+00 -0.00000000000E+00 -0.11698209766E+04  0.11698209766E+04  0.00000000000E+00 0.  1.
         23    2    1    2    0    0  0.52746591254E+03  0.72159898768E+03 -0.18967071701E+03  0.91876446082E+03  0.96061260007E+02 0.  0.
         11    1    3    3    0    0  0.29865598384E+03  0.47332326668E+03 -0.14535548550E+03  0.57823743275E+03  0.00000000000E+00 0. -1.
        -11    1    3    3    0    0  0.22880992869E+03  0.24827572100E+03 -0.44315231509E+02  0.34052702807E+03  0.00000000000E+00 0.  1.
         22    1    1    2    0    0 -0.52746591254E+03 -0.72159898768E+03 -0.29115529175E+03  0.94005148360E+03  0.00000000000E+00 0.  1.
<mgrwt>
<rscale>  0 0.17955509E+04</rscale>
<asrwt>0</asrwt>
<pdfrwt beam="1">  1        2 0.17997246E+00 0.17955509E+04</pdfrwt>
<pdfrwt beam="2">  1       -2 0.10599923E+00 0.17955509E+04</pdfrwt>
<totfact> 0.13403563E+01</totfact>
</mgrwt>
</event>
<event>
 6    1  0.2236204E-005  0.1914744E+04  0.7818608E-02  0.8647552E-01
         -2   -1    0    0    0  501 -0.00000000000E+00  0.00000000000E+00  0.27837743432E+03  0.27837743432E+03  0.00000000000E+00 0.  1.
          2   -1    0    0  501    0  0.00000000000E+00 -0.00000000000E+00 -0.32925106845E+04  0.32925106845E+04  0.00000000000E+00 0. -1.
         23    2    1    2    0    0 -0.12599654060E+03  0.78834970312E+03 -0.24886032916E+04  0.26150889139E+04  0.90406317699E+02 0.  0.
         13    1    3    3    0    0 -0.21352840886E+02  0.33104941595E+03 -0.11357787180E+04  0.11832341087E+04  0.00000000000E+00 0. -1.
        -13    1    3    3    0    0 -0.10464369971E+03  0.45730028717E+03 -0.13528245736E+04  0.14318548053E+04  0.00000000000E+00 0.  1.
         22    1    1    2    0    0  0.12599654060E+03 -0.78834970312E+03 -0.52552995857E+03  0.95579920486E+03  0.00000000000E+00 0.  1.
<mgrwt>
<rscale>  0 0.19147435E+04</rscale>
<asrwt>0</asrwt>
<pdfrwt beam="1">  1        2 0.50654010E+00 0.19147435E+04</pdfrwt>
<pdfrwt beam="2">  1       -2 0.42827298E-01 0.19147435E+04</pdfrwt>
<totfact> 0.54749427E+00</totfact>
</mgrwt>
</event>
<event>
 6    1  0.2236204E-005  0.1436338E+04  0.7818608E-02  0.8927927E-01
         -2   -1    0    0    0  501 -0.00000000000E+00  0.00000000000E+00  0.43348069675E+03  0.43348069675E+03  0.00000000000E+00 0.  1.
          2   -1    0    0  501    0  0.00000000000E+00 -0.00000000000E+00 -0.11898261774E+04  0.11898261774E+04  0.00000000000E+00 0. -1.
         23    2    1    2    0    0  0.55015970228E+03  0.39053171953E+03 -0.11108668492E+03  0.68973864664E+03  0.90600370464E+02 0.  0.
         13    1    3    3    0    0  0.33264400162E+03  0.18226131542E+03 -0.71803360920E+02  0.38604007765E+03  0.00000000000E+00 0.  1.
        -13    1    3    3    0    0  0.21751570066E+03  0.20827040410E+03 -0.39283324001E+02  0.30369856898E+03  0.00000000000E+00 0. -1.
         22    1    1    2    0    0 -0.55015970228E+03 -0.39053171953E+03 -0.64525879572E+03  0.93356822751E+03  0.00000000000E+00 0. -1.
<mgrwt>
<rscale>  0 0.14363380E+04</rscale>
<asrwt>0</asrwt>
<pdfrwt beam="1">  1        2 0.18305018E+00 0.14363380E+04</pdfrwt>
<pdfrwt beam="2">  1       -2 0.66689338E-01 0.14363380E+04</pdfrwt>
<totfact> 0.38518343E+01</totfact>
</mgrwt>
</event>
<event>
 6    1  0.2236204E-005  0.8450017E+03  0.7818608E-02  0.9497070E-01
          2   -1    0    0  501    0  0.00000000000E+00  0.00000000000E+00  0.58832913443E+03  0.58832913443E+03  0.00000000000E+00 0. -1.
         -2   -1    0    0    0  501 -0.00000000000E+00 -0.00000000000E+00 -0.30341346404E+03  0.30341346404E+03  0.00000000000E+00 0.  1.
         23    2    1    2    0    0  0.17900968001E+03  0.21433391665E+03  0.47220004439E+03  0.55550023037E+03  0.87316267977E+02 0.  0.
         13    1    3    3    0    0  0.14896410368E+03  0.12454724773E+03  0.35696776827E+03  0.40635982662E+03  0.00000000000E+00 0. -1.
        -13    1    3    3    0    0  0.30045576327E+02  0.89786668910E+02  0.11523227612E+03  0.14914040375E+03  0.00000000000E+00 0.  1.
         22    1    1    2    0    0 -0.17900968001E+03 -0.21433391665E+03 -0.18728437400E+03  0.33624236810E+03  0.00000000000E+00 0.  1.
<mgrwt>
<rscale>  0 0.84500173E+03</rscale>
<asrwt>0</asrwt>
<pdfrwt beam="1">  1        2 0.90512174E-01 0.84500173E+03</pdfrwt>
<pdfrwt beam="2">  1       -2 0.46678995E-01 0.84500173E+03</pdfrwt>
<totfact> 0.22213058E+02</totfact>
</mgrwt>
</event>
<event>
 6    1  0.2236204E-005  0.1855455E+04  0.7818608E-02  0.8677352E-01
         -2   -1    0    0    0  501 -0.00000000000E+00  0.00000000000E+00  0.13296059008E+04  0.13296059008E+04  0.00000000000E+00 0.  1.
          2   -1    0    0  501    0  0.00000000000E+00 -0.00000000000E+00 -0.64731849826E+03  0.64731849826E+03  0.00000000000E+00 0. -1.
         23    2    1    2    0    0  0.89056619804E+03  0.15255366132E+03  0.12870125506E+03  0.91728370742E+03  0.92003337783E+02 0.  0.
         13    1    3    3    0    0  0.25929371965E+03  0.39533336262E+02  0.79572276251E+02  0.27409462759E+03  0.00000000000E+00 0. -1.
        -13    1    3    3    0    0  0.63127247839E+03  0.11302032506E+03  0.49128978814E+02  0.64318907983E+03  0.00000000000E+00 0.  1.
         22    1    1    2    0    0 -0.89056619804E+03 -0.15255366132E+03  0.55358614746E+03  0.10596406916E+04  0.00000000000E+00 0.  1.
<mgrwt>
<rscale>  0 0.18554552E+04</rscale>
<asrwt>0</asrwt>
<pdfrwt beam="1">  1        2 0.99587461E-01 0.18554552E+04</pdfrwt>
<pdfrwt beam="2">  1       -2 0.20455475E+00 0.18554552E+04</pdfrwt>
<totfact> 0.52711077E+00</totfact>
</mgrwt>
</event>
<event>
 6    1  0.2236204E-005  0.9743473E+03  0.7818608E-02  0.9337136E-01
         -2   -1    0    0    0  501 -0.00000000000E+00  0.00000000000E+00  0.28041849095E+03  0.28041849095E+03  0.00000000000E+00 0.  1.
          2   -1    0    0  501    0  0.00000000000E+00 -0.00000000000E+00 -0.84637127474E+03  0.84637127474E+03  0.00000000000E+00 0. -1.
         23    2    1    2    0    0 -0.22716199072E+03  0.12987948958E+03  0.18396789723E+03  0.33252766811E+03  0.90880201390E+02 0.  0.
         13    1    3    3    0    0 -0.19394653088E+03  0.86179404365E+02  0.10614645780E+03  0.23729563225E+03  0.00000000000E+00 0. -1.
        -13    1    3    3    0    0 -0.33215459836E+02  0.43700085218E+02  0.77821439429E+02  0.95232035865E+02  0.00000000000E+00 0.  1.
         22    1    1    2    0    0  0.22716199072E+03 -0.12987948958E+03 -0.74992068102E+03  0.79426209759E+03  0.00000000000E+00 0. -1.
<mgrwt>
<rscale>  0 0.97434728E+03</rscale>
<asrwt>0</asrwt>
<pdfrwt beam="1">  1        2 0.13021096E+00 0.97434728E+03</pdfrwt>
<pdfrwt beam="2">  1       -2 0.43141307E-01 0.97434728E+03</pdfrwt>
<totfact> 0.16249787E+02</totfact>
</mgrwt>
</event>
<event>
 6    1  0.2236204E-005  0.2753982E+04  0.7818608E-02  0.8317699E-01
          2   -1    0    0  501    0  0.00000000000E+00  0.00000000000E+00  0.14350522569E+04  0.14350522569E+04  0.00000000000E+00 0. -1.
         -2   -1    0    0    0  501 -0.00000000000E+00 -0.00000000000E+00 -0.13212791453E+04  0.13212791453E+04  0.00000000000E+00 0.  1.
         23    2    1    2    0    0 -0.36709173745E+03 -0.48570691351E+03  0.12913353905E+04  0.14306917564E+04  0.93082014984E+02 0.  0.
         13    1    3    3    0    0 -0.60725740654E+02 -0.32556350608E+02  0.14441954207E+03  0.16001417336E+03  0.00000000000E+00 0.  1.
        -13    1    3    3    0    0 -0.30636599680E+03 -0.45315056290E+03  0.11469158485E+04  0.12706775831E+04  0.00000000000E+00 0. -1.
         22    1    1    2    0    0  0.36709173745E+03  0.48570691351E+03 -0.11775622789E+04  0.13256396457E+04  0.00000000000E+00 0.  1.
<mgrwt>
<rscale>  0 0.27539823E+04</rscale>
<asrwt>0</asrwt>
<pdfrwt beam="1">  1        2 0.22077727E+00 0.27539823E+04</pdfrwt>
<pdfrwt beam="2">  1       -2 0.20327371E+00 0.27539823E+04</pdfrwt>
<totfact> 0.15280559E+00</totfact>
</mgrwt>
</event>
<event>
 6    1  0.2236204E-005  0.1909698E+04  0.7818608E-02  0.8650044E-01
         -2   -1    0    0    0  501 -0.00000000000E+00  0.00000000000E+00  0.49665625658E+03  0.49665625658E+03  0.00000000000E+00 0.  1.
          2   -1    0    0  501    0  0.00000000000E+00 -0.00000000000E+00 -0.18357505459E+04  0.18357505459E+04  0.00000000000E+00 0. -1.
         23    2    1    2    0    0 -0.24103822144E+03 -0.34468062463E+03 -0.17154659857E+04  0.17679957722E+04  0.77982979812E+02 0.  0.
         13    1    3    3    0    0 -0.11303443791E+03 -0.10203510813E+03 -0.55146798185E+03  0.57210565672E+03  0.00000000000E+00 0.  1.
        -13    1    3    3    0    0 -0.12800378354E+03 -0.24264551650E+03 -0.11639980039E+04  0.11958901155E+04  0.00000000000E+00 0. -1.
         22    1    1    2    0    0  0.24103822144E+03  0.34468062463E+03  0.37637169644E+03  0.56441103025E+03  0.00000000000E+00 0.  1.
<mgrwt>
<rscale>  0 0.19096984E+04</rscale>
<asrwt>0</asrwt>
<pdfrwt beam="1">  1        2 0.28242316E+00 0.19096984E+04</pdfrwt>
<pdfrwt beam="2">  1       -2 0.76408655E-01 0.19096984E+04</pdfrwt>
<totfact> 0.11817982E+01</totfact>
</mgrwt>
</event>
<event>
 6    1  0.2236204E-005  0.1003903E+04  0.7818608E-02  0.9304274E-01
         -2   -1    0    0    0  501 -0.00000000000E+00  0.00000000000E+00  0.21415377857E+03  0.21415377857E+03  0.00000000000E+00 0.  1.
          2   -1    0    0  501    0  0.00000000000E+00 -0.00000000000E+00 -0.11765169543E+04  0.11765169543E+04  0.00000000000E+00 0. -1.
         23    2    1    2    0    0 -0.33058741316E+03 -0.31832337821E+03 -0.75145556166E+03  0.88559664666E+03  0.94753092692E+02 0.  0.
         11    1    3    3    0    0 -0.26795198381E+02 -0.25557459463E+01 -0.22501048758E+02  0.35082925887E+02  0.00000000000E+00 0. -1.
        -11    1    3    3    0    0 -0.30379221478E+03 -0.31576763226E+03 -0.72895451290E+03  0.85051372078E+03  0.00000000000E+00 0.  1.
         22    1    1    2    0    0  0.33058741316E+03  0.31832337821E+03 -0.21090761403E+03  0.50507408616E+03  0.00000000000E+00 0.  1.
<mgrwt>
<rscale>  0 0.10039035E+04</rscale>
<asrwt>0</asrwt>
<pdfrwt beam="1">  1        2 0.18100261E+00 0.10039035E+04</pdfrwt>
<pdfrwt beam="2">  1       -2 0.32946736E-01 0.10039035E+04</pdfrwt>
<totfact> 0.16766327E+02</totfact>
</mgrwt>
</event>
<event>
 6    1  0.2236204E-005  0.3306389E+04  0.7818608E-02  0.8161272E-01
          2   -1    0    0  501    0  0.00000000000E+00  0.00000000000E+00  0.39691844532E+04  0.39691844532E+04  0.00000000000E+00 0. -1.
         -2   -1    0    0    0  501 -0.00000000000E+00 -0.00000000000E+00 -0.68856750987E+03  0.68856750987E+03  0.00000000000E+00 0.  1.
         23    2    1    2    0    0  0.80500673190E+03  0.10335546648E+04  0.22439049644E+03  0.13325766025E+04  0.95594054138E+02 0.  0.
         11    1    3    3    0    0  0.16117466611E+03  0.26831690533E+03  0.38015541281E+02  0.31530368862E+03  0.00000000000E+00 0.  1.
        -11    1    3    3    0    0  0.64383206579E+03  0.76523775949E+03  0.18637495516E+03  0.10172729139E+04  0.00000000000E+00 0. -1.
         22    1    1    2    0    0 -0.80500673190E+03 -0.10335546648E+04  0.30562264469E+04  0.33251753605E+04  0.00000000000E+00 0. -1.
<mgrwt>
<rscale>  0 0.33063886E+04</rscale>
<asrwt>0</asrwt>
<pdfrwt beam="1">  1        2 0.61064375E+00 0.33063886E+04</pdfrwt>
<pdfrwt beam="2">  1       -2 0.10593347E+00 0.33063886E+04</pdfrwt>
<totfact> 0.21716672E-01</totfact>
</mgrwt>
</event>
<event>
 6    1  0.2236204E-005  0.3244371E+04  0.7818608E-02  0.8177196E-01
         -2   -1    0    0    0  501 -0.00000000000E+00  0.00000000000E+00  0.14557857582E+04  0.14557857582E+04  0.00000000000E+00 0.  1.
          2   -1    0    0  501    0  0.00000000000E+00 -0.00000000000E+00 -0.18076047819E+04  0.18076047819E+04  0.00000000000E+00 0. -1.
         23    2    1    2    0    0  0.10340558844E+04  0.30204049667E+03  0.10419612379E+04  0.15018220767E+04  0.96365424993E+02 0.  0.
         11    1    3    3    0    0  0.45037294314E+03  0.12484497227E+03  0.38682988649E+03  0.60667900581E+03  0.00000000000E+00 0. -1.
        -11    1    3    3    0    0  0.58368294125E+03  0.17719552440E+03  0.65513135138E+03  0.89514307088E+03  0.00000000000E+00 0.  1.
         22    1    1    2    0    0 -0.10340558844E+04 -0.30204049667E+03 -0.13937802616E+04  0.17615684634E+04  0.00000000000E+00 0. -1.
<mgrwt>
<rscale>  0 0.32443707E+04</rscale>
<asrwt>0</asrwt>
<pdfrwt beam="1">  1        2 0.27809304E+00 0.32443707E+04</pdfrwt>
<pdfrwt beam="2">  1       -2 0.22396704E+00 0.32443707E+04</pdfrwt>
<totfact> 0.66889981E-01</totfact>
</mgrwt>
</event>
<event>
 6    1  0.2236204E-005  0.3668212E+04  0.7818608E-02  0.8075043E-01
          2   -1    0    0  501    0  0.00000000000E+00  0.00000000000E+00  0.92654661935E+03  0.92654661935E+03  0.00000000000E+00 0. -1.
         -2   -1    0    0    0  501 -0.00000000000E+00 -0.00000000000E+00 -0.36306259365E+04  0.36306259365E+04  0.00000000000E+00 0.  1.
         23    2    1    2    0    0  0.16691213196E+04  0.73900900299E+03 -0.15599599880E+04  0.24028491527E+04  0.90047767513E+02 0.  0.
         13    1    3    3    0    0  0.11081694263E+04  0.44423894165E+03 -0.10269037872E+04  0.15747758897E+04  0.00000000000E+00 0. -1.
        -13    1    3    3    0    0  0.56095189328E+03  0.29477006134E+03 -0.53305620074E+03  0.82807326294E+03  0.00000000000E+00 0.  1.
         22    1    1    2    0    0 -0.16691213196E+04 -0.73900900299E+03 -0.11441193291E+04  0.21543234031E+04  0.00000000000E+00 0. -1.
<mgrwt>
<rscale>  0 0.36682117E+04</rscale>
<asrwt>0</asrwt>
<pdfrwt beam="1">  1        2 0.14254563E+00 0.36682117E+04</pdfrwt>
<pdfrwt beam="2">  1       -2 0.55855784E+00 0.36682117E+04</pdfrwt>
<totfact> 0.17584727E-02</totfact>
</mgrwt>
</event>
<event>
 6    1  0.2236204E-005  0.7220232E+04  0.7818608E-02  0.7555140E-01
          2   -1    0    0  501    0  0.00000000000E+00  0.00000000000E+00  0.34636358412E+04  0.34636358412E+04  0.00000000000E+00 0. -1.
         -2   -1    0    0    0  501 -0.00000000000E+00 -0.00000000000E+00 -0.37627913998E+04  0.37627913998E+04  0.00000000000E+00 0.  1.
         23    2    1    2    0    0 -0.17692358751E+04 -0.16692299948E+04 -0.28187739388E+04  0.37242848768E+04  0.91032787322E+02 0.  0.
         13    1    3    3    0    0 -0.14385935268E+04 -0.13429171233E+04 -0.22269665786E+04  0.29719283096E+04  0.00000000000E+00 0. -1.
        -13    1    3    3    0    0 -0.33064234827E+03 -0.32631287153E+03 -0.59180736026E+03  0.75235656723E+03  0.00000000000E+00 0.  1.
         22    1    1    2    0    0  0.17692358751E+04  0.16692299948E+04  0.25196183802E+04  0.35021423642E+04  0.00000000000E+00 0.  1.
<mgrwt>
<rscale>  0 0.72202324E+04</rscale>
<asrwt>0</asrwt>
<pdfrwt beam="1">  1        2 0.53286705E+00 0.72202324E+04</pdfrwt>
<pdfrwt beam="2">  1       -2 0.57889099E+00 0.72202324E+04</pdfrwt>
<totfact> 0.33771406E-04</totfact>
</mgrwt>
</event>
<event>
 6    1  0.2236204E-005  0.2491458E+04  0.7818608E-02  0.8406035E-01
          2   -1    0    0  501    0  0.00000000000E+00  0.00000000000E+00  0.19208373402E+04  0.19208373402E+04  0.00000000000E+00 0.  1.
         -2   -1    0    0    0  501 -0.00000000000E+00 -0.00000000000E+00 -0.80789828571E+03  0.80789828571E+03  0.00000000000E+00 0. -1.
         23    2    1    2    0    0  0.67506099376E+03 -0.73587998591E+03 -0.25612432703E+03  0.10341674681E+04  0.81706683828E+02 0.  0.
         11    1    3    3    0    0  0.35191378971E+03 -0.42346828474E+03 -0.10955087966E+03  0.56140012362E+03  0.00000000000E+00 0. -1.
        -11    1    3    3    0    0  0.32314720405E+03 -0.31241170117E+03 -0.14657344737E+03  0.47276734446E+03  0.00000000000E+00 0.  1.
         22    1    1    2    0    0 -0.67506099376E+03  0.73587998591E+03  0.13690633815E+04  0.16945681578E+04  0.00000000000E+00 0.  1.
<mgrwt>
<rscale>  0 0.24914584E+04</rscale>
<asrwt>0</asrwt>
<pdfrwt beam="1">  1        2 0.29551344E+00 0.24914584E+04</pdfrwt>
<pdfrwt beam="2">  1       -2 0.12429204E+00 0.24914584E+04</pdfrwt>
<totfact> 0.32096898E+00</totfact>
</mgrwt>
</event>
<event>
 6    1  0.2236204E-005  0.1380904E+04  0.7818608E-02  0.8967758E-01
         -2   -1    0    0    0  501 -0.00000000000E+00  0.00000000000E+00  0.45882432409E+03  0.45882432409E+03  0.00000000000E+00 0.  1.
          2   -1    0    0  501    0  0.00000000000E+00 -0.00000000000E+00 -0.10390119348E+04  0.10390119348E+04  0.00000000000E+00 0. -1.
         23    2    1    2    0    0  0.62865816042E+03 -0.23788397828E+03 -0.13489962451E+03  0.69156009006E+03  0.90871225829E+02 0.  0.
         11    1    3    3    0    0  0.28537050437E+03 -0.11894215729E+03 -0.10709136050E+03  0.32718820431E+03  0.00000000000E+00 0. -1.
        -11    1    3    3    0    0  0.34328765605E+03 -0.11894182100E+03 -0.27808264004E+02  0.36437188575E+03  0.00000000000E+00 0.  1.
         22    1    1    2    0    0 -0.62865816042E+03  0.23788397828E+03 -0.44528798623E+03  0.80627616886E+03  0.00000000000E+00 0. -1.
<mgrwt>
<rscale>  0 0.13809040E+04</rscale>
<asrwt>0</asrwt>
<pdfrwt beam="1">  1        2 0.15984799E+00 0.13809040E+04</pdfrwt>
<pdfrwt beam="2">  1       -2 0.70588359E-01 0.13809040E+04</pdfrwt>
<totfact> 0.42320214E+01</totfact>
</mgrwt>
</event>
<event>
 6    1  0.2236204E-005  0.3696246E+04  0.7818608E-02  0.8068794E-01
          2   -1    0    0  501    0  0.00000000000E+00  0.00000000000E+00  0.17750654939E+04  0.17750654939E+04  0.00000000000E+00 0. -1.
         -2   -1    0    0    0  501 -0.00000000000E+00 -0.00000000000E+00 -0.19241876110E+04  0.19241876110E+04  0.00000000000E+00 0.  1.
         23    2    1    2    0    0 -0.84991690184E+03  0.76176418048E+03  0.13786858694E+04  0.17922028565E+04  0.92590201922E+02 0.  0.
         13    1    3    3    0    0 -0.19128283040E+03  0.21444972941E+03  0.38510637513E+03  0.48050465951E+03  0.00000000000E+00 0. -1.
        -13    1    3    3    0    0 -0.65863407144E+03  0.54731445107E+03  0.99357949428E+03  0.13116981969E+04  0.00000000000E+00 0.  1.
         22    1    1    2    0    0  0.84991690184E+03 -0.76176418048E+03 -0.15278079865E+04  0.19070502485E+04  0.00000000000E+00 0.  1.
<mgrwt>
<rscale>  0 0.36962462E+04</rscale>
<asrwt>0</asrwt>
<pdfrwt beam="1">  1        2 0.27308700E+00 0.36962462E+04</pdfrwt>
<pdfrwt beam="2">  1       -2 0.29602886E+00 0.36962462E+04</pdfrwt>
<totfact> 0.24212922E-01</totfact>
</mgrwt>
</event>
<event>
 6    1  0.2236204E-005  0.9869260E+03  0.7818608E-02  0.9323002E-01
          2   -1    0    0  501    0  0.00000000000E+00  0.00000000000E+00  0.15593484847E+04  0.15593484847E+04  0.00000000000E+00 0. -1.
         -2   -1    0    0    0  501 -0.00000000000E+00 -0.00000000000E+00 -0.15615862802E+03  0.15615862802E+03  0.00000000000E+00 0.  1.
         23    2    1    2    0    0 -0.40595912973E+03 -0.27018143567E+03  0.77665908689E+03  0.92156654273E+03  0.91020504481E+02 0.  0.
         11    1    3    3    0    0 -0.34684082129E+03 -0.19124907538E+03  0.64801211001E+03  0.75946985382E+03  0.00000000000E+00 0.  1.
        -11    1    3    3    0    0 -0.59118308436E+02 -0.78932360288E+02  0.12864697689E+03  0.16209668891E+03  0.00000000000E+00 0. -1.
         22    1    1    2    0    0  0.40595912973E+03  0.27018143567E+03  0.62653076979E+03  0.79394057000E+03  0.00000000000E+00 0. -1.
<mgrwt>
<rscale>  0 0.98692597E+03</rscale>
<asrwt>0</asrwt>
<pdfrwt beam="1">  1        2 0.23989976E+00 0.98692597E+03</pdfrwt>
<pdfrwt beam="2">  1       -2 0.24024405E-01 0.98692597E+03</pdfrwt>
<totfact> 0.18094912E+02</totfact>
</mgrwt>
</event>
<event>
 6    1  0.2236204E-005  0.2952475E+04  0.7818608E-02  0.8257434E-01
          2   -1    0    0  501    0  0.00000000000E+00  0.00000000000E+00  0.26212801401E+04  0.26212801401E+04  0.00000000000E+00 0. -1.
         -2   -1    0    0    0  501 -0.00000000000E+00 -0.00000000000E+00 -0.83137875988E+03  0.83137875988E+03  0.00000000000E+00 0.  1.
         23    2    1    2    0    0  0.52559416605E+03  0.78071630562E+03 -0.43232671923E+03  0.10393489524E+04  0.87021120338E+02 0.  0.
         11    1    3    3    0    0  0.24003311154E+03  0.43220004230E+03 -0.21496934449E+03  0.53909608631E+03  0.00000000000E+00 0.  1.
        -11    1    3    3    0    0  0.28556105451E+03  0.34851626332E+03 -0.21735737474E+03  0.50025286606E+03  0.00000000000E+00 0. -1.
         22    1    1    2    0    0 -0.52559416605E+03 -0.78071630562E+03  0.22222280994E+04  0.24133099476E+04  0.00000000000E+00 0. -1.
<mgrwt>
<rscale>  0 0.29524746E+04</rscale>
<asrwt>0</asrwt>
<pdfrwt beam="1">  1        2 0.40327386E+00 0.29524746E+04</pdfrwt>
<pdfrwt beam="2">  1       -2 0.12790443E+00 0.29524746E+04</pdfrwt>
<totfact> 0.11494731E+00</totfact>
</mgrwt>
</event>
<event>
 6    1  0.2236204E-005  0.2036066E+04  0.7818608E-02  0.8589942E-01
         -2   -1    0    0    0  501 -0.00000000000E+00  0.00000000000E+00  0.36008139303E+03  0.36008139303E+03  0.00000000000E+00 0.  1.
          2   -1    0    0  501    0  0.00000000000E+00 -0.00000000000E+00 -0.28782125862E+04  0.28782125862E+04  0.00000000000E+00 0. -1.
         23    2    1    2    0    0 -0.87701435068E+03 -0.48658062735E+03 -0.10033680510E+04  0.14215875486E+04  0.90823094000E+02 0.  0.
         11    1    3    3    0    0 -0.33019516304E+03 -0.23408738565E+03 -0.40129975092E+03  0.56997126235E+03  0.00000000000E+00 0. -1.
        -11    1    3    3    0    0 -0.54681918763E+03 -0.25249324170E+03 -0.60206830010E+03  0.85161628628E+03  0.00000000000E+00 0.  1.
         22    1    1    2    0    0  0.87701435068E+03  0.48658062735E+03 -0.15147631422E+04  0.18167064306E+04  0.00000000000E+00 0.  1.
<mgrwt>
<rscale>  0 0.20360656E+04</rscale>
<asrwt>0</asrwt>
<pdfrwt beam="1">  1        2 0.44280194E+00 0.20360656E+04</pdfrwt>
<pdfrwt beam="2">  1       -2 0.55397137E-01 0.20360656E+04</pdfrwt>
<totfact> 0.58882365E+00</totfact>
</mgrwt>
</event>
<event>
 6    1  0.2236204E-005  0.1576133E+04  0.7818608E-02  0.8835346E-01
         -2   -1    0    0    0  501 -0.00000000000E+00  0.00000000000E+00  0.24841219800E+03  0.24841219800E+03  0.00000000000E+00 0.  1.
          2   -1    0    0  501    0  0.00000000000E+00 -0.00000000000E+00 -0.25000746984E+04  0.25000746984E+04  0.00000000000E+00 0. -1.
         23    2    1    2    0    0  0.43997585200E+03 -0.56399137858E+03 -0.16956763669E+04  0.18425147080E+04  0.88752930268E+02 0.  0.
         11    1    3    3    0    0  0.80235498922E+02 -0.12231490193E+03 -0.26670981949E+03  0.30419204187E+03  0.00000000000E+00 0. -1.
        -11    1    3    3    0    0  0.35974035308E+03 -0.44167647665E+03 -0.14289665474E+04  0.15383226662E+04  0.00000000000E+00 0.  1.
         22    1    1    2    0    0 -0.43997585200E+03  0.56399137858E+03 -0.55598613352E+03  0.90597218838E+03  0.00000000000E+00 0. -1.
<mgrwt>
<rscale>  0 0.15761333E+04</rscale>
<asrwt>0</asrwt>
<pdfrwt beam="1">  1        2 0.38462686E+00 0.15761333E+04</pdfrwt>
<pdfrwt beam="2">  1       -2 0.38217263E-01 0.15761333E+04</pdfrwt>
<totfact> 0.21667475E+01</totfact>
</mgrwt>
</event>
<event>
 6    1  0.2236204E-005  0.3539600E+04  0.7818608E-02  0.8104469E-01
          1   -1    0    0  501    0  0.00000000000E+00  0.00000000000E+00  0.15990426572E+04  0.15990426572E+04  0.00000000000E+00 0. -1.
         -1   -1    0    0    0  501 -0.00000000000E+00 -0.00000000000E+00 -0.19587923759E+04  0.19587923759E+04  0.00000000000E+00 0.  1.
         23    2    1    2    0    0  0.10853348635E+04 -0.65493442687E+03 -0.14191647050E+04  0.19057905474E+04  0.10544325909E+03 0.  0.
         13    1    3    3    0    0  0.89488191105E+03 -0.51613757965E+03 -0.12066000371E+04  0.15884254107E+04  0.00000000000E+00 0. -1.
        -13    1    3    3    0    0  0.19045295249E+03 -0.13879684722E+03 -0.21256466793E+03  0.31736513665E+03  0.00000000000E+00 0.  1.
         22    1    1    2    0    0 -0.10853348635E+04  0.65493442687E+03  0.10594149863E+04  0.16520444857E+04  0.00000000000E+00 0. -1.
<mgrwt>
<rscale>  0 0.35396003E+04</rscale>
<asrwt>0</asrwt>
<pdfrwt beam="1">  1        1 0.24600656E+00 0.35396003E+04</pdfrwt>
<pdfrwt beam="2">  1       -1 0.30135267E+00 0.35396003E+04</pdfrwt>
<totfact> 0.14705653E-01</totfact>
</mgrwt>
</event>
<event>
 6    1  0.2236204E-005  0.1840534E+04  0.7818608E-02  0.8685036E-01
         -2   -1    0    0    0  501 -0.00000000000E+00  0.00000000000E+00  0.12739059146E+04  0.12739059146E+04  0.00000000000E+00 0.  1.
          2   -1    0    0  501    0  0.00000000000E+00 -0.00000000000E+00 -0.66479875169E+03  0.66479875169E+03  0.00000000000E+00 0. -1.
         23    2    1    2    0    0 -0.11382820408E+03  0.89592446737E+03  0.13241854435E+03  0.91749481990E+03  0.92868522047E+02 0.  0.
         11    1    3    3    0    0 -0.11999190929E+03  0.76747317236E+03  0.13713778110E+03  0.78880916551E+03  0.00000000000E+00 0. -1.
        -11    1    3    3    0    0  0.61637052077E+01  0.12845129501E+03 -0.47192367476E+01  0.12868565439E+03  0.00000000000E+00 0.  1.
         22    1    1    2    0    0  0.11382820408E+03 -0.89592446737E+03  0.47668861852E+03  0.10212098464E+04  0.00000000000E+00 0.  1.
<mgrwt>
<rscale>  0 0.18405337E+04</rscale>
<asrwt>0</asrwt>
<pdfrwt beam="1">  1        2 0.10227673E+00 0.18405337E+04</pdfrwt>
<pdfrwt beam="2">  1       -2 0.19598552E+00 0.18405337E+04</pdfrwt>
<totfact> 0.58118766E+00</totfact>
</mgrwt>
</event>
<event>
 6    1  0.2236204E-005  0.1959398E+04  0.7818608E-02  0.8625842E-01
         -2   -1    0    0    0  501 -0.00000000000E+00  0.00000000000E+00  0.38089294198E+03  0.38089294198E+03  0.00000000000E+00 0. -1.
          2   -1    0    0  501    0  0.00000000000E+00 -0.00000000000E+00 -0.25198958225E+04  0.25198958225E+04  0.00000000000E+00 0.  1.
         23    2    1    2    0    0 -0.58627903861E+03 -0.68018011057E+03 -0.16442681149E+04  0.18755421687E+04  0.87593942106E+02 0.  0.
         13    1    3    3    0    0 -0.38669160278E+03 -0.40148473298E+03 -0.10782944157E+04  0.12138530526E+04  0.00000000000E+00 0.  1.
        -13    1    3    3    0    0 -0.19958743583E+03 -0.27869537759E+03 -0.56597369928E+03  0.66168911606E+03  0.00000000000E+00 0. -1.
         22    1    1    2    0    0  0.58627903861E+03  0.68018011057E+03 -0.49473476557E+03  0.10252465958E+04  0.00000000000E+00 0. -1.
<mgrwt>
<rscale>  0 0.19593984E+04</rscale>
<asrwt>0</asrwt>
<pdfrwt beam="1">  1        2 0.38767628E+00 0.19593984E+04</pdfrwt>
<pdfrwt beam="2">  1       -2 0.58598913E-01 0.19593984E+04</pdfrwt>
<totfact> 0.86080347E+00</totfact>
</mgrwt>
</event>
<event>
 6    1  0.2236204E-005  0.2705454E+04  0.7818608E-02  0.8333237E-01
         -2   -1    0    0    0  501 -0.00000000000E+00  0.00000000000E+00  0.23998461371E+04  0.23998461371E+04  0.00000000000E+00 0.  1.
          2   -1    0    0  501    0  0.00000000000E+00 -0.00000000000E+00 -0.76249500233E+03  0.76249500233E+03  0.00000000000E+00 0. -1.
         23    2    1    2    0    0 -0.27576818746E+03 -0.19136397617E+03  0.23494739252E+04  0.23750755342E+04  0.91037373062E+02 0.  0.
         13    1    3    3    0    0 -0.97366852168E+02 -0.11704355343E+03  0.90240599784E+03  0.91515904751E+03  0.00000000000E+00 0. -1.
        -13    1    3    3    0    0 -0.17840133529E+03 -0.74320422741E+02  0.14470679273E+04  0.14599164867E+04  0.00000000000E+00 0.  1.
         22    1    1    2    0    0  0.27576818746E+03  0.19136397617E+03 -0.71212279041E+03  0.78726560525E+03  0.00000000000E+00 0. -1.
<mgrwt>
<rscale>  0 0.27054543E+04</rscale>
<asrwt>0</asrwt>
<pdfrwt beam="1">  1        2 0.11730692E+00 0.27054543E+04</pdfrwt>
<pdfrwt beam="2">  1       -2 0.36920709E+00 0.27054543E+04</pdfrwt>
<totfact> 0.37804296E-01</totfact>
</mgrwt>
</event>
<event>
 6    1  0.2236204E-005  0.1686463E+04  0.7818608E-02  0.8769123E-01
         -2   -1    0    0    0  501 -0.00000000000E+00  0.00000000000E+00  0.17079372471E+04  0.17079372471E+04  0.00000000000E+00 0.  1.
          2   -1    0    0  501    0  0.00000000000E+00 -0.00000000000E+00 -0.41631456714E+03  0.41631456714E+03  0.00000000000E+00 0. -1.
         23    2    1    2    0    0 -0.33390079253E+03  0.42253299496E+03 -0.16573555260E+03  0.57057331176E+03  0.89787302096E+02 0.  0.
         13    1    3    3    0    0 -0.30021456601E+03  0.32474978847E+03 -0.14158672240E+03  0.46436839978E+03  0.00000000000E+00 0. -1.
        -13    1    3    3    0    0 -0.33686226521E+02  0.97783206495E+02 -0.24148830199E+02  0.10620491199E+03  0.00000000000E+00 0.  1.
         22    1    1    2    0    0  0.33390079253E+03 -0.42253299496E+03  0.14573582326E+04  0.15536785025E+04  0.00000000000E+00 0.  1.
<mgrwt>
<rscale>  0 0.16864628E+04</rscale>
<asrwt>0</asrwt>
<pdfrwt beam="1">  1        2 0.64048396E-01 0.16864628E+04</pdfrwt>
<pdfrwt beam="2">  1       -2 0.26275957E+00 0.16864628E+04</pdfrwt>
<totfact> 0.38873172E+00</totfact>
</mgrwt>
</event>
<event>
 6    1  0.2236204E-005  0.1890016E+04  0.7818608E-02  0.8659842E-01
          2   -1    0    0  501    0  0.00000000000E+00  0.00000000000E+00  0.22838181073E+04  0.22838181073E+04  0.00000000000E+00 0. -1.
         -2   -1    0    0    0  501 -0.00000000000E+00 -0.00000000000E+00 -0.39102956929E+03  0.39102956929E+03  0.00000000000E+00 0.  1.
         23    2    1    2    0    0 -0.18618365382E+03  0.82875217733E+03  0.37035643921E+03  0.93149056463E+03  0.94953965474E+02 0.  0.
         11    1    3    3    0    0 -0.55935377627E+01  0.21007057147E+03  0.95612059357E+02  0.23087355534E+03  0.00000000000E+00 0.  1.
        -11    1    3    3    0    0 -0.18059011605E+03  0.61868160586E+03  0.27474437985E+03  0.70061700929E+03  0.00000000000E+00 0. -1.
         22    1    1    2    0    0  0.18618365382E+03 -0.82875217733E+03  0.15224320988E+04  0.17433571119E+04  0.00000000000E+00 0. -1.
<mgrwt>
<rscale>  0 0.18900163E+04</rscale>
<asrwt>0</asrwt>
<pdfrwt beam="1">  1        2 0.35135663E+00 0.18900163E+04</pdfrwt>
<pdfrwt beam="2">  1       -2 0.60158396E-01 0.18900163E+04</pdfrwt>
<totfact> 0.11181573E+01</totfact>
</mgrwt>
</event>
<event>
 6    1  0.2236204E-005  0.1360054E+04  0.7818608E-02  0.8983252E-01
          2   -1    0    0  501    0  0.00000000000E+00  0.00000000000E+00  0.83756875428E+03  0.83756875428E+03  0.00000000000E+00 0. -1.
         -2   -1    0    0    0  501 -0.00000000000E+00 -0.00000000000E+00 -0.55211763507E+03  0.55211763507E+03  0.00000000000E+00 0.  1.
         23    2    1    2    0    0  0.92901958243E+02  0.57363657051E+03  0.49839486376E+03  0.77078839516E+03  0.89596992282E+02 0.  0.
         11    1    3    3    0    0  0.26981270677E+02  0.32009619554E+02  0.43978525804E+02  0.60718328725E+02  0.00000000000E+00 0. -1.
        -11    1    3    3    0    0  0.65920687566E+02  0.54162695095E+03  0.45441633796E+03  0.71007006644E+03  0.00000000000E+00 0.  1.
         22    1    1    2    0    0 -0.92901958243E+02 -0.57363657051E+03 -0.21294374456E+03  0.61889799419E+03  0.00000000000E+00 0.  1.
<mgrwt>
<rscale>  0 0.13600536E+04</rscale>
<asrwt>0</asrwt>
<pdfrwt beam="1">  1        2 0.12885673E+00 0.13600536E+04</pdfrwt>
<pdfrwt beam="2">  1       -2 0.84941175E-01 0.13600536E+04</pdfrwt>
<totfact> 0.38158901E+01</totfact>
</mgrwt>
</event>
<event>
 6    1  0.2236204E-005  0.3334491E+04  0.7818608E-02  0.8154174E-01
          2   -1    0    0  501    0  0.00000000000E+00  0.00000000000E+00  0.14211052934E+04  0.14211052934E+04  0.00000000000E+00 0. -1.
         -2   -1    0    0    0  501 -0.00000000000E+00 -0.00000000000E+00 -0.19560179134E+04  0.19560179134E+04  0.00000000000E+00 0.  1.
         23    2    1    2    0    0  0.83498192709E+03 -0.13145362319E+04 -0.86700722601E+03  0.17848018979E+04  0.92822202852E+02 0.  0.
         11    1    3    3    0    0  0.65755259529E+03 -0.96302457587E+03 -0.63521784567E+03  0.13278906057E+04  0.00000000000E+00 0.  1.
        -11    1    3    3    0    0  0.17742933180E+03 -0.35151165601E+03 -0.23178938034E+03  0.45691129219E+03  0.00000000000E+00 0. -1.
         22    1    1    2    0    0 -0.83498192709E+03  0.13145362319E+04  0.33209460602E+03  0.15923213089E+04  0.00000000000E+00 0.  1.
<mgrwt>
<rscale>  0 0.33344909E+04</rscale>
<asrwt>0</asrwt>
<pdfrwt beam="1">  1        2 0.21863158E+00 0.33344909E+04</pdfrwt>
<pdfrwt beam="2">  1       -2 0.30092583E+00 0.33344909E+04</pdfrwt>
<totfact> 0.36768225E-01</totfact>
</mgrwt>
</event>
<event>
 6    1  0.2236204E-005  0.2368644E+04  0.7818608E-02  0.8451337E-01
          2   -1    0    0  501    0  0.00000000000E+00  0.00000000000E+00  0.19725788676E+04  0.19725788676E+04  0.00000000000E+00 0. -1.
         -2   -1    0    0    0  501 -0.00000000000E+00 -0.00000000000E+00 -0.71105835783E+03  0.71105835783E+03  0.00000000000E+00 0.  1.
         23    2    1    2    0    0  0.46155461703E+03 -0.57026168610E+03  0.16818073312E+04  0.18381361508E+04  0.10971578967E+03 0.  0.
         11    1    3    3    0    0  0.95368518236E+02 -0.72187370971E+02  0.20822987897E+03  0.24013715517E+03  0.00000000000E+00 0. -1.
        -11    1    3    3    0    0  0.36618609879E+03 -0.49807431512E+03  0.14735774522E+04  0.15979989956E+04  0.00000000000E+00 0.  1.
         22    1    1    2    0    0 -0.46155461703E+03  0.57026168610E+03 -0.42028682135E+03  0.84550107471E+03  0.00000000000E+00 0.  1.
<mgrwt>
<rscale>  0 0.23686441E+04</rscale>
<asrwt>0</asrwt>
<pdfrwt beam="1">  1        2 0.30347367E+00 0.23686441E+04</pdfrwt>
<pdfrwt beam="2">  1       -2 0.10939359E+00 0.23686441E+04</pdfrwt>
<totfact> 0.41541315E+00</totfact>
</mgrwt>
</event>
<event>
 6    1  0.2236204E-005  0.7237757E+03  0.7818608E-02  0.9677415E-01
          2   -1    0    0  501    0  0.00000000000E+00  0.00000000000E+00  0.10241391794E+04  0.10241391794E+04  0.00000000000E+00 0. -1.
         -2   -1    0    0    0  501 -0.00000000000E+00 -0.00000000000E+00 -0.12787600551E+03  0.12787600551E+03  0.00000000000E+00 0.  1.
         23    2    1    2    0    0  0.30174033281E+03  0.17611731450E+02  0.15533001846E+03  0.35180312405E+03  0.90997922678E+02 0.  0.
         11    1    3    3    0    0  0.20109202063E+03 -0.28997210681E+02  0.11698937956E+03  0.23444691066E+03  0.00000000000E+00 0. -1.
        -11    1    3    3    0    0  0.10064831218E+03  0.46608942131E+02  0.38340638899E+02  0.11735621339E+03  0.00000000000E+00 0.  1.
         22    1    1    2    0    0 -0.30174033281E+03 -0.17611731450E+02  0.74093315545E+03  0.80021206088E+03  0.00000000000E+00 0. -1.
<mgrwt>
<rscale>  0 0.72377573E+03</rscale>
<asrwt>0</asrwt>
<pdfrwt beam="1">  1        2 0.15755987E+00 0.72377573E+03</pdfrwt>
<pdfrwt beam="2">  1       -2 0.19673232E-01 0.72377573E+03</pdfrwt>
<totfact> 0.53754410E+02</totfact>
</mgrwt>
</event>
<event>
 6    1  0.2236204E-005  0.3027045E+04  0.7818608E-02  0.8236050E-01
         -2   -1    0    0    0  501 -0.00000000000E+00  0.00000000000E+00  0.12312735528E+04  0.12312735528E+04  0.00000000000E+00 0.  1.
          2   -1    0    0  501    0  0.00000000000E+00 -0.00000000000E+00 -0.18604728146E+04  0.18604728146E+04  0.00000000000E+00 0. -1.
         23    2    1    2    0    0 -0.70993353545E+03 -0.76472924399E+03 -0.14326842021E+04  0.17747784518E+04  0.91859068814E+02 0.  0.
         13    1    3    3    0    0 -0.52071775391E+03 -0.57097260192E+03 -0.11256207896E+04  0.13653493521E+04  0.00000000000E+00 0.  1.
        -13    1    3    3    0    0 -0.18921578154E+03 -0.19375664207E+03 -0.30706341250E+03  0.40942909963E+03  0.00000000000E+00 0. -1.
         22    1    1    2    0    0  0.70993353545E+03  0.76472924399E+03  0.80348494031E+03  0.13169679156E+04  0.00000000000E+00 0.  1.
<mgrwt>
<rscale>  0 0.30270454E+04</rscale>
<asrwt>0</asrwt>
<pdfrwt beam="1">  1        2 0.28622659E+00 0.30270454E+04</pdfrwt>
<pdfrwt beam="2">  1       -2 0.18942670E+00 0.30270454E+04</pdfrwt>
<totfact> 0.10669316E+00</totfact>
</mgrwt>
</event>
<event>
 6    1  0.2236204E-005  0.8618798E+03  0.7818608E-02  0.9474530E-01
          2   -1    0    0  501    0  0.00000000000E+00  0.00000000000E+00  0.13312535299E+04  0.13312535299E+04  0.00000000000E+00 0.  1.
         -2   -1    0    0    0  501 -0.00000000000E+00 -0.00000000000E+00 -0.13949948433E+03  0.13949948433E+03  0.00000000000E+00 0. -1.
         23    2    1    2    0    0 -0.12161500362E+03  0.19779907659E+03 -0.78181984105E+01  0.24891495118E+03  0.89346767640E+02 0.  0.
         13    1    3    3    0    0 -0.92659152885E+02  0.80612065869E+02  0.21523269312E+02  0.12468871199E+03  0.00000000000E+00 0. -1.
        -13    1    3    3    0    0 -0.28955850740E+02  0.11718701072E+03 -0.29341467722E+02  0.12422623919E+03  0.00000000000E+00 0.  1.
         22    1    1    2    0    0  0.12161500362E+03 -0.19779907659E+03  0.11995722440E+04  0.12218380631E+04  0.00000000000E+00 0.  1.
<mgrwt>
<rscale>  0 0.86187976E+03</rscale>
<asrwt>0</asrwt>
<pdfrwt beam="1">  1        2 0.20480823E+00 0.86187976E+03</pdfrwt>
<pdfrwt beam="2">  1       -2 0.21461460E-01 0.86187976E+03</pdfrwt>
<totfact> 0.30005992E+02</totfact>
</mgrwt>
</event>
<event>
 6    1  0.2236204E-005  0.1999547E+03  0.7818608E-02  0.1149777E+00
         -2   -1    0    0    0  501 -0.00000000000E+00  0.00000000000E+00  0.97456585558E+01  0.97456585558E+01  0.00000000000E+00 0.  1.
          2   -1    0    0  501    0  0.00000000000E+00 -0.00000000000E+00 -0.10256327147E+04  0.10256327147E+04  0.00000000000E+00 0. -1.
         23    2    1    2    0    0  0.11931947972E+02 -0.41040826818E+01 -0.10183384850E+04  0.10225244096E+04  0.91562455366E+02 0.  0.
         11    1    3    3    0    0 -0.11489343709E+02  0.39314188443E+02 -0.35526145828E+03  0.35761475665E+03  0.00000000000E+00 0. -1.
        -11    1    3    3    0    0  0.23421291681E+02 -0.43418271125E+02 -0.66307702676E+03  0.66490965295E+03  0.00000000000E+00 0.  1.
         22    1    1    2    0    0 -0.11931947972E+02  0.41040826818E+01  0.24514289294E+01  0.12853963625E+02  0.00000000000E+00 0.  1.
<mgrwt>
<rscale>  0 0.19995466E+03</rscale>
<asrwt>0</asrwt>
<pdfrwt beam="1">  1        2 0.15778972E+00 0.19995466E+03</pdfrwt>
<pdfrwt beam="2">  1       -2 0.14993314E-02 0.19995466E+03</pdfrwt>
<totfact> 0.29217892E+04</totfact>
</mgrwt>
</event>
<event>
 6    1  0.2236204E-005  0.1332016E+04  0.7818608E-02  0.9004554E-01
         -2   -1    0    0    0  501 -0.00000000000E+00  0.00000000000E+00  0.31051826444E+03  0.31051826444E+03  0.00000000000E+00 0. -1.
          2   -1    0    0  501    0  0.00000000000E+00 -0.00000000000E+00 -0.14284726019E+04  0.14284726019E+04  0.00000000000E+00 0.  1.
         23    2    1    2    0    0 -0.57575554564E+02  0.64378644483E+03 -0.75422849399E+03  0.99732219354E+03  0.89526563395E+02 0.  0.
         13    1    3    3    0    0  0.20558670479E+02  0.24957510068E+03 -0.27684281734E+03  0.37329925706E+03  0.00000000000E+00 0. -1.
        -13    1    3    3    0    0 -0.78134225044E+02  0.39421134414E+03 -0.47738567665E+03  0.62402293647E+03  0.00000000000E+00 0.  1.
         22    1    1    2    0    0  0.57575554564E+02 -0.64378644483E+03 -0.36372584351E+03  0.74166867284E+03  0.00000000000E+00 0.  1.
<mgrwt>
<rscale>  0 0.13320163E+04</rscale>
<asrwt>0</asrwt>
<pdfrwt beam="1">  1        2 0.21976501E+00 0.13320163E+04</pdfrwt>
<pdfrwt beam="2">  1       -2 0.47772041E-01 0.13320163E+04</pdfrwt>
<totfact> 0.56580671E+01</totfact>
</mgrwt>
</event>
<event>
 6    1  0.2236204E-005  0.1772911E+04  0.7818608E-02  0.8720839E-01
          2   -1    0    0  501    0  0.00000000000E+00  0.00000000000E+00  0.18800080900E+04  0.18800080900E+04  0.00000000000E+00 0. -1.
         -2   -1    0    0    0  501 -0.00000000000E+00 -0.00000000000E+00 -0.41797875565E+03  0.41797875565E+03  0.00000000000E+00 0.  1.
         23    2    1    2    0    0  0.57734379377E+03  0.61119517936E+03  0.10873443712E+04  0.13775118459E+04  0.91300057941E+02 0.  0.
         13    1    3    3    0    0  0.23983747428E+03  0.24563001867E+03  0.51760836004E+03  0.62110750641E+03  0.00000000000E+00 0. -1.
        -13    1    3    3    0    0  0.33750631949E+03  0.36556516069E+03  0.56973601119E+03  0.75640433953E+03  0.00000000000E+00 0.  1.
         22    1    1    2    0    0 -0.57734379377E+03 -0.61119517936E+03  0.37468496310E+03  0.92047499969E+03  0.00000000000E+00 0. -1.
<mgrwt>
<rscale>  0 0.17729111E+04</rscale>
<asrwt>0</asrwt>
<pdfrwt beam="1">  1        2 0.28923201E+00 0.17729111E+04</pdfrwt>
<pdfrwt beam="2">  1       -2 0.64304425E-01 0.17729111E+04</pdfrwt>
<totfact> 0.16465483E+01</totfact>
</mgrwt>
</event>
<event>
 6    1  0.2236204E-005  0.1762988E+04  0.7818608E-02  0.8726233E-01
          2   -1    0    0  501    0  0.00000000000E+00  0.00000000000E+00  0.12134797604E+04  0.12134797604E+04  0.00000000000E+00 0. -1.
         -2   -1    0    0    0  501 -0.00000000000E+00 -0.00000000000E+00 -0.64033370801E+03  0.64033370801E+03  0.00000000000E+00 0.  1.
         23    2    1    2    0    0  0.47770996343E+02  0.95751659427E+02  0.12047319374E+04  0.12132268791E+04  0.95341338493E+02 0.  0.
         11    1    3    3    0    0  0.55717391818E+02  0.46567770738E+02  0.37291116792E+03  0.37991541714E+03  0.00000000000E+00 0. -1.
        -11    1    3    3    0    0 -0.79463954749E+01  0.49183888689E+02  0.83182076943E+03  0.83331146192E+03  0.00000000000E+00 0.  1.
         22    1    1    2    0    0 -0.47770996343E+02 -0.95751659427E+02 -0.63158588496E+03  0.64058658935E+03  0.00000000000E+00 0.  1.
<mgrwt>
<rscale>  0 0.17629884E+04</rscale>
<asrwt>0</asrwt>
<pdfrwt beam="1">  1        2 0.18668919E+00 0.17629884E+04</pdfrwt>
<pdfrwt beam="2">  1       -2 0.98512878E-01 0.17629884E+04</pdfrwt>
<totfact> 0.15068543E+01</totfact>
</mgrwt>
</event>
<event>
 6    1  0.2236204E-005  0.3055599E+04  0.7818608E-02  0.8228030E-01
          2   -1    0    0  501    0  0.00000000000E+00  0.00000000000E+00  0.28122469192E+04  0.28122469192E+04  0.00000000000E+00 0. -1.
         -2   -1    0    0    0  501 -0.00000000000E+00 -0.00000000000E+00 -0.83000211101E+03  0.83000211101E+03  0.00000000000E+00 0.  1.
         23    2    1    2    0    0 -0.90494528481E+03  0.86385355916E+03 -0.50376264247E+02  0.12554693243E+04  0.92176549037E+02 0.  0.
         11    1    3    3    0    0 -0.60076557541E+03  0.56550784003E+03  0.10168851113E+02  0.82511926366E+03  0.00000000000E+00 0. -1.
        -11    1    3    3    0    0 -0.30417970940E+03  0.29834571913E+03 -0.60545115360E+02  0.43035006068E+03  0.00000000000E+00 0.  1.
         22    1    1    2    0    0  0.90494528481E+03 -0.86385355916E+03  0.20326210724E+04  0.23867797059E+04  0.00000000000E+00 0. -1.
<mgrwt>
<rscale>  0 0.30555987E+04</rscale>
<asrwt>0</asrwt>
<pdfrwt beam="1">  1        2 0.43265337E+00 0.30555987E+04</pdfrwt>
<pdfrwt beam="2">  1       -2 0.12769263E+00 0.30555987E+04</pdfrwt>
<totfact> 0.87982997E-01</totfact>
</mgrwt>
</event>
<event>
 6    1  0.2236204E-005  0.2734433E+04  0.7818608E-02  0.8323918E-01
         -2   -1    0    0    0  501 -0.00000000000E+00  0.00000000000E+00  0.97155133721E+03  0.97155133721E+03  0.00000000000E+00 0.  1.
          2   -1    0    0  501    0  0.00000000000E+00 -0.00000000000E+00 -0.19240164450E+04  0.19240164450E+04  0.00000000000E+00 0. -1.
         23    2    1    2    0    0  0.10936889191E+04  0.40235212588E+03  0.27730851227E+03  0.12013464739E+04  0.91053029760E+02 0.  0.
         11    1    3    3    0    0  0.17010115480E+03  0.28491810115E+02  0.44680213473E+02  0.17816427134E+03  0.00000000000E+00 0. -1.
        -11    1    3    3    0    0  0.92358776435E+03  0.37386031576E+03  0.23262829880E+03  0.10231822025E+04  0.00000000000E+00 0.  1.
         22    1    1    2    0    0 -0.10936889191E+04 -0.40235212588E+03 -0.12297736201E+04  0.16942213084E+04  0.00000000000E+00 0.  1.
<mgrwt>
<rscale>  0 0.27344328E+04</rscale>
<asrwt>0</asrwt>
<pdfrwt beam="1">  1        2 0.29600253E+00 0.27344328E+04</pdfrwt>
<pdfrwt beam="2">  1       -2 0.14946944E+00 0.27344328E+04</pdfrwt>
<totfact> 0.19485878E+00</totfact>
</mgrwt>
</event>
<event>
 6    1  0.2236204E-005  0.1640323E+04  0.7818608E-02  0.8796152E-01
          2   -1    0    0  501    0  0.00000000000E+00  0.00000000000E+00  0.26599798783E+04  0.26599798783E+04  0.00000000000E+00 0. -1.
         -2   -1    0    0    0  501 -0.00000000000E+00 -0.00000000000E+00 -0.25288330732E+03  0.25288330732E+03  0.00000000000E+00 0.  1.
         23    2    1    2    0    0 -0.58293324757E+03 -0.34539201795E+03  0.39499000213E+03  0.78973350008E+03  0.92493687238E+02 0.  0.
         13    1    3    3    0    0 -0.16871333799E+03 -0.13610938016E+03  0.16082270739E+03  0.26991461056E+03  0.00000000000E+00 0. -1.
        -13    1    3    3    0    0 -0.41421990958E+03 -0.20928263779E+03  0.23416729475E+03  0.51981888952E+03  0.00000000000E+00 0.  1.
         22    1    1    2    0    0  0.58293324757E+03  0.34539201795E+03  0.20121065688E+04  0.21231296855E+04  0.00000000000E+00 0. -1.
<mgrwt>
<rscale>  0 0.16403225E+04</rscale>
<asrwt>0</asrwt>
<pdfrwt beam="1">  1        2 0.40922765E+00 0.16403225E+04</pdfrwt>
<pdfrwt beam="2">  1       -2 0.38905126E-01 0.16403225E+04</pdfrwt>
<totfact> 0.16791971E+01</totfact>
</mgrwt>
</event>
<event>
 6    1  0.2236204E-005  0.1223711E+04  0.7818608E-02  0.9092352E-01
          2   -1    0    0  501    0  0.00000000000E+00  0.00000000000E+00  0.27009493556E+03  0.27009493556E+03  0.00000000000E+00 0. -1.
         -2   -1    0    0    0  501 -0.00000000000E+00 -0.00000000000E+00 -0.13860570517E+04  0.13860570517E+04  0.00000000000E+00 0.  1.
         23    2    1    2    0    0 -0.18878190365E+03  0.18233858022E+03 -0.13033161029E+04  0.13336810872E+04  0.10576584221E+03 0.  0.
         13    1    3    3    0    0 -0.12315727449E+03  0.16413167436E+03 -0.80541516829E+03  0.83114409948E+03  0.00000000000E+00 0. -1.
        -13    1    3    3    0    0 -0.65624629157E+02  0.18206905860E+02 -0.49790093462E+03  0.50253698776E+03  0.00000000000E+00 0.  1.
         22    1    1    2    0    0  0.18878190365E+03 -0.18233858022E+03  0.18735398679E+03  0.32247090000E+03  0.00000000000E+00 0. -1.
<mgrwt>
<rscale>  0 0.12237107E+04</rscale>
<asrwt>0</asrwt>
<pdfrwt beam="1">  1        2 0.41553067E-01 0.12237107E+04</pdfrwt>
<pdfrwt beam="2">  1       -2 0.21323954E+00 0.12237107E+04</pdfrwt>
<totfact> 0.13273547E+01</totfact>
</mgrwt>
</event>
<event>
 6    1  0.2236204E-005  0.2048660E+04  0.7818608E-02  0.8584203E-01
         -2   -1    0    0    0  501 -0.00000000000E+00  0.00000000000E+00  0.41839942089E+03  0.41839942089E+03  0.00000000000E+00 0.  1.
          2   -1    0    0  501    0  0.00000000000E+00 -0.00000000000E+00 -0.25077750399E+04  0.25077750399E+04  0.00000000000E+00 0. -1.
         23    2    1    2    0    0 -0.69562714146E+03 -0.68845776815E+03 -0.14683240096E+04  0.17670470649E+04  0.92783154547E+02 0.  0.
         11    1    3    3    0    0 -0.42413281936E+03 -0.41658885746E+03 -0.80914805058E+03  0.10040694659E+04  0.00000000000E+00 0.  1.
        -11    1    3    3    0    0 -0.27149432210E+03 -0.27186891069E+03 -0.65917595904E+03  0.76297759895E+03  0.00000000000E+00 0. -1.
         22    1    1    2    0    0  0.69562714146E+03  0.68845776815E+03 -0.62105160938E+03  0.11591273959E+04  0.00000000000E+00 0.  1.
<mgrwt>
<rscale>  0 0.20486597E+04</rscale>
<asrwt>0</asrwt>
<pdfrwt beam="1">  1        2 0.38581155E+00 0.20486597E+04</pdfrwt>
<pdfrwt beam="2">  1       -2 0.64369141E-01 0.20486597E+04</pdfrwt>
<totfact> 0.71108699E+00</totfact>
</mgrwt>
</event>
<event>
 6    1  0.2236204E-005  0.2617941E+04  0.7818608E-02  0.8362132E-01
         -2   -1    0    0    0  501 -0.00000000000E+00  0.00000000000E+00  0.95624200241E+03  0.95624200241E+03  0.00000000000E+00 0.  1.
          2   -1    0    0  501    0  0.00000000000E+00 -0.00000000000E+00 -0.17918097945E+04  0.17918097945E+04  0.00000000000E+00 0. -1.
         23    2    1    2    0    0 -0.81395407701E+03 -0.67063727556E+03 -0.12292842282E+04  0.16223128277E+04  0.92106472548E+02 0.  0.
         13    1    3    3    0    0 -0.43816203206E+03 -0.30575478550E+03 -0.64736398935E+03  0.83937601222E+03  0.00000000000E+00 0.  1.
        -13    1    3    3    0    0 -0.37579204495E+03 -0.36488249007E+03 -0.58192023889E+03  0.78293681548E+03  0.00000000000E+00 0. -1.
         22    1    1    2    0    0  0.81395407701E+03  0.67063727556E+03  0.39371643610E+03  0.11257389693E+04  0.00000000000E+00 0.  1.
<mgrwt>
<rscale>  0 0.26179410E+04</rscale>
<asrwt>0</asrwt>
<pdfrwt beam="1">  1        2 0.27566305E+00 0.26179410E+04</pdfrwt>
<pdfrwt beam="2">  1       -2 0.14711415E+00 0.26179410E+04</pdfrwt>
<totfact> 0.24296056E+00</totfact>
</mgrwt>
</event>
<event>
 6    1  0.2236204E-005  0.3898015E+04  0.7818608E-02  0.8025442E-01
         -2   -1    0    0    0  501 -0.00000000000E+00  0.00000000000E+00  0.35729203900E+04  0.35729203900E+04  0.00000000000E+00 0.  1.
          2   -1    0    0  501    0  0.00000000000E+00 -0.00000000000E+00 -0.10631723464E+04  0.10631723464E+04  0.00000000000E+00 0. -1.
         23    2    1    2    0    0  0.13270180919E+04  0.63201643669E+03 -0.26471621747E+03  0.14963357826E+04  0.92327168806E+02 0.  0.
         11    1    3    3    0    0  0.10073467818E+04  0.44358037617E+03 -0.17429171695E+03  0.11144005974E+04  0.00000000000E+00 0.  1.
        -11    1    3    3    0    0  0.31967131008E+03  0.18843606053E+03 -0.90424500512E+02  0.38193518519E+03  0.00000000000E+00 0. -1.
         22    1    1    2    0    0 -0.13270180919E+04 -0.63201643669E+03  0.27744642610E+04  0.31397569537E+04  0.00000000000E+00 0.  1.
<mgrwt>
<rscale>  0 0.38980150E+04</rscale>
<asrwt>0</asrwt>
<pdfrwt beam="1">  1        2 0.16356498E+00 0.38980150E+04</pdfrwt>
<pdfrwt beam="2">  1       -2 0.54968006E+00 0.38980150E+04</pdfrwt>
<totfact> 0.15653197E-02</totfact>
</mgrwt>
</event>
<event>
 6    1  0.2236204E-005  0.2644198E+04  0.7818608E-02  0.8353341E-01
          2   -1    0    0  501    0  0.00000000000E+00  0.00000000000E+00  0.17006101964E+04  0.17006101964E+04  0.00000000000E+00 0. -1.
         -2   -1    0    0    0  501 -0.00000000000E+00 -0.00000000000E+00 -0.10278346293E+04  0.10278346293E+04  0.00000000000E+00 0.  1.
         23    2    1    2    0    0  0.89385324313E+03  0.30810148515E+03  0.12882711945E+04  0.16002892456E+04  0.85923532771E+02 0.  0.
         13    1    3    3    0    0  0.21659673640E+03  0.10782412283E+03  0.36398198867E+03  0.43706186720E+03  0.00000000000E+00 0. -1.
        -13    1    3    3    0    0  0.67725650672E+03  0.20027736232E+03  0.92428920588E+03  0.11632273784E+04  0.00000000000E+00 0.  1.
         22    1    1    2    0    0 -0.89385324313E+03 -0.30810148515E+03 -0.61549562747E+03  0.11281555801E+04  0.00000000000E+00 0.  1.
<mgrwt>
<rscale>  0 0.26441982E+04</rscale>
<asrwt>0</asrwt>
<pdfrwt beam="1">  1        2 0.26163234E+00 0.26441982E+04</pdfrwt>
<pdfrwt beam="2">  1       -2 0.15812840E+00 0.26441982E+04</pdfrwt>
<totfact> 0.22465698E+00</totfact>
</mgrwt>
</event>
<event>
 6    1  0.2236204E-005  0.1143614E+04  0.7818608E-02  0.9163695E-01
         -2   -1    0    0    0  501 -0.00000000000E+00  0.00000000000E+00  0.10244252424E+03  0.10244252424E+03  0.00000000000E+00 0.  1.
          2   -1    0    0  501    0  0.00000000000E+00 -0.00000000000E+00 -0.31916746421E+04  0.31916746421E+04  0.00000000000E+00 0. -1.
         23    2    1    2    0    0  0.54810788637E+02 -0.49282004501E+02 -0.31772208494E+04  0.31793349578E+04  0.89473511975E+02 0.  0.
         13    1    3    3    0    0 -0.24412727632E+02 -0.42745872858E+01 -0.70671483561E+03  0.70714928568E+03  0.00000000000E+00 0.  1.
        -13    1    3    3    0    0  0.79223516269E+02 -0.45007417216E+02 -0.24705060138E+04  0.24721856721E+04  0.00000000000E+00 0. -1.
         22    1    1    2    0    0 -0.54810788637E+02  0.49282004501E+02  0.87988731557E+02  0.11478220855E+03  0.00000000000E+00 0.  1.
<mgrwt>
<rscale>  0 0.11436139E+04</rscale>
<asrwt>0</asrwt>
<pdfrwt beam="1">  1        2 0.49102684E+00 0.11436139E+04</pdfrwt>
<pdfrwt beam="2">  1       -2 0.15760389E-01 0.11436139E+04</pdfrwt>
<totfact> 0.42875310E+01</totfact>
</mgrwt>
</event>
<event>
 6    1  0.2236204E-005  0.2797630E+04  0.7818608E-02  0.8304004E-01
          2   -1    0    0  501    0  0.00000000000E+00  0.00000000000E+00  0.27170710930E+04  0.27170710930E+04  0.00000000000E+00 0. -1.
         -2   -1    0    0    0  501 -0.00000000000E+00 -0.00000000000E+00 -0.72014444248E+03  0.72014444248E+03  0.00000000000E+00 0.  1.
         23    2    1    2    0    0 -0.11352035640E+04  0.79517463620E+03  0.78163686293E+03  0.15938709932E+04  0.92079984272E+02 0.  0.
         13    1    3    3    0    0 -0.28257451437E+03  0.24737594467E+03  0.21773144287E+03  0.43410850646E+03  0.00000000000E+00 0. -1.
        -13    1    3    3    0    0 -0.85262904968E+03  0.54779869153E+03  0.56390542005E+03  0.11597624867E+04  0.00000000000E+00 0.  1.
         22    1    1    2    0    0  0.11352035640E+04 -0.79517463620E+03  0.12152897876E+04  0.18433445423E+04  0.00000000000E+00 0. -1.
<mgrwt>
<rscale>  0 0.27976302E+04</rscale>
<asrwt>0</asrwt>
<pdfrwt beam="1">  1        2 0.41801093E+00 0.27976302E+04</pdfrwt>
<pdfrwt beam="2">  1       -2 0.11079145E+00 0.27976302E+04</pdfrwt>
<totfact> 0.14571824E+00</totfact>
</mgrwt>
</event>
<event>
 6    1  0.2236204E-005  0.2252019E+04  0.7818608E-02  0.8497083E-01
          2   -1    0    0  501    0  0.00000000000E+00  0.00000000000E+00  0.65004610527E+03  0.65004610527E+03  0.00000000000E+00 0. -1.
         -2   -1    0    0    0  501 -0.00000000000E+00 -0.00000000000E+00 -0.19504736091E+04  0.19504736091E+04  0.00000000000E+00 0.  1.
         23    2    1    2    0    0  0.80048476295E+03  0.78996878854E+03 -0.69289121855E+03  0.13222682209E+04  0.58893672416E+02 0.  0.
         13    1    3    3    0    0  0.12519299695E+03  0.15404036292E+03 -0.11556344288E+03  0.22968811294E+03  0.00000000000E+00 0. -1.
        -13    1    3    3    0    0  0.67529176600E+03  0.63592842562E+03 -0.57732777566E+03  0.10925801080E+04  0.00000000000E+00 0.  1.
         22    1    1    2    0    0 -0.80048476295E+03 -0.78996878854E+03 -0.60753628525E+03  0.12782514934E+04  0.00000000000E+00 0.  1.
<mgrwt>
<rscale>  0 0.22520193E+04</rscale>
<asrwt>0</asrwt>
<pdfrwt beam="1">  1        2 0.10000709E+00 0.22520193E+04</pdfrwt>
<pdfrwt beam="2">  1       -2 0.30007286E+00 0.22520193E+04</pdfrwt>
<totfact> 0.12998495E+00</totfact>
</mgrwt>
</event>
<event>
 6    1  0.2730965E-005  0.3437613E+04  0.7818608E-02  0.8128736E-01
         -1   -1    0    0    0  501 -0.00000000000E+00  0.00000000000E+00  0.20893571007E+04  0.20893571007E+04  0.00000000000E+00 0.  1.
          1   -1    0    0  501    0  0.00000000000E+00 -0.00000000000E+00 -0.14139733623E+04  0.14139733623E+04  0.00000000000E+00 0. -1.
         23    2    1    2    0    0  0.10986323711E+04  0.78631293051E+03  0.14187891295E+04  0.19612757665E+04  0.91427166562E+02 0.  0.
         13    1    3    3    0    0  0.62593915403E+03  0.40642391687E+03  0.73856311479E+03  0.10499789042E+04  0.00000000000E+00 0.  1.
        -13    1    3    3    0    0  0.47269321705E+03  0.37988901364E+03  0.68022601473E+03  0.91129686230E+03  0.00000000000E+00 0. -1.
         22    1    1    2    0    0 -0.10986323711E+04 -0.78631293051E+03 -0.74340539108E+03  0.15420546965E+04  0.00000000000E+00 0. -1.
<mgrwt>
<rscale>  0 0.34376127E+04</rscale>
<asrwt>0</asrwt>
<pdfrwt beam="1">  1        1 0.21753436E+00 0.34376127E+04</pdfrwt>
<pdfrwt beam="2">  1       -1 0.32143956E+00 0.34376127E+04</pdfrwt>
<totfact> 0.14750116E-01</totfact>
</mgrwt>
</event>
<event>
 6    1  0.2236204E-005  0.5267962E+04  0.7818608E-02  0.7788450E-01
          2   -1    0    0  501    0  0.00000000000E+00  0.00000000000E+00  0.29124776989E+04  0.29124776989E+04  0.00000000000E+00 0. -1.
         -2   -1    0    0    0  501 -0.00000000000E+00 -0.00000000000E+00 -0.23821144710E+04  0.23821144710E+04  0.00000000000E+00 0.  1.
         23    2    1    2    0    0 -0.91023994511E+03  0.18837120455E+04 -0.13418151520E+04  0.24871093625E+04  0.91308547684E+02 0.  0.
         13    1    3    3    0    0 -0.53372554597E+03  0.11495568966E+04 -0.86013412899E+03  0.15317228003E+04  0.00000000000E+00 0. -1.
        -13    1    3    3    0    0 -0.37651439913E+03  0.73415514886E+03 -0.48168102303E+03  0.95538656224E+03  0.00000000000E+00 0.  1.
         22    1    1    2    0    0  0.91023994511E+03 -0.18837120455E+04  0.18721783799E+04  0.28074828075E+04  0.00000000000E+00 0. -1.
<mgrwt>
<rscale>  0 0.52679618E+04</rscale>
<asrwt>0</asrwt>
<pdfrwt beam="1">  1        2 0.44807349E+00 0.52679618E+04</pdfrwt>
<pdfrwt beam="2">  1       -2 0.36647915E+00 0.52679618E+04</pdfrwt>
<totfact> 0.17201143E-02</totfact>
</mgrwt>
</event>
<event>
 6    1  0.2236204E-005  0.1116398E+04  0.7818608E-02  0.9189355E-01
          2   -1    0    0  501    0  0.00000000000E+00  0.00000000000E+00  0.22711978672E+04  0.22711978672E+04  0.00000000000E+00 0. -1.
         -2   -1    0    0    0  501 -0.00000000000E+00 -0.00000000000E+00 -0.13719027358E+03  0.13719027358E+03  0.00000000000E+00 0.  1.
         23    2    1    2    0    0 -0.14332019770E+03 -0.48662046024E+03  0.15568901850E+04  0.16400102034E+04  0.91576566234E+02 0.  0.
         11    1    3    3    0    0 -0.73989920802E+02 -0.22246096859E+03  0.86390311494E+03  0.89514914005E+03  0.00000000000E+00 0.  1.
        -11    1    3    3    0    0 -0.69330276903E+02 -0.26415949165E+03  0.69298707010E+03  0.74486106332E+03  0.00000000000E+00 0. -1.
         22    1    1    2    0    0  0.14332019770E+03  0.48662046024E+03  0.57711740854E+03  0.76837793737E+03  0.00000000000E+00 0.  1.
<mgrwt>
<rscale>  0 0.11163982E+04</rscale>
<asrwt>0</asrwt>
<pdfrwt beam="1">  1        2 0.34941503E+00 0.11163982E+04</pdfrwt>
<pdfrwt beam="2">  1       -2 0.21106198E-01 0.11163982E+04</pdfrwt>
<totfact> 0.91209830E+01</totfact>
</mgrwt>
</event>
<event>
 6    1  0.2236204E-005  0.1560655E+04  0.7818608E-02  0.8845091E-01
          2   -1    0    0  501    0  0.00000000000E+00  0.00000000000E+00  0.15515401355E+04  0.15515401355E+04  0.00000000000E+00 0. -1.
         -2   -1    0    0    0  501 -0.00000000000E+00 -0.00000000000E+00 -0.39245581812E+03  0.39245581812E+03  0.00000000000E+00 0.  1.
         23    2    1    2    0    0 -0.36915906865E+03  0.51607047767E+03  0.21154199758E+02  0.64111756003E+03  0.89314442956E+02 0.  0.
         13    1    3    3    0    0 -0.38902518724E+02  0.10232830386E+03 -0.14997939276E+02  0.11049627105E+03  0.00000000000E+00 0.  1.
        -13    1    3    3    0    0 -0.33025654993E+03  0.41374217381E+03  0.36152139034E+02  0.53062128898E+03  0.00000000000E+00 0. -1.
         22    1    1    2    0    0  0.36915906865E+03 -0.51607047767E+03  0.11379301177E+04  0.13028783936E+04  0.00000000000E+00 0. -1.
<mgrwt>
<rscale>  0 0.15606549E+04</rscale>
<asrwt>0</asrwt>
<pdfrwt beam="1">  1        2 0.23869848E+00 0.15606549E+04</pdfrwt>
<pdfrwt beam="2">  1       -2 0.60377819E-01 0.15606549E+04</pdfrwt>
<totfact> 0.29179724E+01</totfact>
</mgrwt>
</event>
<event>
 6    1  0.2236204E-005  0.3512493E+04  0.7818608E-02  0.8110836E-01
         -1   -1    0    0    0  501 -0.00000000000E+00  0.00000000000E+00  0.17002973397E+04  0.17002973397E+04  0.00000000000E+00 0.  1.
          1   -1    0    0  501    0  0.00000000000E+00 -0.00000000000E+00 -0.18140368142E+04  0.18140368142E+04  0.00000000000E+00 0. -1.
         23    2    1    2    0    0 -0.16550604535E+04  0.39159756444E+03  0.37651866052E+03  0.17443265844E+04  0.91297175660E+02 0.  0.
         13    1    3    3    0    0 -0.12943786138E+04  0.32465503097E+03  0.26127865006E+03  0.13598100669E+04  0.00000000000E+00 0.  1.
        -13    1    3    3    0    0 -0.36068183965E+03  0.66942533477E+02  0.11524001046E+03  0.38451651753E+03  0.00000000000E+00 0. -1.
         22    1    1    2    0    0  0.16550604535E+04 -0.39159756444E+03 -0.49025813503E+03  0.17700075695E+04  0.00000000000E+00 0. -1.
<mgrwt>
<rscale>  0 0.35124931E+04</rscale>
<asrwt>0</asrwt>
<pdfrwt beam="1">  1        1 0.27908259E+00 0.35124931E+04</pdfrwt>
<pdfrwt beam="2">  1       -1 0.26158421E+00 0.35124931E+04</pdfrwt>
<totfact> 0.19033164E-01</totfact>
</mgrwt>
</event>
<event>
 6    1  0.2236204E-005  0.1717620E+04  0.7818608E-02  0.8751378E-01
         -1   -1    0    0    0  501 -0.00000000000E+00  0.00000000000E+00  0.46645303892E+03  0.46645303892E+03  0.00000000000E+00 0.  1.
          1   -1    0    0  501    0  0.00000000000E+00 -0.00000000000E+00 -0.15811989061E+04  0.15811989061E+04  0.00000000000E+00 0. -1.
         23    2    1    2    0    0  0.65334578514E+03 -0.25854203573E+03 -0.11424821115E+04  0.13444634934E+04  0.92800920111E+02 0.  0.
         13    1    3    3    0    0  0.29877458608E+03 -0.11763678273E+03 -0.43524993127E+03  0.54087629696E+03  0.00000000000E+00 0. -1.
        -13    1    3    3    0    0  0.35457119906E+03 -0.14090525300E+03 -0.70723218027E+03  0.80358719647E+03  0.00000000000E+00 0.  1.
         22    1    1    2    0    0 -0.65334578514E+03  0.25854203573E+03  0.27736244365E+02  0.70318845159E+03  0.00000000000E+00 0.  1.
<mgrwt>
<rscale>  0 0.17176205E+04</rscale>
<asrwt>0</asrwt>
<pdfrwt beam="1">  1        1 0.24326137E+00 0.17176205E+04</pdfrwt>
<pdfrwt beam="2">  1       -1 0.71762006E-01 0.17176205E+04</pdfrwt>
<totfact> 0.10706211E+01</totfact>
</mgrwt>
</event>
<event>
 6    1  0.2236204E-005  0.2049173E+04  0.7818608E-02  0.8583969E-01
         -2   -1    0    0    0  501 -0.00000000000E+00  0.00000000000E+00  0.77183017463E+03  0.77183017463E+03  0.00000000000E+00 0.  1.
          2   -1    0    0  501    0  0.00000000000E+00 -0.00000000000E+00 -0.13601150071E+04  0.13601150071E+04  0.00000000000E+00 0. -1.
         23    2    1    2    0    0 -0.47297288198E+03  0.80717901331E+02  0.64470963328E+03  0.80888279497E+03  0.91772207552E+02 0.  0.
         13    1    3    3    0    0 -0.29427766976E+03  0.63180079664E+01  0.40836036938E+03  0.50338599049E+03  0.00000000000E+00 0. -1.
        -13    1    3    3    0    0 -0.17869521222E+03  0.74399893364E+02  0.23634926390E+03  0.30549680448E+03  0.00000000000E+00 0.  1.
         22    1    1    2    0    0  0.47297288198E+03 -0.80717901331E+02 -0.12329944657E+04  0.13230623867E+04  0.00000000000E+00 0. -1.
<mgrwt>
<rscale>  0 0.20491733E+04</rscale>
<asrwt>0</asrwt>
<pdfrwt beam="1">  1        2 0.20924846E+00 0.20491733E+04</pdfrwt>
<pdfrwt beam="2">  1       -2 0.11874310E+00 0.20491733E+04</pdfrwt>
<totfact> 0.76961134E+00</totfact>
</mgrwt>
</event>
<event>
 6    1  0.2236204E-005  0.1109496E+04  0.7818608E-02  0.9195985E-01
         -2   -1    0    0    0  501 -0.00000000000E+00  0.00000000000E+00  0.26120565103E+03  0.26120565103E+03  0.00000000000E+00 0.  1.
          2   -1    0    0  501    0  0.00000000000E+00 -0.00000000000E+00 -0.11781735859E+04  0.11781735859E+04  0.00000000000E+00 0. -1.
         23    2    1    2    0    0 -0.18197399706E+03  0.41859403437E+03 -0.86211481611E+03  0.97965718412E+03  0.90281454448E+02 0.  0.
         13    1    3    3    0    0 -0.84616548319E+02  0.29497890939E+03 -0.53805257602E+03  0.61941350631E+03  0.00000000000E+00 0. -1.
        -13    1    3    3    0    0 -0.97357448739E+02  0.12361512498E+03 -0.32406224009E+03  0.36024367781E+03  0.00000000000E+00 0.  1.
         22    1    1    2    0    0  0.18197399706E+03 -0.41859403437E+03 -0.54853118770E+02  0.45972205283E+03  0.00000000000E+00 0. -1.
<mgrwt>
<rscale>  0 0.11094965E+04</rscale>
<asrwt>0</asrwt>
<pdfrwt beam="1">  1        2 0.18125748E+00 0.11094965E+04</pdfrwt>
<pdfrwt beam="2">  1       -2 0.40185485E-01 0.11094965E+04</pdfrwt>
<totfact> 0.11344261E+02</totfact>
</mgrwt>
</event>
<event>
 6    1  0.2236204E-005  0.3157877E+04  0.7818608E-02  0.8200031E-01
          2   -1    0    0  501    0  0.00000000000E+00  0.00000000000E+00  0.22492220175E+04  0.22492220175E+04  0.00000000000E+00 0. -1.
         -2   -1    0    0    0  501 -0.00000000000E+00 -0.00000000000E+00 -0.11084042718E+04  0.11084042718E+04  0.00000000000E+00 0.  1.
         23    2    1    2    0    0 -0.33728677494E+03  0.39751250173E+03  0.21540109171E+04  0.22181795112E+04  0.93695010711E+02 0.  0.
         11    1    3    3    0    0 -0.63977444286E+01  0.45618202217E+02  0.21888960364E+03  0.22368417488E+03  0.00000000000E+00 0. -1.
        -11    1    3    3    0    0 -0.33088903051E+03  0.35189429952E+03  0.19351213135E+04  0.19944953363E+04  0.00000000000E+00 0.  1.
         22    1    1    2    0    0  0.33728677494E+03 -0.39751250173E+03 -0.10131931714E+04  0.11394467781E+04  0.00000000000E+00 0.  1.
<mgrwt>
<rscale>  0 0.31578773E+04</rscale>
<asrwt>0</asrwt>
<pdfrwt beam="1">  1        2 0.34603416E+00 0.31578773E+04</pdfrwt>
<pdfrwt beam="2">  1       -2 0.17052373E+00 0.31578773E+04</pdfrwt>
<totfact> 0.86490796E-01</totfact>
</mgrwt>
</event>
<event>
 6    1  0.2236204E-005  0.3304765E+04  0.7818608E-02  0.8161684E-01
         -2   -1    0    0    0  501 -0.00000000000E+00  0.00000000000E+00  0.85798300675E+03  0.85798300675E+03  0.00000000000E+00 0.  1.
          2   -1    0    0  501    0  0.00000000000E+00 -0.00000000000E+00 -0.31823101833E+04  0.31823101833E+04  0.00000000000E+00 0. -1.
         23    2    1    2    0    0  0.59627156561E+03 -0.10597010767E+04 -0.25288135975E+04  0.28072802751E+04  0.86128860586E+02 0.  0.
         13    1    3    3    0    0  0.29260152826E+03 -0.60555022991E+03 -0.13753396896E+04  0.15309689733E+04  0.00000000000E+00 0.  1.
        -13    1    3    3    0    0  0.30367003734E+03 -0.45415084677E+03 -0.11534739078E+04  0.12763113019E+04  0.00000000000E+00 0. -1.
         22    1    1    2    0    0 -0.59627156561E+03  0.10597010767E+04  0.20448642095E+03  0.12330129149E+04  0.00000000000E+00 0.  1.
<mgrwt>
<rscale>  0 0.33047651E+04</rscale>
<asrwt>0</asrwt>
<pdfrwt beam="1">  1        2 0.48958617E+00 0.33047651E+04</pdfrwt>
<pdfrwt beam="2">  1       -2 0.13199739E+00 0.33047651E+04</pdfrwt>
<totfact> 0.46405787E-01</totfact>
</mgrwt>
</event>
<event>
 6    1  0.2236204E-005  0.2063114E+04  0.7818608E-02  0.8577668E-01
         -2   -1    0    0    0  501 -0.00000000000E+00  0.00000000000E+00  0.35220202142E+03  0.35220202142E+03  0.00000000000E+00 0.  1.
          2   -1    0    0  501    0  0.00000000000E+00 -0.00000000000E+00 -0.30213044413E+04  0.30213044413E+04  0.00000000000E+00 0. -1.
         23    2    1    2    0    0 -0.65175794440E+03  0.54961416921E+03 -0.22808480354E+04  0.24367003888E+04  0.91525248134E+02 0.  0.
         11    1    3    3    0    0 -0.56975835628E+03  0.43835322335E+03 -0.18858239706E+04  0.20181947827E+04  0.00000000000E+00 0. -1.
        -11    1    3    3    0    0 -0.81999588116E+02  0.11126094586E+03 -0.39502406482E+03  0.41850560607E+03  0.00000000000E+00 0.  1.
         22    1    1    2    0    0  0.65175794440E+03 -0.54961416921E+03 -0.38825438447E+03  0.93680607392E+03  0.00000000000E+00 0. -1.
<mgrwt>
<rscale>  0 0.20631137E+04</rscale>
<asrwt>0</asrwt>
<pdfrwt beam="1">  1        2 0.46481608E+00 0.20631137E+04</pdfrwt>
<pdfrwt beam="2">  1       -2 0.54184925E-01 0.20631137E+04</pdfrwt>
<totfact> 0.50150477E+00</totfact>
</mgrwt>
</event>
<event>
 6    1  0.2236204E-005  0.1601605E+04  0.7818608E-02  0.8819562E-01
         -2   -1    0    0    0  501 -0.00000000000E+00  0.00000000000E+00  0.19597574513E+03  0.19597574513E+03  0.00000000000E+00 0.  1.
          2   -1    0    0  501    0  0.00000000000E+00 -0.00000000000E+00 -0.32722662419E+04  0.32722662419E+04  0.00000000000E+00 0. -1.
         23    2    1    2    0    0 -0.26198555245E+02  0.59301835118E+03 -0.26988252949E+04  0.27647953951E+04  0.89880337584E+02 0.  0.
         11    1    3    3    0    0 -0.53502768713E+00  0.77376162069E+02 -0.51449404450E+03  0.52028019233E+03  0.00000000000E+00 0. -1.
        -11    1    3    3    0    0 -0.25663527558E+02  0.51564218911E+03 -0.21843312504E+04  0.22445152027E+04  0.00000000000E+00 0.  1.
         22    1    1    2    0    0  0.26198555245E+02 -0.59301835118E+03 -0.37746520190E+03  0.70344659198E+03  0.00000000000E+00 0.  1.
<mgrwt>
<rscale>  0 0.16016052E+04</rscale>
<asrwt>0</asrwt>
<pdfrwt beam="1">  1        2 0.50342554E+00 0.16016052E+04</pdfrwt>
<pdfrwt beam="2">  1       -2 0.30150117E-01 0.16016052E+04</pdfrwt>
<totfact> 0.11422096E+01</totfact>
</mgrwt>
</event>
<event>
 6    1  0.2236204E-005  0.3713758E+04  0.7818608E-02  0.8064920E-01
          2   -1    0    0  501    0  0.00000000000E+00  0.00000000000E+00  0.30340412224E+04  0.30340412224E+04  0.00000000000E+00 0. -1.
         -2   -1    0    0    0  501 -0.00000000000E+00 -0.00000000000E+00 -0.11364378796E+04  0.11364378796E+04  0.00000000000E+00 0.  1.
         23    2    1    2    0    0  0.47941895119E+03  0.95774757155E+03  0.26512445583E+04  0.28608615917E+04  0.91150412282E+02 0.  0.
         11    1    3    3    0    0  0.24474368196E+03  0.38951891019E+03  0.11153051297E+04  0.12064534735E+04  0.00000000000E+00 0.  1.
        -11    1    3    3    0    0  0.23467526923E+03  0.56822866136E+03  0.15359394286E+04  0.16544081183E+04  0.00000000000E+00 0. -1.
         22    1    1    2    0    0 -0.47941895119E+03 -0.95774757155E+03 -0.75364121544E+03  0.13096175103E+04  0.00000000000E+00 0.  1.
<mgrwt>
<rscale>  0 0.37137579E+04</rscale>
<asrwt>0</asrwt>
<pdfrwt beam="1">  1        2 0.46677557E+00 0.37137579E+04</pdfrwt>
<pdfrwt beam="2">  1       -2 0.17483660E+00 0.37137579E+04</pdfrwt>
<totfact> 0.26345013E-01</totfact>
</mgrwt>
</event>
<event>
 6    1  0.2236204E-005  0.3254673E+04  0.7818608E-02  0.8174525E-01
         -4   -1    0    0    0  501 -0.00000000000E+00  0.00000000000E+00  0.20844012800E+04  0.20844012800E+04  0.00000000000E+00 0.  1.
          4   -1    0    0  501    0  0.00000000000E+00 -0.00000000000E+00 -0.12704964952E+04  0.12704964952E+04  0.00000000000E+00 0. -1.
         23    2    1    2    0    0  0.14480118260E+04  0.72501507207E+03  0.25584732717E+03  0.16420600044E+04  0.92293553802E+02 0.  0.
         13    1    3    3    0    0  0.57046002361E+03  0.24160960238E+03  0.76025711019E+02  0.62416323765E+03  0.00000000000E+00 0.  1.
        -13    1    3    3    0    0  0.87755180243E+03  0.48340546970E+03  0.17982161615E+03  0.10178967667E+04  0.00000000000E+00 0. -1.
         22    1    1    2    0    0 -0.14480118260E+04 -0.72501507207E+03  0.55805745764E+03  0.17128377708E+04  0.00000000000E+00 0.  1.
<mgrwt>
<rscale>  0 0.32546733E+04</rscale>
<asrwt>0</asrwt>
<pdfrwt beam="1">  1        4 0.19546100E+00 0.32546733E+04</pdfrwt>
<pdfrwt beam="2">  1       -4 0.32067712E+00 0.32546733E+04</pdfrwt>
<totfact> 0.53546839E-03</totfact>
</mgrwt>
</event>
<event>
 6    1  0.2236204E-005  0.3107256E+04  0.7818608E-02  0.8213749E-01
          2   -1    0    0  501    0  0.00000000000E+00  0.00000000000E+00  0.18077325770E+04  0.18077325770E+04  0.00000000000E+00 0. -1.
         -2   -1    0    0    0  501 -0.00000000000E+00 -0.00000000000E+00 -0.13352419784E+04  0.13352419784E+04  0.00000000000E+00 0.  1.
         23    2    1    2    0    0 -0.96187819393E+02  0.15049133506E+04 -0.13602211139E+03  0.15168429470E+04  0.91072617209E+02 0.  0.
         11    1    3    3    0    0 -0.21157119093E+02  0.99153932424E+03 -0.99062361341E+02  0.99670015884E+03  0.00000000000E+00 0. -1.
        -11    1    3    3    0    0 -0.75030700301E+02  0.51337402639E+03 -0.36959750045E+02  0.52014278817E+03  0.00000000000E+00 0.  1.
         22    1    1    2    0    0  0.96187819393E+02 -0.15049133506E+04  0.60851271006E+03  0.16261316084E+04  0.00000000000E+00 0. -1.
<mgrwt>
<rscale>  0 0.31072563E+04</rscale>
<asrwt>0</asrwt>
<pdfrwt beam="1">  1        2 0.27811271E+00 0.31072563E+04</pdfrwt>
<pdfrwt beam="2">  1       -2 0.20542184E+00 0.31072563E+04</pdfrwt>
<totfact> 0.88877520E-01</totfact>
</mgrwt>
</event>
<event>
 6    1  0.2236204E-005  0.5241103E+04  0.7818608E-02  0.7792354E-01
         -2   -1    0    0    0  501 -0.00000000000E+00  0.00000000000E+00  0.17483471096E+04  0.17483471096E+04  0.00000000000E+00 0.  1.
          2   -1    0    0  501    0  0.00000000000E+00 -0.00000000000E+00 -0.39278752858E+04  0.39278752858E+04  0.00000000000E+00 0. -1.
         23    2    1    2    0    0  0.23670394820E+04 -0.11148285775E+04 -0.12329439385E+04  0.28938240800E+04  0.91369491571E+02 0.  0.
         11    1    3    3    0    0  0.24633186229E+03 -0.95555047142E+02 -0.10227770131E+03  0.28332116334E+03  0.00000000000E+00 0.  1.
        -11    1    3    3    0    0  0.21207076197E+04 -0.10192735304E+04 -0.11306662372E+04  0.26105029167E+04  0.00000000000E+00 0. -1.
         22    1    1    2    0    0 -0.23670394820E+04  0.11148285775E+04 -0.94658423771E+03  0.27823983154E+04  0.00000000000E+00 0.  1.
<mgrwt>
<rscale>  0 0.52411027E+04</rscale>
<asrwt>0</asrwt>
<pdfrwt beam="1">  1        2 0.60428851E+00 0.52411027E+04</pdfrwt>
<pdfrwt beam="2">  1       -2 0.26897648E+00 0.52411027E+04</pdfrwt>
<totfact> 0.13665125E-02</totfact>
</mgrwt>
</event>
<event>
 6    1  0.2236204E-005  0.3130328E+04  0.7818608E-02  0.8207463E-01
         -2   -1    0    0    0  501 -0.00000000000E+00  0.00000000000E+00  0.79443825678E+03  0.79443825678E+03  0.00000000000E+00 0.  1.
          2   -1    0    0  501    0  0.00000000000E+00 -0.00000000000E+00 -0.30836116775E+04  0.30836116775E+04  0.00000000000E+00 0. -1.
         23    2    1    2    0    0 -0.80043342781E+03  0.13185714722E+04 -0.14642109349E+04  0.21287965214E+04  0.92393549255E+02 0.  0.
         13    1    3    3    0    0 -0.64510024562E+03  0.98725302048E+03 -0.11214680184E+04  0.16274253807E+04  0.00000000000E+00 0.  1.
        -13    1    3    3    0    0 -0.15533318218E+03  0.33131845168E+03 -0.34274291651E+03  0.50137114070E+03  0.00000000000E+00 0. -1.
         22    1    1    2    0    0  0.80043342781E+03 -0.13185714722E+04 -0.82496248579E+03  0.17492534129E+04  0.00000000000E+00 0. -1.
<mgrwt>
<rscale>  0 0.31303285E+04</rscale>
<asrwt>0</asrwt>
<pdfrwt beam="1">  1        2 0.47440180E+00 0.31303285E+04</pdfrwt>
<pdfrwt beam="2">  1       -2 0.12222127E+00 0.31303285E+04</pdfrwt>
<totfact> 0.66175410E-01</totfact>
</mgrwt>
</event>
<event>
 6    1  0.2236204E-005  0.4468369E+04  0.7818608E-02  0.7916198E-01
         -2   -1    0    0    0  501 -0.00000000000E+00  0.00000000000E+00  0.31099111098E+04  0.31099111098E+04  0.00000000000E+00 0.  1.
          2   -1    0    0  501    0  0.00000000000E+00 -0.00000000000E+00 -0.16050553570E+04  0.16050553570E+04  0.00000000000E+00 0. -1.
         23    2    1    2    0    0  0.11423319467E+04 -0.11063442915E+04 -0.90167782359E+03  0.18304693144E+04  0.93139924102E+02 0.  0.
         11    1    3    3    0    0  0.64256361840E+03 -0.56737288286E+03 -0.45730116094E+03  0.97155768933E+03  0.00000000000E+00 0. -1.
        -11    1    3    3    0    0  0.49976832833E+03 -0.53897140865E+03 -0.44437666265E+03  0.85891162505E+03  0.00000000000E+00 0.  1.
         22    1    1    2    0    0 -0.11423319467E+04  0.11063442915E+04  0.24065335764E+04  0.28844971524E+04  0.00000000000E+00 0.  1.
<mgrwt>
<rscale>  0 0.44683686E+04</rscale>
<asrwt>0</asrwt>
<pdfrwt beam="1">  1        2 0.24693159E+00 0.44683686E+04</pdfrwt>
<pdfrwt beam="2">  1       -2 0.47844786E+00 0.44683686E+04</pdfrwt>
<totfact> 0.19068011E-02</totfact>
</mgrwt>
</event>
<event>
 6    1  0.2236204E-005  0.1667104E+04  0.7818608E-02  0.8780352E-01
          2   -1    0    0  501    0  0.00000000000E+00  0.00000000000E+00  0.15724535740E+04  0.15724535740E+04  0.00000000000E+00 0. -1.
         -2   -1    0    0    0  501 -0.00000000000E+00 -0.00000000000E+00 -0.44186316466E+03  0.44186316466E+03  0.00000000000E+00 0.  1.
         23    2    1    2    0    0 -0.41385070897E+03  0.56233119741E+03  0.22144199908E+02  0.70430079062E+03  0.89780026652E+02 0.  0.
         13    1    3    3    0    0 -0.17265560689E+03  0.16690902472E+03  0.21715642062E+02  0.24112268710E+03  0.00000000000E+00 0.  1.
        -13    1    3    3    0    0 -0.24119510208E+03  0.39542217269E+03  0.42855784594E+00  0.46317810352E+03  0.00000000000E+00 0. -1.
         22    1    1    2    0    0  0.41385070897E+03 -0.56233119741E+03  0.11084462094E+04  0.13100159480E+04  0.00000000000E+00 0. -1.
<mgrwt>
<rscale>  0 0.16671045E+04</rscale>
<asrwt>0</asrwt>
<pdfrwt beam="1">  1        2 0.24191593E+00 0.16671045E+04</pdfrwt>
<pdfrwt beam="2">  1       -2 0.67978949E-01 0.16671045E+04</pdfrwt>
<totfact> 0.21841863E+01</totfact>
</mgrwt>
</event>
<event>
 6    1  0.2236204E-005  0.4457059E+04  0.7818608E-02  0.7918198E-01
          2   -1    0    0  501    0  0.00000000000E+00  0.00000000000E+00  0.19276616491E+04  0.19276616491E+04  0.00000000000E+00 0. -1.
         -2   -1    0    0    0  501 -0.00000000000E+00 -0.00000000000E+00 -0.25763569283E+04  0.25763569283E+04  0.00000000000E+00 0.  1.
         23    2    1    2    0    0  0.80211641857E+03  0.10312805306E+04  0.14981216024E+04  0.19909023833E+04  0.11132691571E+03 0.  0.
         13    1    3    3    0    0  0.47219755971E+03  0.60281484923E+03  0.96028359117E+03  0.12282104271E+04  0.00000000000E+00 0. -1.
        -13    1    3    3    0    0  0.32991885886E+03  0.42846568140E+03  0.53783801128E+03  0.76269195613E+03  0.00000000000E+00 0.  1.
         22    1    1    2    0    0 -0.80211641857E+03 -0.10312805306E+04 -0.21468168817E+04  0.25131161941E+04  0.00000000000E+00 0.  1.
<mgrwt>
<rscale>  0 0.44570593E+04</rscale>
<asrwt>0</asrwt>
<pdfrwt beam="1">  1        2 0.29656333E+00 0.44570593E+04</pdfrwt>
<pdfrwt beam="2">  1       -2 0.39636260E+00 0.44570593E+04</pdfrwt>
<totfact> 0.43693522E-02</totfact>
</mgrwt>
</event>
<event>
 6    1  0.2236204E-005  0.1878133E+04  0.7818608E-02  0.8665818E-01
          2   -1    0    0  501    0  0.00000000000E+00  0.00000000000E+00  0.62230250810E+03  0.62230250810E+03  0.00000000000E+00 0. -1.
         -2   -1    0    0    0  501 -0.00000000000E+00 -0.00000000000E+00 -0.14170692553E+04  0.14170692553E+04  0.00000000000E+00 0.  1.
         23    2    1    2    0    0 -0.37205643205E+03 -0.82820676369E+03 -0.14779854731E+03  0.92450841585E+03  0.92298257532E+02 0.  0.
         11    1    3    3    0    0 -0.12990984781E+03 -0.38300558005E+03 -0.40306252298E+02  0.40644118502E+03  0.00000000000E+00 0.  1.
        -11    1    3    3    0    0 -0.24214658424E+03 -0.44520118364E+03 -0.10749229501E+03  0.51806723084E+03  0.00000000000E+00 0. -1.
         22    1    1    2    0    0  0.37205643205E+03  0.82820676369E+03 -0.64696819992E+03  0.11148633476E+04  0.00000000000E+00 0.  1.
<mgrwt>
<rscale>  0 0.18781329E+04</rscale>
<asrwt>0</asrwt>
<pdfrwt beam="1">  1        2 0.95738847E-01 0.18781329E+04</pdfrwt>
<pdfrwt beam="2">  1       -2 0.21801065E+00 0.18781329E+04</pdfrwt>
<totfact> 0.45258469E+00</totfact>
</mgrwt>
</event>
<event>
 6    1  0.2236204E-005  0.1494840E+04  0.7818608E-02  0.8887892E-01
          2   -1    0    0  501    0  0.00000000000E+00  0.00000000000E+00  0.19418570053E+04  0.19418570053E+04  0.00000000000E+00 0.  1.
         -2   -1    0    0    0  501 -0.00000000000E+00 -0.00000000000E+00 -0.28768161358E+03  0.28768161358E+03  0.00000000000E+00 0. -1.
         23    2    1    2    0    0  0.13727885075E+03  0.57041477331E+03  0.14371976903E+03  0.60913907414E+03  0.78590986528E+02 0.  0.
         13    1    3    3    0    0  0.14166911385E+02  0.18284354913E+03  0.67399086761E+02  0.19538449717E+03  0.00000000000E+00 0.  1.
        -13    1    3    3    0    0  0.12311193936E+03  0.38757122418E+03  0.76320682264E+02  0.41375457697E+03  0.00000000000E+00 0. -1.
         22    1    1    2    0    0 -0.13727885075E+03 -0.57041477331E+03  0.15104556227E+04  0.16203995447E+04  0.00000000000E+00 0.  1.
<mgrwt>
<rscale>  0 0.14948399E+04</rscale>
<asrwt>0</asrwt>
<pdfrwt beam="1">  1        2 0.29874722E+00 0.14948399E+04</pdfrwt>
<pdfrwt beam="2">  1       -2 0.44258711E-01 0.14948399E+04</pdfrwt>
<totfact> 0.33689329E+01</totfact>
</mgrwt>
</event>
<event>
 6    1  0.2236204E-005  0.2387539E+04  0.7818608E-02  0.8444184E-01
         -2   -1    0    0    0  501 -0.00000000000E+00  0.00000000000E+00  0.78256555147E+03  0.78256555147E+03  0.00000000000E+00 0.  1.
          2   -1    0    0  501    0  0.00000000000E+00 -0.00000000000E+00 -0.18210425925E+04  0.18210425925E+04  0.00000000000E+00 0. -1.
         23    2    1    2    0    0  0.20082756831E+03 -0.82979099305E+03  0.38784720963E+03  0.94129479435E+03  0.82009923257E+02 0.  0.
         13    1    3    3    0    0 -0.35789049292E+01 -0.47035524974E+02  0.91853603740E+01  0.48057465760E+02  0.00000000000E+00 0. -1.
        -13    1    3    3    0    0  0.20440647324E+03 -0.78275546808E+03  0.37866184925E+03  0.89323732859E+03  0.00000000000E+00 0.  1.
         22    1    1    2    0    0 -0.20082756831E+03  0.82979099305E+03 -0.14263242507E+04  0.16623133496E+04  0.00000000000E+00 0. -1.
<mgrwt>
<rscale>  0 0.23875386E+04</rscale>
<asrwt>0</asrwt>
<pdfrwt beam="1">  1        2 0.28016040E+00 0.23875386E+04</pdfrwt>
<pdfrwt beam="2">  1       -2 0.12039470E+00 0.23875386E+04</pdfrwt>
<totfact> 0.39825552E+00</totfact>
</mgrwt>
</event>
<event>
 6    1  0.2236204E-005  0.1843527E+04  0.7818608E-02  0.8683489E-01
         -2   -1    0    0    0  501 -0.00000000000E+00  0.00000000000E+00  0.86740891757E+03  0.86740891757E+03  0.00000000000E+00 0.  1.
          2   -1    0    0  501    0  0.00000000000E+00 -0.00000000000E+00 -0.97952455635E+03  0.97952455635E+03  0.00000000000E+00 0. -1.
         23    2    1    2    0    0 -0.55305149343E+03  0.35894136310E+03  0.58578941829E+03  0.88684164226E+03  0.92919316249E+02 0.  0.
         11    1    3    3    0    0 -0.25680596176E+03  0.20043328010E+03  0.23938000693E+03  0.40425930970E+03  0.00000000000E+00 0.  1.
        -11    1    3    3    0    0 -0.29624553167E+03  0.15850808300E+03  0.34640941136E+03  0.48258233255E+03  0.00000000000E+00 0. -1.
         22    1    1    2    0    0  0.55305149343E+03 -0.35894136310E+03 -0.69790505707E+03  0.96009183166E+03  0.00000000000E+00 0. -1.
<mgrwt>
<rscale>  0 0.18435274E+04</rscale>
<asrwt>0</asrwt>
<pdfrwt beam="1">  1        2 0.15069609E+00 0.18435274E+04</pdfrwt>
<pdfrwt beam="2">  1       -2 0.13344753E+00 0.18435274E+04</pdfrwt>
<totfact> 0.99268916E+00</totfact>
</mgrwt>
</event>
<event>
 6    1  0.2236204E-005  0.2621907E+04  0.7818608E-02  0.8360798E-01
         -2   -1    0    0    0  501 -0.00000000000E+00  0.00000000000E+00  0.14504720625E+04  0.14504720625E+04  0.00000000000E+00 0.  1.
          2   -1    0    0  501    0  0.00000000000E+00 -0.00000000000E+00 -0.11848552135E+04  0.11848552135E+04  0.00000000000E+00 0. -1.
         23    2    1    2    0    0 -0.91979129472E+03  0.87187422632E+03  0.46366860675E+03  0.13525937919E+04  0.91327414976E+02 0.  0.
         11    1    3    3    0    0 -0.55156362900E+03  0.57981954777E+03  0.30832162839E+03  0.85759860736E+03  0.00000000000E+00 0.  1.
        -11    1    3    3    0    0 -0.36822766572E+03  0.29205467855E+03  0.15534697835E+03  0.49499518457E+03  0.00000000000E+00 0. -1.
         22    1    1    2    0    0  0.91979129472E+03 -0.87187422632E+03 -0.19805175769E+03  0.12827334840E+04  0.00000000000E+00 0. -1.
<mgrwt>
<rscale>  0 0.26219072E+04</rscale>
<asrwt>0</asrwt>
<pdfrwt beam="1">  1        2 0.18228542E+00 0.26219072E+04</pdfrwt>
<pdfrwt beam="2">  1       -2 0.22314955E+00 0.26219072E+04</pdfrwt>
<totfact> 0.16121369E+00</totfact>
</mgrwt>
</event>
<event>
 6    1  0.2236204E-005  0.2700507E+04  0.7818608E-02  0.8334840E-01
         -2   -1    0    0    0  501 -0.00000000000E+00  0.00000000000E+00  0.47657694013E+03  0.47657694013E+03  0.00000000000E+00 0.  1.
          2   -1    0    0  501    0  0.00000000000E+00 -0.00000000000E+00 -0.38255827070E+04  0.38255827070E+04  0.00000000000E+00 0. -1.
         23    2    1    2    0    0 -0.10340105396E+04 -0.69916110254E+03 -0.86199202013E+03  0.15194916073E+04  0.88433357341E+02 0.  0.
         13    1    3    3    0    0 -0.93743264759E+03 -0.64247633732E+03 -0.75347407067E+03  0.13635538082E+04  0.00000000000E+00 0.  1.
        -13    1    3    3    0    0 -0.96577892008E+02 -0.56684765214E+02 -0.10851794946E+03  0.15593779910E+03  0.00000000000E+00 0. -1.
         22    1    1    2    0    0  0.10340105396E+04  0.69916110254E+03 -0.24870137468E+04  0.27826680398E+04  0.00000000000E+00 0. -1.
<mgrwt>
<rscale>  0 0.27005070E+04</rscale>
<asrwt>0</asrwt>
<pdfrwt beam="1">  1        2 0.58855118E+00 0.27005070E+04</pdfrwt>
<pdfrwt beam="2">  1       -2 0.73319530E-01 0.27005070E+04</pdfrwt>
<totfact> 0.69218611E-01</totfact>
</mgrwt>
</event>
<event>
 6    1  0.2236204E-005  0.2134505E+04  0.7818608E-02  0.8546194E-01
         -2   -1    0    0    0  501 -0.00000000000E+00  0.00000000000E+00  0.61011646384E+03  0.61011646384E+03  0.00000000000E+00 0.  1.
          2   -1    0    0  501    0  0.00000000000E+00 -0.00000000000E+00 -0.18669015784E+04  0.18669015784E+04  0.00000000000E+00 0. -1.
         23    2    1    2    0    0  0.57642373134E+03 -0.60643279376E+03 -0.13947463126E+04  0.16290449628E+04  0.91897567926E+02 0.  0.
         13    1    3    3    0    0  0.48402397181E+03 -0.47866683977E+03 -0.10726362134E+04  0.12704131592E+04  0.00000000000E+00 0.  1.
        -13    1    3    3    0    0  0.92399759529E+02 -0.12776595399E+03 -0.32211009921E+03  0.35863180362E+03  0.00000000000E+00 0. -1.
         22    1    1    2    0    0 -0.57642373134E+03  0.60643279376E+03  0.13796119796E+03  0.84797307949E+03  0.00000000000E+00 0.  1.
<mgrwt>
<rscale>  0 0.21345045E+04</rscale>
<asrwt>0</asrwt>
<pdfrwt beam="1">  1        2 0.28721562E+00 0.21345045E+04</pdfrwt>
<pdfrwt beam="2">  1       -2 0.93864074E-01 0.21345045E+04</pdfrwt>
<totfact> 0.69777272E+00</totfact>
</mgrwt>
</event>
<event>
 6    1  0.2236204E-005  0.4873831E+04  0.7818608E-02  0.7848270E-01
          2   -1    0    0  501    0  0.00000000000E+00  0.00000000000E+00  0.36235917067E+04  0.36235917067E+04  0.00000000000E+00 0. -1.
         -2   -1    0    0    0  501 -0.00000000000E+00 -0.00000000000E+00 -0.16388592946E+04  0.16388592946E+04  0.00000000000E+00 0.  1.
         23    2    1    2    0    0 -0.12202731473E+04 -0.14388834862E+04  0.26567278273E+04  0.32596953799E+04  0.89213117121E+02 0.  0.
         11    1    3    3    0    0 -0.11577098877E+04 -0.13634725579E+04  0.24818308657E+04  0.30592211503E+04  0.00000000000E+00 0.  1.
        -11    1    3    3    0    0 -0.62563259565E+02 -0.75410928305E+02  0.17489696162E+03  0.20047422961E+03  0.00000000000E+00 0. -1.
         22    1    1    2    0    0  0.12202731473E+04  0.14388834862E+04 -0.67199541530E+03  0.20027556214E+04  0.00000000000E+00 0.  1.
<mgrwt>
<rscale>  0 0.48738309E+04</rscale>
<asrwt>0</asrwt>
<pdfrwt beam="1">  1        2 0.55747564E+00 0.48738309E+04</pdfrwt>
<pdfrwt beam="2">  1       -2 0.25213220E+00 0.48738309E+04</pdfrwt>
<totfact> 0.30361483E-02</totfact>
</mgrwt>
</event>
<event>
 6    1  0.2236204E-005  0.2179790E+04  0.7818608E-02  0.8526887E-01
         -2   -1    0    0    0  501 -0.00000000000E+00  0.00000000000E+00  0.90856895937E+03  0.90856895937E+03  0.00000000000E+00 0.  1.
          2   -1    0    0  501    0  0.00000000000E+00 -0.00000000000E+00 -0.13074092633E+04  0.13074092633E+04  0.00000000000E+00 0. -1.
         23    2    1    2    0    0  0.33283158486E+03  0.14341253568E+03 -0.12426236095E+04  0.12976567724E+04  0.91954580641E+02 0.  0.
         11    1    3    3    0    0  0.14139128029E+03  0.40522767857E+02 -0.36496112967E+03  0.39348470749E+03  0.00000000000E+00 0.  1.
        -11    1    3    3    0    0  0.19144030456E+03  0.10288976782E+03 -0.87766247984E+03  0.90417206496E+03  0.00000000000E+00 0. -1.
         22    1    1    2    0    0 -0.33283158486E+03 -0.14341253568E+03  0.84378330555E+03  0.91832145025E+03  0.00000000000E+00 0.  1.
<mgrwt>
<rscale>  0 0.21797903E+04</rscale>
<asrwt>0</asrwt>
<pdfrwt beam="1">  1        2 0.20113989E+00 0.21797903E+04</pdfrwt>
<pdfrwt beam="2">  1       -2 0.13977984E+00 0.21797903E+04</pdfrwt>
<totfact> 0.54051468E+00</totfact>
</mgrwt>
</event>
<event>
 6    1  0.2236204E-005  0.1164313E+04  0.7818608E-02  0.9144680E-01
         -4   -1    0    0    0  501 -0.00000000000E+00  0.00000000000E+00  0.11856675461E+03  0.11856675461E+03  0.00000000000E+00 0. -1.
          4   -1    0    0  501    0  0.00000000000E+00 -0.00000000000E+00 -0.28583565531E+04  0.28583565531E+04  0.00000000000E+00 0.  1.
         23    2    1    2    0    0 -0.29283726251E+03 -0.25564335779E+03 -0.24737724346E+04  0.25058899473E+04  0.93953080375E+02 0.  0.
         11    1    3    3    0    0 -0.19165702598E+03 -0.20871842285E+03 -0.19403834731E+04  0.19609650222E+04  0.00000000000E+00 0.  1.
        -11    1    3    3    0    0 -0.10118023653E+03 -0.46924934944E+02 -0.53338896147E+03  0.54492492511E+03  0.00000000000E+00 0. -1.
         22    1    1    2    0    0  0.29283726251E+03  0.25564335779E+03 -0.26601736390E+03  0.47103336038E+03  0.00000000000E+00 0. -1.
<mgrwt>
<rscale>  0 0.11643128E+04</rscale>
<asrwt>0</asrwt>
<pdfrwt beam="1">  1        4 0.43974718E+00 0.11643128E+04</pdfrwt>
<pdfrwt beam="2">  1       -4 0.18241038E-01 0.11643128E+04</pdfrwt>
<totfact> 0.19772579E-01</totfact>
</mgrwt>
</event>
<event>
 6    1  0.2236204E-005  0.4202174E+04  0.7818608E-02  0.7964959E-01
          1   -1    0    0  501    0  0.00000000000E+00  0.00000000000E+00  0.19880356231E+04  0.19880356231E+04  0.00000000000E+00 0. -1.
         -1   -1    0    0    0  501 -0.00000000000E+00 -0.00000000000E+00 -0.22205673134E+04  0.22205673134E+04  0.00000000000E+00 0.  1.
         23    2    1    2    0    0 -0.13816526389E+04  0.15169071357E+04  0.33221550732E+03  0.20804791925E+04  0.89751067567E+02 0.  0.
         13    1    3    3    0    0 -0.10009982033E+03  0.87658695412E+02  0.52162699552E+01  0.13315866619E+03  0.00000000000E+00 0.  1.
        -13    1    3    3    0    0 -0.12815528186E+04  0.14292484403E+04  0.32699923736E+03  0.19473205263E+04  0.00000000000E+00 0. -1.
         22    1    1    2    0    0  0.13816526389E+04 -0.15169071357E+04 -0.56474719764E+03  0.21281237441E+04  0.00000000000E+00 0.  1.
<mgrwt>
<rscale>  0 0.42021742E+04</rscale>
<asrwt>0</asrwt>
<pdfrwt beam="1">  1        1 0.30585164E+00 0.42021742E+04</pdfrwt>
<pdfrwt beam="2">  1       -1 0.34162574E+00 0.42021742E+04</pdfrwt>
<totfact> 0.41253665E-02</totfact>
</mgrwt>
</event>
<event>
 6    1  0.2236204E-005  0.7619299E+03  0.7818608E-02  0.9616818E-01
          2   -1    0    0  501    0  0.00000000000E+00  0.00000000000E+00  0.11545135951E+04  0.11545135951E+04  0.00000000000E+00 0.  1.
         -2   -1    0    0    0  501 -0.00000000000E+00 -0.00000000000E+00 -0.12571033509E+03  0.12571033509E+03  0.00000000000E+00 0. -1.
         23    2    1    2    0    0  0.22865367108E+03 -0.36266026406E+02  0.10185037956E+04  0.10484831161E+04  0.91482987752E+02 0.  0.
         13    1    3    3    0    0  0.19098614678E+02  0.16906217748E+02  0.21110018953E+03  0.21263552690E+03  0.00000000000E+00 0. -1.
        -13    1    3    3    0    0  0.20955505641E+03 -0.53172244154E+02  0.80740360607E+03  0.83584758917E+03  0.00000000000E+00 0.  1.
         22    1    1    2    0    0 -0.22865367108E+03  0.36266026406E+02  0.10299464421E+02  0.23174081414E+03  0.00000000000E+00 0. -1.
<mgrwt>
<rscale>  0 0.76192989E+03</rscale>
<asrwt>0</asrwt>
<pdfrwt beam="1">  1        2 0.17761747E+00 0.76192989E+03</pdfrwt>
<pdfrwt beam="2">  1       -2 0.19340052E-01 0.76192989E+03</pdfrwt>
<totfact> 0.45974836E+02</totfact>
</mgrwt>
</event>
<event>
 6    1  0.2236204E-005  0.1468011E+04  0.7818608E-02  0.8906008E-01
         -2   -1    0    0    0  501 -0.00000000000E+00  0.00000000000E+00  0.10251718158E+04  0.10251718158E+04  0.00000000000E+00 0.  1.
          2   -1    0    0  501    0  0.00000000000E+00 -0.00000000000E+00 -0.52553567475E+03  0.52553567475E+03  0.00000000000E+00 0. -1.
         23    2    1    2    0    0  0.47952343521E+03 -0.10922423355E+01 -0.33232479093E+03  0.59044559385E+03  0.90787194671E+02 0.  0.
         11    1    3    3    0    0  0.27598827206E+02 -0.10540773076E+02 -0.48229333237E+02  0.56558569153E+02  0.00000000000E+00 0. -1.
        -11    1    3    3    0    0  0.45192460801E+03  0.94485307405E+01 -0.28409545769E+03  0.53388702470E+03  0.00000000000E+00 0.  1.
         22    1    1    2    0    0 -0.47952343521E+03  0.10922423355E+01  0.83196093197E+03  0.96026189669E+03  0.00000000000E+00 0.  1.
<mgrwt>
<rscale>  0 0.14680114E+04</rscale>
<asrwt>0</asrwt>
<pdfrwt beam="1">  1        2 0.80851642E-01 0.14680114E+04</pdfrwt>
<pdfrwt beam="2">  1       -2 0.15771874E+00 0.14680114E+04</pdfrwt>
<totfact> 0.14722312E+01</totfact>
</mgrwt>
</event>
<event>
 6    1  0.2236204E-005  0.3283128E+04  0.7818608E-02  0.8167202E-01
         -2   -1    0    0    0  501 -0.00000000000E+00  0.00000000000E+00  0.19093769254E+04  0.19093769254E+04  0.00000000000E+00 0.  1.
          2   -1    0    0  501    0  0.00000000000E+00 -0.00000000000E+00 -0.14113153570E+04  0.14113153570E+04  0.00000000000E+00 0. -1.
         23    2    1    2    0    0  0.16386939090E+04 -0.63378833608E+02  0.28391587368E+03  0.16668503969E+04  0.91909836937E+02 0.  0.
         11    1    3    3    0    0  0.96055889298E+03 -0.82426743757E+02  0.16566994583E+03  0.97821985562E+03  0.00000000000E+00 0. -1.
        -11    1    3    3    0    0  0.67813501605E+03  0.19047910148E+02  0.11824592786E+03  0.68863054124E+03  0.00000000000E+00 0.  1.
         22    1    1    2    0    0 -0.16386939090E+04  0.63378833608E+02  0.21414569472E+03  0.16538418856E+04  0.00000000000E+00 0. -1.
<mgrwt>
<rscale>  0 0.32831284E+04</rscale>
<asrwt>0</asrwt>
<pdfrwt beam="1">  1        2 0.21712544E+00 0.32831284E+04</pdfrwt>
<pdfrwt beam="2">  1       -2 0.29375030E+00 0.32831284E+04</pdfrwt>
<totfact> 0.41380859E-01</totfact>
</mgrwt>
</event>
<event>
 6    1  0.2236204E-005  0.3888531E+04  0.7818608E-02  0.8027419E-01
         -2   -1    0    0    0  501 -0.00000000000E+00  0.00000000000E+00  0.11050092585E+04  0.11050092585E+04  0.00000000000E+00 0.  1.
          2   -1    0    0  501    0  0.00000000000E+00 -0.00000000000E+00 -0.34209386006E+04  0.34209386006E+04  0.00000000000E+00 0. -1.
         23    2    1    2    0    0  0.14036633669E+04  0.37155014584E+03  0.34424957749E+03  0.14952924443E+04  0.95243708844E+02 0.  0.
         11    1    3    3    0    0  0.83473804371E+03  0.26914522014E+03  0.20623899839E+03  0.90097795512E+03  0.00000000000E+00 0.  1.
        -11    1    3    3    0    0  0.56892532316E+03  0.10240492570E+03  0.13801057910E+03  0.59431448921E+03  0.00000000000E+00 0. -1.
         22    1    1    2    0    0 -0.14036633669E+04 -0.37155014584E+03 -0.26601789196E+04  0.30306554147E+04  0.00000000000E+00 0. -1.
<mgrwt>
<rscale>  0 0.38885313E+04</rscale>
<asrwt>0</asrwt>
<pdfrwt beam="1">  1        2 0.52629825E+00 0.38885313E+04</pdfrwt>
<pdfrwt beam="2">  1       -2 0.17000142E+00 0.38885313E+04</pdfrwt>
<totfact> 0.15624480E-01</totfact>
</mgrwt>
</event>
<event>
 6    1  0.2236204E-005  0.2187200E+04  0.7818608E-02  0.8523775E-01
          2   -1    0    0  501    0  0.00000000000E+00  0.00000000000E+00  0.16244584795E+04  0.16244584795E+04  0.00000000000E+00 0. -1.
         -2   -1    0    0    0  501 -0.00000000000E+00 -0.00000000000E+00 -0.73622111075E+03  0.73622111075E+03  0.00000000000E+00 0.  1.
         23    2    1    2    0    0  0.39369525343E+03  0.51073274697E+03 -0.50638947486E+03  0.82418099789E+03  0.83666753506E+02 0.  0.
         11    1    3    3    0    0  0.20729006902E+03  0.20237527230E+03 -0.21444890002E+03  0.36043481279E+03  0.00000000000E+00 0. -1.
        -11    1    3    3    0    0  0.18640518441E+03  0.30835747467E+03 -0.29194057484E+03  0.46374618511E+03  0.00000000000E+00 0.  1.
         22    1    1    2    0    0 -0.39369525343E+03 -0.51073274697E+03  0.13946268436E+04  0.15364985923E+04  0.00000000000E+00 0. -1.
<mgrwt>
<rscale>  0 0.21871997E+04</rscale>
<asrwt>0</asrwt>
<pdfrwt beam="1">  1        2 0.24991669E+00 0.21871997E+04</pdfrwt>
<pdfrwt beam="2">  1       -2 0.11326479E+00 0.21871997E+04</pdfrwt>
<totfact> 0.60512560E+00</totfact>
</mgrwt>
</event>
<event>
 6    1  0.2236204E-005  0.3947146E+04  0.7818608E-02  0.8015295E-01
         -1   -1    0    0    0  501 -0.00000000000E+00  0.00000000000E+00  0.88753005784E+03  0.88753005784E+03  0.00000000000E+00 0.  1.
          1   -1    0    0  501    0  0.00000000000E+00 -0.00000000000E+00 -0.43885725244E+04  0.43885725244E+04  0.00000000000E+00 0. -1.
         23    2    1    2    0    0 -0.11724623331E+04  0.22255390471E+03 -0.38507462719E+04  0.40325227036E+04  0.93778151595E+02 0.  0.
         13    1    3    3    0    0 -0.77154111037E+03  0.16134596996E+03 -0.26804718304E+04  0.27939644666E+04  0.00000000000E+00 0. -1.
        -13    1    3    3    0    0 -0.40092122271E+03  0.61207934750E+02 -0.11702744415E+04  0.12385582370E+04  0.00000000000E+00 0.  1.
         22    1    1    2    0    0  0.11724623331E+04 -0.22255390471E+03  0.34970380535E+03  0.12435798786E+04  0.00000000000E+00 0.  1.
<mgrwt>
<rscale>  0 0.39471458E+04</rscale>
<asrwt>0</asrwt>
<pdfrwt beam="1">  1        1 0.67516500E+00 0.39471458E+04</pdfrwt>
<pdfrwt beam="2">  1       -1 0.13654309E+00 0.39471458E+04</pdfrwt>
<totfact> 0.14594091E-02</totfact>
</mgrwt>
</event>
<event>
 6    1  0.2236204E-005  0.1949243E+04  0.7818608E-02  0.8630726E-01
         -2   -1    0    0    0  501 -0.00000000000E+00  0.00000000000E+00  0.14223288683E+04  0.14223288683E+04  0.00000000000E+00 0.  1.
          2   -1    0    0  501    0  0.00000000000E+00 -0.00000000000E+00 -0.66783906095E+03  0.66783906095E+03  0.00000000000E+00 0. -1.
         23    2    1    2    0    0 -0.88108455246E+03 -0.11708131059E+03  0.80040104268E+03  0.12001533993E+04  0.98530862786E+02 0.  0.
         11    1    3    3    0    0 -0.55848971370E+03 -0.26132827627E+02  0.50197412729E+03  0.75137987028E+03  0.00000000000E+00 0. -1.
        -11    1    3    3    0    0 -0.32259483876E+03 -0.90948482960E+02  0.29842691539E+03  0.44877352905E+03  0.00000000000E+00 0.  1.
         22    1    1    2    0    0  0.88108455246E+03  0.11708131059E+03 -0.45911235368E+02  0.89001452989E+03  0.00000000000E+00 0. -1.
<mgrwt>
<rscale>  0 0.19492427E+04</rscale>
<asrwt>0</asrwt>
<pdfrwt beam="1">  1        2 0.10274447E+00 0.19492427E+04</pdfrwt>
<pdfrwt beam="2">  1       -2 0.21881983E+00 0.19492427E+04</pdfrwt>
<totfact> 0.40755226E+00</totfact>
</mgrwt>
</event>
<event>
 6    1  0.2236204E-005  0.1930527E+04  0.7818608E-02  0.8639808E-01
          2   -1    0    0  501    0  0.00000000000E+00  0.00000000000E+00  0.42940399756E+04  0.42940399756E+04  0.00000000000E+00 0. -1.
         -2   -1    0    0    0  501 -0.00000000000E+00 -0.00000000000E+00 -0.21698308524E+03  0.21698308524E+03  0.00000000000E+00 0.  1.
         23    2    1    2    0    0  0.45695467086E+03 -0.67515404917E+03  0.84494124334E+03  0.11776745766E+04  0.91384585425E+02 0.  0.
         13    1    3    3    0    0  0.10773112192E+03 -0.21277450648E+03  0.20624562413E+03  0.31530341373E+03  0.00000000000E+00 0. -1.
        -13    1    3    3    0    0  0.34922354893E+03 -0.46237954269E+03  0.63869561920E+03  0.86237116291E+03  0.00000000000E+00 0.  1.
         22    1    1    2    0    0 -0.45695467086E+03  0.67515404917E+03  0.32321156470E+04  0.33333484842E+04  0.00000000000E+00 0. -1.
<mgrwt>
<rscale>  0 0.19305274E+04</rscale>
<asrwt>0</asrwt>
<pdfrwt beam="1">  1        2 0.66062147E+00 0.19305274E+04</pdfrwt>
<pdfrwt beam="2">  1       -2 0.33382016E-01 0.19305274E+04</pdfrwt>
<totfact> 0.15280462E+00</totfact>
</mgrwt>
</event>
<event>
 6    1  0.2236204E-005  0.3449586E+04  0.7818608E-02  0.8125842E-01
          1   -1    0    0  501    0  0.00000000000E+00  0.00000000000E+00  0.18380918977E+04  0.18380918977E+04  0.00000000000E+00 0. -1.
         -1   -1    0    0    0  501 -0.00000000000E+00 -0.00000000000E+00 -0.16184780221E+04  0.16184780221E+04  0.00000000000E+00 0.  1.
         23    2    1    2    0    0 -0.13677765247E+04 -0.98754903627E+03 -0.24365461849E+03  0.17070890201E+04  0.93378953957E+02 0.  0.
         11    1    3    3    0    0 -0.62905615340E+03 -0.39800055295E+03 -0.98660358741E+02  0.75089942780E+03  0.00000000000E+00 0. -1.
        -11    1    3    3    0    0 -0.73872037127E+03 -0.58954848333E+03 -0.14499425975E+03  0.95618959233E+03  0.00000000000E+00 0.  1.
         22    1    1    2    0    0  0.13677765247E+04  0.98754903627E+03  0.46326849408E+03  0.17494808996E+04  0.00000000000E+00 0. -1.
<mgrwt>
<rscale>  0 0.34495863E+04</rscale>
<asrwt>0</asrwt>
<pdfrwt beam="1">  1        1 0.28278337E+00 0.34495863E+04</pdfrwt>
<pdfrwt beam="2">  1       -1 0.24899662E+00 0.34495863E+04</pdfrwt>
<totfact> 0.22258946E-01</totfact>
</mgrwt>
</event>
<event>
 6    1  0.2236204E-005  0.1576817E+04  0.7818608E-02  0.8834918E-01
          1   -1    0    0  501    0  0.00000000000E+00  0.00000000000E+00  0.23720174155E+04  0.23720174155E+04  0.00000000000E+00 0. -1.
         -1   -1    0    0    0  501 -0.00000000000E+00 -0.00000000000E+00 -0.26205048569E+03  0.26205048569E+03  0.00000000000E+00 0.  1.
         23    2    1    2    0    0 -0.57820773106E+01  0.55126264815E+02  0.23678781559E+04  0.23702677153E+04  0.90828098545E+02 0.  0.
         11    1    3    3    0    0 -0.28005991953E+02 -0.12414532746E+02  0.43232506944E+03  0.43340906990E+03  0.00000000000E+00 0.  1.
        -11    1    3    3    0    0  0.22223914643E+02  0.67540797561E+02  0.19355530865E+04  0.19368586454E+04  0.00000000000E+00 0. -1.
         22    1    1    2    0    0  0.57820773106E+01 -0.55126264815E+02 -0.25791122614E+03  0.26380018586E+03  0.00000000000E+00 0.  1.
<mgrwt>
<rscale>  0 0.15768174E+04</rscale>
<asrwt>0</asrwt>
<pdfrwt beam="1">  1        1 0.36492574E+00 0.15768174E+04</pdfrwt>
<pdfrwt beam="2">  1       -1 0.40315461E-01 0.15768174E+04</pdfrwt>
<totfact> 0.96010334E+00</totfact>
</mgrwt>
</event>
<event>
 6    1  0.2236204E-005  0.1746587E+04  0.7818608E-02  0.8735231E-01
         -2   -1    0    0    0  501 -0.00000000000E+00  0.00000000000E+00  0.15915171154E+04  0.15915171154E+04  0.00000000000E+00 0.  1.
          2   -1    0    0  501    0  0.00000000000E+00 -0.00000000000E+00 -0.47919131905E+03  0.47919131905E+03  0.00000000000E+00 0. -1.
         23    2    1    2    0    0  0.33691023977E+03  0.26108281678E+03 -0.34482545680E+03  0.55249813233E+03  0.68387452724E+02 0.  0.
         11    1    3    3    0    0  0.79405465704E+02  0.41952839943E+02 -0.44365565180E+02  0.10016772003E+03  0.00000000000E+00 0. -1.
        -11    1    3    3    0    0  0.25750477407E+03  0.21912997684E+03 -0.30045989162E+03  0.45233041230E+03  0.00000000000E+00 0.  1.
         22    1    1    2    0    0 -0.33691023977E+03 -0.26108281678E+03  0.14571512531E+04  0.15182103021E+04  0.00000000000E+00 0.  1.
<mgrwt>
<rscale>  0 0.17465866E+04</rscale>
<asrwt>0</asrwt>
<pdfrwt beam="1">  1        2 0.73721742E-01 0.17465866E+04</pdfrwt>
<pdfrwt beam="2">  1       -2 0.24484878E+00 0.17465866E+04</pdfrwt>
<totfact> 0.42397559E+00</totfact>
</mgrwt>
</event>
<event>
 6    1  0.2236204E-005  0.4989023E+04  0.7818608E-02  0.7830203E-01
          2   -1    0    0  501    0  0.00000000000E+00  0.00000000000E+00  0.19809386067E+04  0.19809386067E+04  0.00000000000E+00 0. -1.
         -2   -1    0    0    0  501 -0.00000000000E+00 -0.00000000000E+00 -0.31412324219E+04  0.31412324219E+04  0.00000000000E+00 0.  1.
         23    2    1    2    0    0 -0.13235657569E+04  0.16431737332E+04  0.78428350114E+03  0.22528109658E+04  0.90611295185E+02 0.  0.
         11    1    3    3    0    0 -0.76133565189E+03  0.97074277646E+03  0.50286488527E+03  0.13322336904E+04  0.00000000000E+00 0.  1.
        -11    1    3    3    0    0 -0.56223010505E+03  0.67243095676E+03  0.28141861587E+03  0.92057727540E+03  0.00000000000E+00 0. -1.
         22    1    1    2    0    0  0.13235657569E+04 -0.16431737332E+04 -0.19445773163E+04  0.28693600627E+04  0.00000000000E+00 0. -1.
<mgrwt>
<rscale>  0 0.49890234E+04</rscale>
<asrwt>0</asrwt>
<pdfrwt beam="1">  1        2 0.30475979E+00 0.49890234E+04</pdfrwt>
<pdfrwt beam="2">  1       -2 0.48326652E+00 0.49890234E+04</pdfrwt>
<totfact> 0.10551217E-02</totfact>
</mgrwt>
</event>
<event>
 6    1  0.2236204E-005  0.1780994E+04  0.7818608E-02  0.8716472E-01
         -2   -1    0    0    0  501 -0.00000000000E+00  0.00000000000E+00  0.30288707187E+03  0.30288707187E+03  0.00000000000E+00 0.  1.
          2   -1    0    0  501    0  0.00000000000E+00 -0.00000000000E+00 -0.26180888732E+04  0.26180888732E+04  0.00000000000E+00 0. -1.
         23    2    1    2    0    0  0.55926826299E+02  0.70697345381E+03 -0.20375400422E+04  0.21593754417E+04  0.91616593940E+02 0.  0.
         11    1    3    3    0    0  0.41358872981E+02  0.41476674701E+03 -0.13281618017E+04  0.13920329674E+04  0.00000000000E+00 0.  1.
        -11    1    3    3    0    0  0.14567953318E+02  0.29220670680E+03 -0.70937824051E+03  0.76734247430E+03  0.00000000000E+00 0. -1.
         22    1    1    2    0    0 -0.55926826299E+02 -0.70697345381E+03 -0.27766175913E+03  0.76160050340E+03  0.00000000000E+00 0.  1.
<mgrwt>
<rscale>  0 0.17809944E+04</rscale>
<asrwt>0</asrwt>
<pdfrwt beam="1">  1        2 0.40278291E+00 0.17809944E+04</pdfrwt>
<pdfrwt beam="2">  1       -2 0.46598010E-01 0.17809944E+04</pdfrwt>
<totfact> 0.12280352E+01</totfact>
</mgrwt>
</event>
<event>
 6    1  0.2236204E-005  0.1832811E+04  0.7818608E-02  0.8689043E-01
         -2   -1    0    0    0  501 -0.00000000000E+00  0.00000000000E+00  0.16615543825E+04  0.16615543825E+04  0.00000000000E+00 0. -1.
          2   -1    0    0  501    0  0.00000000000E+00 -0.00000000000E+00 -0.50542989167E+03  0.50542989167E+03  0.00000000000E+00 0.  1.
         23    2    1    2    0    0  0.15883922416E+03 -0.15880104578E+03  0.16271110626E+04  0.16451835248E+04  0.93224186074E+02 0.  0.
         11    1    3    3    0    0  0.10196094218E+03 -0.15254485612E+03  0.11315066761E+04  0.11462867551E+04  0.00000000000E+00 0. -1.
        -11    1    3    3    0    0  0.56878281983E+02 -0.62561896658E+01  0.49560438653E+03  0.49889676970E+03  0.00000000000E+00 0.  1.
         22    1    1    2    0    0 -0.15883922416E+03  0.15880104578E+03 -0.47098657178E+03  0.52180074939E+03  0.00000000000E+00 0.  1.
<mgrwt>
<rscale>  0 0.18328112E+04</rscale>
<asrwt>0</asrwt>
<pdfrwt beam="1">  1        2 0.77758446E-01 0.18328112E+04</pdfrwt>
<pdfrwt beam="2">  1       -2 0.25562375E+00 0.18328112E+04</pdfrwt>
<totfact> 0.33981824E+00</totfact>
</mgrwt>
</event>
<event>
 6    1  0.2236204E-005  0.1899976E+04  0.7818608E-02  0.8654868E-01
         -2   -1    0    0    0  501 -0.00000000000E+00  0.00000000000E+00  0.16327069990E+04  0.16327069990E+04  0.00000000000E+00 0.  1.
          2   -1    0    0  501    0  0.00000000000E+00 -0.00000000000E+00 -0.55274912014E+03  0.55274912014E+03  0.00000000000E+00 0. -1.
         23    2    1    2    0    0 -0.19369017617E+03  0.92759801603E+03  0.54034312020E+03  0.10949800527E+04  0.95166509755E+02 0.  0.
         11    1    3    3    0    0 -0.42767709122E+02  0.42586063646E+03  0.25921204445E+03  0.50037710042E+03  0.00000000000E+00 0.  1.
        -11    1    3    3    0    0 -0.15092246705E+03  0.50173737956E+03  0.28113107574E+03  0.59460295228E+03  0.00000000000E+00 0. -1.
         22    1    1    2    0    0  0.19369017617E+03 -0.92759801603E+03  0.53961475864E+03  0.10904760664E+04  0.00000000000E+00 0.  1.
<mgrwt>
<rscale>  0 0.18999762E+04</rscale>
<asrwt>0</asrwt>
<pdfrwt beam="1">  1        2 0.85038327E-01 0.18999762E+04</pdfrwt>
<pdfrwt beam="2">  1       -2 0.25118569E+00 0.18999762E+04</pdfrwt>
<totfact> 0.32384718E+00</totfact>
</mgrwt>
</event>
<event>
 6    1  0.2236204E-005  0.1459462E+04  0.7818608E-02  0.8911867E-01
          2   -1    0    0  501    0  0.00000000000E+00  0.00000000000E+00  0.21093287645E+04  0.21093287645E+04  0.00000000000E+00 0. -1.
         -2   -1    0    0    0  501 -0.00000000000E+00 -0.00000000000E+00 -0.25245328847E+03  0.25245328847E+03  0.00000000000E+00 0.  1.
         23    2    1    2    0    0 -0.67163715839E+02 -0.32117670425E+03  0.19816841618E+04  0.20107227301E+04  0.90930413030E+02 0.  0.
         13    1    3    3    0    0 -0.70544809395E+02 -0.30690565325E+03  0.17174552019E+04  0.17460870599E+04  0.00000000000E+00 0. -1.
        -13    1    3    3    0    0  0.33810935565E+01 -0.14271051005E+02  0.26422895989E+03  0.26463567019E+03  0.00000000000E+00 0.  1.
         22    1    1    2    0    0  0.67163715839E+02  0.32117670425E+03 -0.12480868585E+03  0.35105932283E+03  0.00000000000E+00 0.  1.
<mgrwt>
<rscale>  0 0.14594615E+04</rscale>
<asrwt>0</asrwt>
<pdfrwt beam="1">  1        2 0.32451211E+00 0.14594615E+04</pdfrwt>
<pdfrwt beam="2">  1       -2 0.38838969E-01 0.14594615E+04</pdfrwt>
<totfact> 0.35278589E+01</totfact>
</mgrwt>
</event>
<event>
 6    1  0.2236204E-005  0.2528812E+04  0.7818608E-02  0.8392792E-01
          2   -1    0    0  501    0  0.00000000000E+00  0.00000000000E+00  0.36112800087E+04  0.36112800087E+04  0.00000000000E+00 0. -1.
         -2   -1    0    0    0  501 -0.00000000000E+00 -0.00000000000E+00 -0.44270257375E+03  0.44270257375E+03  0.00000000000E+00 0.  1.
         23    2    1    2    0    0  0.10873674568E+04  0.25367170017E+03  0.25316785555E+04  0.27685419965E+04  0.93333597259E+02 0.  0.
         13    1    3    3    0    0  0.48963742839E+03  0.13130823285E+03  0.10424061458E+04  0.11591364182E+04  0.00000000000E+00 0. -1.
        -13    1    3    3    0    0  0.59773002837E+03  0.12236346733E+03  0.14892724097E+04  0.16094055782E+04  0.00000000000E+00 0.  1.
         22    1    1    2    0    0 -0.10873674568E+04 -0.25367170017E+03  0.63689887951E+03  0.12854405860E+04  0.00000000000E+00 0.  1.
<mgrwt>
<rscale>  0 0.25288123E+04</rscale>
<asrwt>0</asrwt>
<pdfrwt beam="1">  1        2 0.55558152E+00 0.25288123E+04</pdfrwt>
<pdfrwt beam="2">  1       -2 0.68108091E-01 0.25288123E+04</pdfrwt>
<totfact> 0.11915162E+00</totfact>
</mgrwt>
</event>
<event>
 6    1  0.2236204E-005  0.1680120E+04  0.7818608E-02  0.8772784E-01
         -2   -1    0    0    0  501 -0.00000000000E+00  0.00000000000E+00  0.52901281008E+03  0.52901281008E+03  0.00000000000E+00 0.  1.
          2   -1    0    0  501    0  0.00000000000E+00 -0.00000000000E+00 -0.13339960962E+04  0.13339960962E+04  0.00000000000E+00 0. -1.
         23    2    1    2    0    0 -0.36269793938E+03  0.71681778048E+03 -0.14234443264E+03  0.82163108064E+03  0.97150242024E+02 0.  0.
         13    1    3    3    0    0 -0.20186543304E+03  0.43181513015E+03 -0.13029997937E+03  0.49415791434E+03  0.00000000000E+00 0.  1.
        -13    1    3    3    0    0 -0.16083250634E+03  0.28500265033E+03 -0.12044453276E+02  0.32747316630E+03  0.00000000000E+00 0. -1.
         22    1    1    2    0    0  0.36269793938E+03 -0.71681778048E+03 -0.66263885352E+03  0.10413778257E+04  0.00000000000E+00 0. -1.
<mgrwt>
<rscale>  0 0.16801203E+04</rscale>
<asrwt>0</asrwt>
<pdfrwt beam="1">  1        2 0.20523017E+00 0.16801203E+04</pdfrwt>
<pdfrwt beam="2">  1       -2 0.81386587E-01 0.16801203E+04</pdfrwt>
<totfact> 0.20018595E+01</totfact>
</mgrwt>
</event>
<event>
 6    1  0.2236204E-005  0.4486007E+04  0.7818608E-02  0.7913091E-01
          2   -1    0    0  501    0  0.00000000000E+00  0.00000000000E+00  0.39952196914E+04  0.39952196914E+04  0.00000000000E+00 0. -1.
         -2   -1    0    0    0  501 -0.00000000000E+00 -0.00000000000E+00 -0.12592710203E+04  0.12592710203E+04  0.00000000000E+00 0.  1.
         23    2    1    2    0    0  0.57051687326E+03 -0.19455397771E+04  0.24896771686E+04  0.32121234137E+04  0.92897224072E+02 0.  0.
         13    1    3    3    0    0  0.13761277592E+03 -0.34241753618E+03  0.45709391507E+03  0.58747075874E+03  0.00000000000E+00 0.  1.
        -13    1    3    3    0    0  0.43290409734E+03 -0.16031222409E+04  0.20325832535E+04  0.26246526550E+04  0.00000000000E+00 0. -1.
         22    1    1    2    0    0 -0.57051687326E+03  0.19455397771E+04  0.24627150244E+03  0.20423672980E+04  0.00000000000E+00 0. -1.
<mgrwt>
<rscale>  0 0.44860069E+04</rscale>
<asrwt>0</asrwt>
<pdfrwt beam="1">  1        2 0.61464918E+00 0.44860069E+04</pdfrwt>
<pdfrwt beam="2">  1       -2 0.19373400E+00 0.44860069E+04</pdfrwt>
<totfact> 0.38156517E-02</totfact>
</mgrwt>
</event>
<event>
 6    1  0.2236204E-005  0.3614093E+04  0.7818608E-02  0.8087271E-01
          2   -1    0    0  501    0  0.00000000000E+00  0.00000000000E+00  0.11977021876E+04  0.11977021876E+04  0.00000000000E+00 0. -1.
         -2   -1    0    0    0  501 -0.00000000000E+00 -0.00000000000E+00 -0.27264008820E+04  0.27264008820E+04  0.00000000000E+00 0.  1.
         23    2    1    2    0    0 -0.19801979931E+03  0.35035440851E+02 -0.27135211102E+04  0.27223362536E+04  0.86478545605E+02 0.  0.
         11    1    3    3    0    0 -0.25164464001E+02  0.32319149961E+02 -0.32575777878E+03  0.32832287179E+03  0.00000000000E+00 0. -1.
        -11    1    3    3    0    0 -0.17285533531E+03  0.27162908906E+01 -0.23877633314E+04  0.23940133818E+04  0.00000000000E+00 0.  1.
         22    1    1    2    0    0  0.19801979931E+03 -0.35035440851E+02  0.11848224158E+04  0.12017668160E+04  0.00000000000E+00 0. -1.
<mgrwt>
<rscale>  0 0.36140926E+04</rscale>
<asrwt>0</asrwt>
<pdfrwt beam="1">  1        2 0.18426188E+00 0.36140926E+04</pdfrwt>
<pdfrwt beam="2">  1       -2 0.41944629E+00 0.36140926E+04</pdfrwt>
<totfact> 0.85455043E-02</totfact>
</mgrwt>
</event>
<event>
 6    1  0.2236204E-005  0.3133411E+04  0.7818608E-02  0.8206628E-01
         -2   -1    0    0    0  501 -0.00000000000E+00  0.00000000000E+00  0.16594716715E+04  0.16594716715E+04  0.00000000000E+00 0.  1.
          2   -1    0    0  501    0  0.00000000000E+00 -0.00000000000E+00 -0.14791252236E+04  0.14791252236E+04  0.00000000000E+00 0. -1.
         23    2    1    2    0    0 -0.95847783678E+03 -0.66897670109E+02  0.13279580371E+04  0.16418780097E+04  0.95581318932E+02 0.  0.
         13    1    3    3    0    0 -0.18730427901E+03  0.14264448473E+02  0.21619691103E+03  0.28640438503E+03  0.00000000000E+00 0.  1.
        -13    1    3    3    0    0 -0.77117355777E+03 -0.81162118583E+02  0.11117611261E+04  0.13554736247E+04  0.00000000000E+00 0. -1.
         22    1    1    2    0    0  0.95847783678E+03  0.66897670109E+02 -0.11476115893E+04  0.14967188853E+04  0.00000000000E+00 0. -1.
<mgrwt>
<rscale>  0 0.31334112E+04</rscale>
<asrwt>0</asrwt>
<pdfrwt beam="1">  1        2 0.22755773E+00 0.31334112E+04</pdfrwt>
<pdfrwt beam="2">  1       -2 0.25530333E+00 0.31334112E+04</pdfrwt>
<totfact> 0.65841047E-01</totfact>
</mgrwt>
</event>
<event>
 6    1  0.2236204E-005  0.9567134E+03  0.7818608E-02  0.9357338E-01
         -2   -1    0    0    0  501 -0.00000000000E+00  0.00000000000E+00  0.15009434248E+03  0.15009434248E+03  0.00000000000E+00 0.  1.
          2   -1    0    0  501    0  0.00000000000E+00 -0.00000000000E+00 -0.15245421717E+04  0.15245421717E+04  0.00000000000E+00 0. -1.
         23    2    1    2    0    0  0.76496402918E+02  0.45525579252E+03 -0.50203776721E+03  0.68761632565E+03  0.87548588281E+02 0.  0.
         11    1    3    3    0    0  0.21547749063E+02  0.29708427023E+03 -0.36590970388E+03  0.47181911841E+03  0.00000000000E+00 0. -1.
        -11    1    3    3    0    0  0.54948653855E+02  0.15817152229E+03 -0.13612806333E+03  0.21579720723E+03  0.00000000000E+00 0.  1.
         22    1    1    2    0    0 -0.76496402918E+02 -0.45525579252E+03 -0.87241006196E+03  0.98702018849E+03  0.00000000000E+00 0. -1.
<mgrwt>
<rscale>  0 0.95671345E+03</rscale>
<asrwt>0</asrwt>
<pdfrwt beam="1">  1        2 0.23454493E+00 0.95671345E+03</pdfrwt>
<pdfrwt beam="2">  1       -2 0.23091439E-01 0.95671345E+03</pdfrwt>
<totfact> 0.20356662E+02</totfact>
</mgrwt>
</event>
<event>
 6    1  0.2236204E-005  0.4552875E+04  0.7818608E-02  0.7901445E-01
         -2   -1    0    0    0  501 -0.00000000000E+00  0.00000000000E+00  0.34690473531E+04  0.34690473531E+04  0.00000000000E+00 0.  1.
          2   -1    0    0  501    0  0.00000000000E+00 -0.00000000000E+00 -0.14938299592E+04  0.14938299592E+04  0.00000000000E+00 0. -1.
         23    2    1    2    0    0 -0.80838320040E+03 -0.14901596049E+04  0.26426002416E+04  0.31409390828E+04  0.90017989233E+02 0.  0.
         13    1    3    3    0    0 -0.52408882887E+03 -0.96729389533E+03  0.17932736403E+04  0.21038433709E+04  0.00000000000E+00 0. -1.
        -13    1    3    3    0    0 -0.28429437152E+03 -0.52286570959E+03  0.84932660129E+03  0.10370957119E+04  0.00000000000E+00 0.  1.
         22    1    1    2    0    0  0.80838320040E+03  0.14901596049E+04 -0.66738284763E+03  0.18219382295E+04  0.00000000000E+00 0. -1.
<mgrwt>
<rscale>  0 0.45528746E+04</rscale>
<asrwt>0</asrwt>
<pdfrwt beam="1">  1        2 0.22982000E+00 0.45528746E+04</pdfrwt>
<pdfrwt beam="2">  1       -2 0.53369959E+00 0.45528746E+04</pdfrwt>
<totfact> 0.10133091E-02</totfact>
</mgrwt>
</event>
<event>
 6    1  0.2236204E-005  0.2918409E+04  0.7818608E-02  0.8267421E-01
          2   -1    0    0  501    0  0.00000000000E+00  0.00000000000E+00  0.14290500387E+04  0.14290500387E+04  0.00000000000E+00 0. -1.
         -2   -1    0    0    0  501 -0.00000000000E+00 -0.00000000000E+00 -0.14899956690E+04  0.14899956690E+04  0.00000000000E+00 0.  1.
         23    2    1    2    0    0  0.12574735411E+04 -0.51889181787E+02  0.70562454896E+03  0.14454236282E+04  0.86088715546E+02 0.  0.
         11    1    3    3    0    0  0.88701640657E+03 -0.69389701370E+02  0.52253649280E+03  0.10318223793E+04  0.00000000000E+00 0. -1.
        -11    1    3    3    0    0  0.37045713455E+03  0.17500519583E+02  0.18308805617E+03  0.41360124883E+03  0.00000000000E+00 0.  1.
         22    1    1    2    0    0 -0.12574735411E+04  0.51889181787E+02 -0.76657017924E+03  0.14736220796E+04  0.00000000000E+00 0. -1.
<mgrwt>
<rscale>  0 0.29184094E+04</rscale>
<asrwt>0</asrwt>
<pdfrwt beam="1">  1        2 0.21985385E+00 0.29184094E+04</pdfrwt>
<pdfrwt beam="2">  1       -2 0.22923010E+00 0.29184094E+04</pdfrwt>
<totfact> 0.10376965E+00</totfact>
</mgrwt>
</event>
<event>
 6    1  0.2346749E-005  0.2825216E+04  0.7818608E-02  0.8295482E-01
         -1   -1    0    0    0  501 -0.00000000000E+00  0.00000000000E+00  0.10097963529E+04  0.10097963529E+04  0.00000000000E+00 0.  1.
          1   -1    0    0  501    0  0.00000000000E+00 -0.00000000000E+00 -0.19761025808E+04  0.19761025808E+04  0.00000000000E+00 0. -1.
         23    2    1    2    0    0 -0.68566485468E+03  0.11648755687E+03 -0.17810496368E+04  0.19146788508E+04  0.10075539212E+03 0.  0.
         13    1    3    3    0    0 -0.37578406808E+03  0.75403703611E+02 -0.84623429086E+03  0.92898431600E+03  0.00000000000E+00 0.  1.
        -13    1    3    3    0    0 -0.30988078660E+03  0.41083853258E+02 -0.93481534593E+03  0.98569453478E+03  0.00000000000E+00 0. -1.
         22    1    1    2    0    0  0.68566485468E+03 -0.11648755687E+03  0.81474340891E+03  0.10712200830E+04  0.00000000000E+00 0.  1.
<mgrwt>
<rscale>  0 0.28252159E+04</rscale>
<asrwt>0</asrwt>
<pdfrwt beam="1">  1        1 0.30401578E+00 0.28252159E+04</pdfrwt>
<pdfrwt beam="2">  1       -1 0.15535329E+00 0.28252159E+04</pdfrwt>
<totfact> 0.84741481E-01</totfact>
</mgrwt>
</event>
<event>
 6    1  0.2236204E-005  0.1570588E+04  0.7818608E-02  0.8838823E-01
          2   -1    0    0  501    0  0.00000000000E+00  0.00000000000E+00  0.19862813709E+04  0.19862813709E+04  0.00000000000E+00 0. -1.
         -2   -1    0    0    0  501 -0.00000000000E+00 -0.00000000000E+00 -0.31047309600E+03  0.31047309600E+03  0.00000000000E+00 0.  1.
         23    2    1    2    0    0 -0.44056624665E+03  0.60406537829E+03  0.50308353925E+03  0.90597162815E+03  0.93262771848E+02 0.  0.
         11    1    3    3    0    0 -0.19382186720E+03  0.32851113463E+03  0.22124137657E+03  0.44094696788E+03  0.00000000000E+00 0. -1.
        -11    1    3    3    0    0 -0.24674437946E+03  0.27555424365E+03  0.28184216268E+03  0.46502466026E+03  0.00000000000E+00 0.  1.
         22    1    1    2    0    0  0.44056624665E+03 -0.60406537829E+03  0.11727247356E+04  0.13907828387E+04  0.00000000000E+00 0. -1.
<mgrwt>
<rscale>  0 0.15705883E+04</rscale>
<asrwt>0</asrwt>
<pdfrwt beam="1">  1        2 0.30558174E+00 0.15705883E+04</pdfrwt>
<pdfrwt beam="2">  1       -2 0.47765093E-01 0.15705883E+04</pdfrwt>
<totfact> 0.27147508E+01</totfact>
</mgrwt>
</event>
<event>
 6    1  0.2236204E-005  0.5623460E+04  0.7818608E-02  0.7738926E-01
         -2   -1    0    0    0  501 -0.00000000000E+00  0.00000000000E+00  0.25640993023E+04  0.25640993023E+04  0.00000000000E+00 0.  1.
          2   -1    0    0  501    0  0.00000000000E+00 -0.00000000000E+00 -0.30832761515E+04  0.30832761515E+04  0.00000000000E+00 0. -1.
         23    2    1    2    0    0  0.10225115300E+04  0.25832188107E+04  0.16961658722E+03  0.27850362617E+04  0.95435522641E+02 0.  0.
         13    1    3    3    0    0  0.92831718241E+03  0.22641123276E+04  0.15748259750E+03  0.24520966930E+04  0.00000000000E+00 0. -1.
        -13    1    3    3    0    0  0.94194347625E+02  0.31910648311E+03  0.12133989716E+02  0.33293956869E+03  0.00000000000E+00 0.  1.
         22    1    1    2    0    0 -0.10225115300E+04 -0.25832188107E+04 -0.68879343641E+03  0.28623391922E+04  0.00000000000E+00 0. -1.
<mgrwt>
<rscale>  0 0.56234602E+04</rscale>
<asrwt>0</asrwt>
<pdfrwt beam="1">  1        2 0.47435017E+00 0.56234602E+04</pdfrwt>
<pdfrwt beam="2">  1       -2 0.39447682E+00 0.56234602E+04</pdfrwt>
<totfact> 0.86232507E-03</totfact>
</mgrwt>
</event>
<event>
 6    1  0.2236204E-005  0.4515198E+04  0.7818608E-02  0.7907981E-01
         -2   -1    0    0    0  501 -0.00000000000E+00  0.00000000000E+00  0.22502840258E+04  0.22502840258E+04  0.00000000000E+00 0.  1.
          2   -1    0    0  501    0  0.00000000000E+00 -0.00000000000E+00 -0.22649378240E+04  0.22649378240E+04  0.00000000000E+00 0. -1.
         23    2    1    2    0    0  0.12200378210E+04 -0.18821925497E+04  0.24433873724E+03  0.22572984206E+04  0.67480827860E+02 0.  0.
         11    1    3    3    0    0  0.71846103934E+03 -0.11668183968E+04  0.15778178592E+03  0.13793282887E+04  0.00000000000E+00 0.  1.
        -11    1    3    3    0    0  0.50157678170E+03 -0.71537415291E+03  0.86556951321E+02  0.87797013185E+03  0.00000000000E+00 0. -1.
         22    1    1    2    0    0 -0.12200378210E+04  0.18821925497E+04 -0.25899253549E+03  0.22579234292E+04  0.00000000000E+00 0. -1.
<mgrwt>
<rscale>  0 0.45151981E+04</rscale>
<asrwt>0</asrwt>
<pdfrwt beam="1">  1        2 0.34845197E+00 0.45151981E+04</pdfrwt>
<pdfrwt beam="2">  1       -2 0.34619754E+00 0.45151981E+04</pdfrwt>
<totfact> 0.59046569E-02</totfact>
</mgrwt>
</event>
<event>
 6    1  0.2236204E-005  0.1716325E+04  0.7818608E-02  0.8752108E-01
          2   -1    0    0  501    0  0.00000000000E+00  0.00000000000E+00  0.12161457259E+04  0.12161457259E+04  0.00000000000E+00 0. -1.
         -2   -1    0    0    0  501 -0.00000000000E+00 -0.00000000000E+00 -0.60555500467E+03  0.60555500467E+03  0.00000000000E+00 0.  1.
         23    2    1    2    0    0 -0.18898625402E+03  0.74730765436E+03 -0.88144013455E+02  0.78130909087E+03  0.92141162912E+02 0.  0.
         13    1    3    3    0    0 -0.63023140445E+02  0.42996602253E+03 -0.37985469817E+02  0.43621736861E+03  0.00000000000E+00 0. -1.
        -13    1    3    3    0    0 -0.12596311358E+03  0.31734163183E+03 -0.50158543638E+02  0.34509172226E+03  0.00000000000E+00 0.  1.
         22    1    1    2    0    0  0.18898625402E+03 -0.74730765436E+03  0.69873473465E+03  0.10403916397E+04  0.00000000000E+00 0. -1.
<mgrwt>
<rscale>  0 0.17163253E+04</rscale>
<asrwt>0</asrwt>
<pdfrwt beam="1">  1        2 0.18709934E+00 0.17163253E+04</pdfrwt>
<pdfrwt beam="2">  1       -2 0.93162308E-01 0.17163253E+04</pdfrwt>
<totfact> 0.17175939E+01</totfact>
</mgrwt>
</event>
<event>
 6    1  0.2236204E-005  0.3197966E+04  0.7818608E-02  0.8189355E-01
          2   -1    0    0  501    0  0.00000000000E+00  0.00000000000E+00  0.33367328334E+04  0.33367328334E+04  0.00000000000E+00 0. -1.
         -2   -1    0    0    0  501 -0.00000000000E+00 -0.00000000000E+00 -0.76624240976E+03  0.76624240976E+03  0.00000000000E+00 0.  1.
         23    2    1    2    0    0  0.24271610913E+03 -0.12465114899E+04  0.25301250856E+04  0.28324118388E+04  0.91224293649E+02 0.  0.
         13    1    3    3    0    0  0.14728701088E+03 -0.87408419397E+03  0.18415724700E+04  0.20437969087E+04  0.00000000000E+00 0. -1.
        -13    1    3    3    0    0  0.95429098247E+02 -0.37242729594E+03  0.68855261552E+03  0.78861493005E+03  0.00000000000E+00 0.  1.
         22    1    1    2    0    0 -0.24271610913E+03  0.12465114899E+04  0.40365338098E+02  0.12705634044E+04  0.00000000000E+00 0.  1.
<mgrwt>
<rscale>  0 0.31979657E+04</rscale>
<asrwt>0</asrwt>
<pdfrwt beam="1">  1        2 0.51334351E+00 0.31979657E+04</pdfrwt>
<pdfrwt beam="2">  1       -2 0.11788345E+00 0.31979657E+04</pdfrwt>
<totfact> 0.49134304E-01</totfact>
</mgrwt>
</event>
<event>
 6    1  0.2236204E-005  0.2599859E+04  0.7818608E-02  0.8368249E-01
          2   -1    0    0  501    0  0.00000000000E+00  0.00000000000E+00  0.10880481944E+04  0.10880481944E+04  0.00000000000E+00 0. -1.
         -2   -1    0    0    0  501 -0.00000000000E+00 -0.00000000000E+00 -0.15530713921E+04  0.15530713921E+04  0.00000000000E+00 0.  1.
         23    2    1    2    0    0  0.64967580928E+02  0.83523465471E+03  0.77467840525E+03  0.11448917364E+04  0.93876202746E+02 0.  0.
         11    1    3    3    0    0  0.89559346894E+02  0.65339131202E+03  0.60696459510E+03  0.89629632541E+03  0.00000000000E+00 0. -1.
        -11    1    3    3    0    0 -0.24591765965E+02  0.18184334269E+03  0.16771381015E+03  0.24859541096E+03  0.00000000000E+00 0.  1.
         22    1    1    2    0    0 -0.64967580928E+02 -0.83523465471E+03 -0.12397016030E+04  0.14962278501E+04  0.00000000000E+00 0.  1.
<mgrwt>
<rscale>  0 0.25998589E+04</rscale>
<asrwt>0</asrwt>
<pdfrwt beam="1">  1        2 0.16739203E+00 0.25998589E+04</pdfrwt>
<pdfrwt beam="2">  1       -2 0.23893406E+00 0.25998589E+04</pdfrwt>
<totfact> 0.14742161E+00</totfact>
</mgrwt>
</event>
<event>
 6    1  0.2236204E-005  0.4194218E+04  0.7818608E-02  0.7966473E-01
          2   -1    0    0  501    0  0.00000000000E+00  0.00000000000E+00  0.36309503274E+04  0.36309503274E+04  0.00000000000E+00 0. -1.
         -2   -1    0    0    0  501 -0.00000000000E+00 -0.00000000000E+00 -0.12112161473E+04  0.12112161473E+04  0.00000000000E+00 0.  1.
         23    2    1    2    0    0  0.19760850582E+04  0.45733548327E+03  0.59992924060E+03  0.21171420860E+04  0.91146129101E+02 0.  0.
         11    1    3    3    0    0  0.15882876304E+04  0.36446743757E+03  0.51928196735E+03  0.17103063678E+04  0.00000000000E+00 0. -1.
        -11    1    3    3    0    0  0.38779742782E+03  0.92868045708E+02  0.80647273248E+02  0.40683571822E+03  0.00000000000E+00 0.  1.
         22    1    1    2    0    0 -0.19760850582E+04 -0.45733548327E+03  0.18198049395E+04  0.27250243888E+04  0.00000000000E+00 0. -1.
<mgrwt>
<rscale>  0 0.41942178E+04</rscale>
<asrwt>0</asrwt>
<pdfrwt beam="1">  1        2 0.55860774E+00 0.41942178E+04</pdfrwt>
<pdfrwt beam="2">  1       -2 0.18634095E+00 0.41942178E+04</pdfrwt>
<totfact> 0.83366266E-02</totfact>
</mgrwt>
</event>
<event>
 6    1  0.2236204E-005  0.2172166E+04  0.7818608E-02  0.8530103E-01
         -2   -1    0    0    0  501 -0.00000000000E+00  0.00000000000E+00  0.25239121365E+04  0.25239121365E+04  0.00000000000E+00 0.  1.
          2   -1    0    0  501    0  0.00000000000E+00 -0.00000000000E+00 -0.46736013901E+03  0.46736013901E+03  0.00000000000E+00 0. -1.
         23    2    1    2    0    0  0.69749181872E+03  0.63432853778E+03  0.29288144983E+03  0.99142194818E+03  0.90941765224E+02 0.  0.
         11    1    3    3    0    0  0.55171320729E+03  0.47508260362E+03  0.25963480031E+03  0.77298200037E+03  0.00000000000E+00 0.  1.
        -11    1    3    3    0    0  0.14577861143E+03  0.15924593416E+03  0.33246649513E+02  0.21843994782E+03  0.00000000000E+00 0. -1.
         22    1    1    2    0    0 -0.69749181872E+03 -0.63432853778E+03  0.17636705477E+04  0.19998503273E+04  0.00000000000E+00 0.  1.
<mgrwt>
<rscale>  0 0.21721657E+04</rscale>
<asrwt>0</asrwt>
<pdfrwt beam="1">  1        2 0.71901561E-01 0.21721657E+04</pdfrwt>
<pdfrwt beam="2">  1       -2 0.38829417E+00 0.21721657E+04</pdfrwt>
<totfact> 0.54072832E-01</totfact>
</mgrwt>
</event>
<event>
 6    1  0.2236204E-005  0.3618148E+04  0.7818608E-02  0.8086347E-01
         -2   -1    0    0    0  501 -0.00000000000E+00  0.00000000000E+00  0.12233581068E+04  0.12233581068E+04  0.00000000000E+00 0.  1.
          2   -1    0    0  501    0  0.00000000000E+00 -0.00000000000E+00 -0.26752172155E+04  0.26752172155E+04  0.00000000000E+00 0. -1.
         23    2    1    2    0    0  0.43501841583E+03  0.17229869224E+04 -0.36815559264E+03  0.18171483437E+04  0.92545154726E+02 0.  0.
         11    1    3    3    0    0  0.11391743764E+03  0.63176023845E+03 -0.12815315417E+03  0.65461546912E+03  0.00000000000E+00 0. -1.
        -11    1    3    3    0    0  0.32110097819E+03  0.10912266839E+04 -0.24000243847E+03  0.11625328745E+04  0.00000000000E+00 0.  1.
         22    1    1    2    0    0 -0.43501841583E+03 -0.17229869224E+04 -0.10837035161E+04  0.20814269787E+04  0.00000000000E+00 0. -1.
<mgrwt>
<rscale>  0 0.36181480E+04</rscale>
<asrwt>0</asrwt>
<pdfrwt beam="1">  1        2 0.41157187E+00 0.36181480E+04</pdfrwt>
<pdfrwt beam="2">  1       -2 0.18820894E+00 0.36181480E+04</pdfrwt>
<totfact> 0.35621734E-01</totfact>
</mgrwt>
</event>
<event>
 6    1  0.2236204E-005  0.3916994E+04  0.7818608E-02  0.8021504E-01
         -4   -1    0    0    0  501 -0.00000000000E+00  0.00000000000E+00  0.27145916779E+04  0.27145916779E+04  0.00000000000E+00 0.  1.
          4   -1    0    0  501    0  0.00000000000E+00 -0.00000000000E+00 -0.14129972657E+04  0.14129972657E+04  0.00000000000E+00 0. -1.
         23    2    1    2    0    0 -0.14761546828E+04  0.46465087049E+03  0.19141872593E+04  0.24631962390E+04  0.91048169209E+02 0.  0.
         13    1    3    3    0    0 -0.71472862563E+03  0.18128377845E+03  0.93964334902E+03  0.11944163596E+04  0.00000000000E+00 0. -1.
        -13    1    3    3    0    0 -0.76142605717E+03  0.28336709204E+03  0.97454391024E+03  0.12687798794E+04  0.00000000000E+00 0.  1.
         22    1    1    2    0    0  0.14761546828E+04 -0.46465087049E+03 -0.61259284703E+03  0.16643927046E+04  0.00000000000E+00 0. -1.
<mgrwt>
<rscale>  0 0.39169941E+04</rscale>
<asrwt>0</asrwt>
<pdfrwt beam="1">  1        4 0.21738420E+00 0.39169941E+04</pdfrwt>
<pdfrwt beam="2">  1       -4 0.41762949E+00 0.39169941E+04</pdfrwt>
<totfact> 0.80640655E-04</totfact>
</mgrwt>
</event>
<event>
 6    1  0.2236204E-005  0.3376450E+04  0.7818608E-02  0.8143711E-01
         -2   -1    0    0    0  501 -0.00000000000E+00  0.00000000000E+00  0.21077895246E+04  0.21077895246E+04  0.00000000000E+00 0.  1.
          2   -1    0    0  501    0  0.00000000000E+00 -0.00000000000E+00 -0.13521765500E+04  0.13521765500E+04  0.00000000000E+00 0. -1.
         23    2    1    2    0    0  0.11711901541E+04  0.43258101272E+03  0.15407265489E+04  0.19851047135E+04  0.89385207626E+02 0.  0.
         11    1    3    3    0    0  0.59754791501E+03  0.17987907910E+03  0.73210541160E+03  0.96197626142E+03  0.00000000000E+00 0.  1.
        -11    1    3    3    0    0  0.57364223908E+03  0.25270193361E+03  0.80862113733E+03  0.10231284521E+04  0.00000000000E+00 0. -1.
         22    1    1    2    0    0 -0.11711901541E+04 -0.43258101272E+03 -0.78511357433E+03  0.14748613610E+04  0.00000000000E+00 0. -1.
<mgrwt>
<rscale>  0 0.33764500E+04</rscale>
<asrwt>0</asrwt>
<pdfrwt beam="1">  1        2 0.20802716E+00 0.33764500E+04</pdfrwt>
<pdfrwt beam="2">  1       -2 0.32427531E+00 0.33764500E+04</pdfrwt>
<totfact> 0.28822334E-01</totfact>
</mgrwt>
</event>
<event>
 6    1  0.2236204E-005  0.3822878E+04  0.7818608E-02  0.8041263E-01
          2   -1    0    0  501    0  0.00000000000E+00  0.00000000000E+00  0.24410215293E+04  0.24410215293E+04  0.00000000000E+00 0. -1.
         -2   -1    0    0    0  501 -0.00000000000E+00 -0.00000000000E+00 -0.14967501285E+04  0.14967501285E+04  0.00000000000E+00 0.  1.
         23    2    1    2    0    0  0.51970651317E+03  0.12493617473E+04 -0.91659738133E+03  0.16369387087E+04  0.91749338129E+02 0.  0.
         13    1    3    3    0    0  0.18826547316E+03  0.39632109501E+03 -0.34238642198E+03  0.55654538062E+03  0.00000000000E+00 0. -1.
        -13    1    3    3    0    0  0.33144104000E+03  0.85304065234E+03 -0.57421095935E+03  0.10803933281E+04  0.00000000000E+00 0.  1.
         22    1    1    2    0    0 -0.51970651317E+03 -0.12493617473E+04  0.18608687821E+04  0.23008329491E+04  0.00000000000E+00 0. -1.
<mgrwt>
<rscale>  0 0.38228781E+04</rscale>
<asrwt>0</asrwt>
<pdfrwt beam="1">  1        2 0.37554177E+00 0.38228781E+04</pdfrwt>
<pdfrwt beam="2">  1       -2 0.23026925E+00 0.38228781E+04</pdfrwt>
<totfact> 0.25665424E-01</totfact>
</mgrwt>
</event>
<event>
 6    1  0.2236204E-005  0.1326738E+04  0.7818608E-02  0.9008627E-01
          1   -1    0    0  501    0  0.00000000000E+00  0.00000000000E+00  0.28065203560E+03  0.28065203560E+03  0.00000000000E+00 0. -1.
         -1   -1    0    0    0  501 -0.00000000000E+00 -0.00000000000E+00 -0.15679849415E+04  0.15679849415E+04  0.00000000000E+00 0.  1.
         23    2    1    2    0    0 -0.49779830907E+03 -0.36050729570E+03 -0.98213126451E+03  0.11624032642E+04  0.93972662021E+02 0.  0.
         11    1    3    3    0    0 -0.20074115354E+03 -0.15486002219E+03 -0.49221827957E+03  0.55367632417E+03  0.00000000000E+00 0.  1.
        -11    1    3    3    0    0 -0.29705715553E+03 -0.20564727350E+03 -0.48991298493E+03  0.60872694006E+03  0.00000000000E+00 0. -1.
         22    1    1    2    0    0  0.49779830907E+03  0.36050729570E+03 -0.30520164139E+03  0.68623371287E+03  0.00000000000E+00 0.  1.
<mgrwt>
<rscale>  0 0.13267376E+04</rscale>
<asrwt>0</asrwt>
<pdfrwt beam="1">  1        1 0.43177236E-01 0.13267376E+04</pdfrwt>
<pdfrwt beam="2">  1       -1 0.24122846E+00 0.13267376E+04</pdfrwt>
<totfact> 0.74715290E+00</totfact>
</mgrwt>
</event>
<event>
 6    1  0.2236204E-005  0.2093663E+04  0.7818608E-02  0.8564040E-01
         -2   -1    0    0    0  501 -0.00000000000E+00  0.00000000000E+00  0.63355145129E+03  0.63355145129E+03  0.00000000000E+00 0.  1.
          2   -1    0    0  501    0  0.00000000000E+00 -0.00000000000E+00 -0.17297043633E+04  0.17297043633E+04  0.00000000000E+00 0. -1.
         23    2    1    2    0    0 -0.82778633706E+02 -0.93289464021E+03 -0.26095207436E+02  0.94122620763E+03  0.89894950633E+02 0.  0.
         13    1    3    3    0    0 -0.61696655601E+02 -0.67879643166E+03 -0.58986742043E+02  0.68414216993E+03  0.00000000000E+00 0. -1.
        -13    1    3    3    0    0 -0.21081978105E+02 -0.25409820855E+03  0.32891534607E+02  0.25708403770E+03  0.00000000000E+00 0.  1.
         22    1    1    2    0    0  0.82778633706E+02  0.93289464021E+03 -0.10700577046E+04  0.14220296069E+04  0.00000000000E+00 0. -1.
<mgrwt>
<rscale>  0 0.20936635E+04</rscale>
<asrwt>0</asrwt>
<pdfrwt beam="1">  1        2 0.26610836E+00 0.20936635E+04</pdfrwt>
<pdfrwt beam="2">  1       -2 0.97469455E-01 0.20936635E+04</pdfrwt>
<totfact> 0.76388241E+00</totfact>
</mgrwt>
</event>
<event>
 6    1  0.2236204E-005  0.3140136E+04  0.7818608E-02  0.8204808E-01
          2   -1    0    0  501    0  0.00000000000E+00  0.00000000000E+00  0.19590829051E+04  0.19590829051E+04  0.00000000000E+00 0. -1.
         -2   -1    0    0    0  501 -0.00000000000E+00 -0.00000000000E+00 -0.12582997223E+04  0.12582997223E+04  0.00000000000E+00 0.  1.
         23    2    1    2    0    0 -0.98455843390E+03 -0.75935890192E+03 -0.62941297423E+03  0.13965577956E+04  0.90728896294E+02 0.  0.
         13    1    3    3    0    0 -0.43275603350E+03 -0.31311985009E+03 -0.22364674944E+03  0.57908522135E+03  0.00000000000E+00 0.  1.
        -13    1    3    3    0    0 -0.55180240040E+03 -0.44623905184E+03 -0.40576622478E+03  0.81747257425E+03  0.00000000000E+00 0. -1.
         22    1    1    2    0    0  0.98455843390E+03  0.75935890192E+03  0.13301961571E+04  0.18208248318E+04  0.00000000000E+00 0. -1.
<mgrwt>
<rscale>  0 0.31401360E+04</rscale>
<asrwt>0</asrwt>
<pdfrwt beam="1">  1        2 0.30139737E+00 0.31401360E+04</pdfrwt>
<pdfrwt beam="2">  1       -2 0.19358457E+00 0.31401360E+04</pdfrwt>
<totfact> 0.87392545E-01</totfact>
</mgrwt>
</event>
<event>
 6    1  0.2457474E-005  0.3543496E+04  0.7818608E-02  0.8103559E-01
         -2   -1    0    0    0  501 -0.00000000000E+00  0.00000000000E+00  0.12207724007E+04  0.12207724007E+04  0.00000000000E+00 0.  1.
          2   -1    0    0  501    0  0.00000000000E+00 -0.00000000000E+00 -0.25713966953E+04  0.25713966953E+04  0.00000000000E+00 0. -1.
         23    2    1    2    0    0 -0.30620692979E+03  0.90081942337E+03 -0.22734420836E+04  0.24667140839E+04  0.10440855649E+03 0.  0.
         11    1    3    3    0    0 -0.20754467727E+03  0.71107412456E+03 -0.16857506402E+04  0.18413192077E+04  0.00000000000E+00 0. -1.
        -11    1    3    3    0    0 -0.98662252523E+02  0.18974529881E+03 -0.58769144342E+03  0.62539487619E+03  0.00000000000E+00 0.  1.
         22    1    1    2    0    0  0.30620692979E+03 -0.90081942337E+03  0.92281778902E+03  0.13254550121E+04  0.00000000000E+00 0.  1.
<mgrwt>
<rscale>  0 0.35434955E+04</rscale>
<asrwt>0</asrwt>
<pdfrwt beam="1">  1        2 0.39559949E+00 0.35434955E+04</pdfrwt>
<pdfrwt beam="2">  1       -2 0.18781114E+00 0.35434955E+04</pdfrwt>
<totfact> 0.41524014E-01</totfact>
</mgrwt>
</event>
<event>
 6    1  0.2236204E-005  0.2826232E+04  0.7818608E-02  0.8295170E-01
         -2   -1    0    0    0  501 -0.00000000000E+00  0.00000000000E+00  0.72936175318E+03  0.72936175318E+03  0.00000000000E+00 0. -1.
          2   -1    0    0  501    0  0.00000000000E+00 -0.00000000000E+00 -0.27378693810E+04  0.27378693810E+04  0.00000000000E+00 0.  1.
         23    2    1    2    0    0 -0.81118299628E+02 -0.11466097945E+04 -0.20105053756E+04  0.23177537789E+04  0.92501433292E+02 0.  0.
         13    1    3    3    0    0  0.10603694695E+02 -0.42191891687E+03 -0.69857782039E+03  0.81617337735E+03  0.00000000000E+00 0.  1.
        -13    1    3    3    0    0 -0.91721994323E+02 -0.72469087763E+03 -0.13119275552E+04  0.15015804016E+04  0.00000000000E+00 0. -1.
         22    1    1    2    0    0  0.81118299628E+02  0.11466097945E+04  0.19977476934E+01  0.11494773553E+04  0.00000000000E+00 0. -1.
<mgrwt>
<rscale>  0 0.28262323E+04</rscale>
<asrwt>0</asrwt>
<pdfrwt beam="1">  1        2 0.42121067E+00 0.28262323E+04</pdfrwt>
<pdfrwt beam="2">  1       -2 0.11220950E+00 0.28262323E+04</pdfrwt>
<totfact> 0.13696758E+00</totfact>
</mgrwt>
</event>
<event>
 6    1  0.2236204E-005  0.8687803E+03  0.7818608E-02  0.9465472E-01
         -2   -1    0    0    0  501 -0.00000000000E+00  0.00000000000E+00  0.70233046588E+02  0.70233046588E+02  0.00000000000E+00 0.  1.
          2   -1    0    0  501    0  0.00000000000E+00 -0.00000000000E+00 -0.26866952933E+04  0.26866952933E+04  0.00000000000E+00 0. -1.
         23    2    1    2    0    0 -0.41596055720E+01  0.33391759529E+03 -0.21801167261E+04  0.22074598002E+04  0.91932406337E+02 0.  0.
         11    1    3    3    0    0 -0.14247916327E+02  0.14767805591E+03 -0.69376654034E+03  0.70945318648E+03  0.00000000000E+00 0.  1.
        -11    1    3    3    0    0  0.10088310755E+02  0.18623953938E+03 -0.14863501857E+04  0.14980066137E+04  0.00000000000E+00 0. -1.
         22    1    1    2    0    0  0.41596055720E+01 -0.33391759529E+03 -0.43634552070E+03  0.54946853977E+03  0.00000000000E+00 0.  1.
<mgrwt>
<rscale>  0 0.86878028E+03</rscale>
<asrwt>0</asrwt>
<pdfrwt beam="1">  1        2 0.41333772E+00 0.86878028E+03</pdfrwt>
<pdfrwt beam="2">  1       -2 0.10805085E-01 0.86878028E+03</pdfrwt>
<totfact> 0.16870728E+02</totfact>
</mgrwt>
</event>
<event>
 6    1  0.2358465E-005  0.5633677E+04  0.7818608E-02  0.7737558E-01
         -2   -1    0    0    0  501 -0.00000000000E+00  0.00000000000E+00  0.28260855278E+04  0.28260855278E+04  0.00000000000E+00 0.  1.
          2   -1    0    0  501    0  0.00000000000E+00 -0.00000000000E+00 -0.28076215407E+04  0.28076215407E+04  0.00000000000E+00 0. -1.
         23    2    1    2    0    0  0.30857436496E+03  0.27959448775E+04 -0.12430335968E+03  0.28171651441E+04  0.91881593577E+02 0.  0.
         13    1    3    3    0    0  0.15451621645E+03  0.15653794542E+04 -0.27599172776E+02  0.15732291032E+04  0.00000000000E+00 0.  1.
        -13    1    3    3    0    0  0.15405814851E+03  0.12305654233E+04 -0.96704186908E+02  0.12439360409E+04  0.00000000000E+00 0. -1.
         22    1    1    2    0    0 -0.30857436496E+03 -0.27959448775E+04  0.14276734676E+03  0.28165419244E+04  0.00000000000E+00 0. -1.
<mgrwt>
<rscale>  0 0.56336768E+04</rscale>
<asrwt>0</asrwt>
<pdfrwt beam="1">  1        2 0.43194178E+00 0.56336768E+04</pdfrwt>
<pdfrwt beam="2">  1       -2 0.43478239E+00 0.56336768E+04</pdfrwt>
<totfact> 0.69543548E-03</totfact>
</mgrwt>
</event>
<event>
 6    1  0.2236204E-005  0.1058369E+04  0.7818608E-02  0.9246746E-01
          2   -1    0    0  501    0  0.00000000000E+00  0.00000000000E+00  0.17241492836E+04  0.17241492836E+04  0.00000000000E+00 0. -1.
         -2   -1    0    0    0  501 -0.00000000000E+00 -0.00000000000E+00 -0.16241993987E+03  0.16241993987E+03  0.00000000000E+00 0.  1.
         23    2    1    2    0    0  0.49056413940E+02 -0.11681430871E+03  0.16957229257E+04  0.17021609957E+04  0.76313171674E+02 0.  0.
         11    1    3    3    0    0  0.35499046130E+02 -0.16456604103E+02  0.75265076812E+03  0.75366715522E+03  0.00000000000E+00 0. -1.
        -11    1    3    3    0    0  0.13557367810E+02 -0.10035770461E+03  0.94307215755E+03  0.94849384049E+03  0.00000000000E+00 0.  1.
         22    1    1    2    0    0 -0.49056413940E+02  0.11681430871E+03 -0.13399358195E+03  0.18440822777E+03  0.00000000000E+00 0.  1.
<mgrwt>
<rscale>  0 0.10583690E+04</rscale>
<asrwt>0</asrwt>
<pdfrwt beam="1">  1        2 0.26525372E+00 0.10583690E+04</pdfrwt>
<pdfrwt beam="2">  1       -2 0.24987684E-01 0.10583690E+04</pdfrwt>
<totfact> 0.13591106E+02</totfact>
</mgrwt>
</event>
<event>
 6    1  0.2236204E-005  0.1921853E+04  0.7818608E-02  0.8644055E-01
          2   -1    0    0  501    0  0.00000000000E+00  0.00000000000E+00  0.70396249705E+03  0.70396249705E+03  0.00000000000E+00 0. -1.
         -2   -1    0    0    0  501 -0.00000000000E+00 -0.00000000000E+00 -0.13116885952E+04  0.13116885952E+04  0.00000000000E+00 0.  1.
         23    2    1    2    0    0 -0.53857973301E+03 -0.87690233103E+02  0.52218964242E+03  0.76087330850E+03  0.92132855987E+02 0.  0.
         11    1    3    3    0    0 -0.49921620414E+03 -0.86686067471E+02  0.44559085249E+03  0.67474624904E+03  0.00000000000E+00 0. -1.
        -11    1    3    3    0    0 -0.39363528873E+02 -0.10041656323E+01  0.76598789924E+02  0.86127059463E+02  0.00000000000E+00 0.  1.
         22    1    1    2    0    0  0.53857973301E+03  0.87690233103E+02 -0.11299157405E+04  0.12547777837E+04  0.00000000000E+00 0.  1.
<mgrwt>
<rscale>  0 0.19218528E+04</rscale>
<asrwt>0</asrwt>
<pdfrwt beam="1">  1        2 0.10830192E+00 0.19218528E+04</pdfrwt>
<pdfrwt beam="2">  1       -2 0.20179824E+00 0.19218528E+04</pdfrwt>
<totfact> 0.49196165E+00</totfact>
</mgrwt>
</event>
<event>
 6    1  0.2236204E-005  0.1528219E+04  0.7818608E-02  0.8865901E-01
         -2   -1    0    0    0  501 -0.00000000000E+00  0.00000000000E+00  0.29857492406E+03  0.29857492406E+03  0.00000000000E+00 0.  1.
          2   -1    0    0  501    0  0.00000000000E+00 -0.00000000000E+00 -0.19555014851E+04  0.19555014851E+04  0.00000000000E+00 0. -1.
         23    2    1    2    0    0 -0.61734414944E+03 -0.39938077473E+03 -0.11230276039E+04  0.13454142615E+04  0.91267376334E+02 0.  0.
         13    1    3    3    0    0 -0.41478656710E+03 -0.25841426575E+03 -0.82035692433E+03  0.95488811506E+03  0.00000000000E+00 0.  1.
        -13    1    3    3    0    0 -0.20255758234E+03 -0.14096650898E+03 -0.30267067956E+03  0.39052614648E+03  0.00000000000E+00 0. -1.
         22    1    1    2    0    0  0.61734414944E+03  0.39938077473E+03 -0.53389895716E+03  0.90866214763E+03  0.00000000000E+00 0.  1.
<mgrwt>
<rscale>  0 0.15282195E+04</rscale>
<asrwt>0</asrwt>
<pdfrwt beam="1">  1        2 0.30084639E+00 0.15282195E+04</pdfrwt>
<pdfrwt beam="2">  1       -2 0.45934602E-01 0.15282195E+04</pdfrwt>
<totfact> 0.30652785E+01</totfact>
</mgrwt>
</event>
<event>
 6    1  0.2236204E-005  0.5104481E+04  0.7818608E-02  0.7812589E-01
          2   -1    0    0  501    0  0.00000000000E+00  0.00000000000E+00  0.32108792484E+04  0.32108792484E+04  0.00000000000E+00 0. -1.
         -2   -1    0    0    0  501 -0.00000000000E+00 -0.00000000000E+00 -0.20287062376E+04  0.20287062376E+04  0.00000000000E+00 0.  1.
         23    2    1    2    0    0 -0.23824812836E+03  0.19169717351E+04  0.23022207945E+04  0.30066390376E+04  0.90082806040E+02 0.  0.
         13    1    3    3    0    0 -0.16231899483E+03  0.15838448772E+04  0.18988001640E+04  0.24779737921E+04  0.00000000000E+00 0.  1.
        -13    1    3    3    0    0 -0.75929133530E+02  0.33312685790E+03  0.40342063043E+03  0.52866524553E+03  0.00000000000E+00 0. -1.
         22    1    1    2    0    0  0.23824812836E+03 -0.19169717351E+04 -0.11200477836E+04  0.22329464484E+04  0.00000000000E+00 0.  1.
<mgrwt>
<rscale>  0 0.51044807E+04</rscale>
<asrwt>0</asrwt>
<pdfrwt beam="1">  1        2 0.49398142E+00 0.51044807E+04</pdfrwt>
<pdfrwt beam="2">  1       -2 0.31210865E+00 0.51044807E+04</pdfrwt>
<totfact> 0.24645106E-02</totfact>
</mgrwt>
</event>
<event>
 6    1  0.3087421E-005  0.3859498E+04  0.7818608E-02  0.8033506E-01
          2   -1    0    0  501    0  0.00000000000E+00  0.00000000000E+00  0.24664584286E+04  0.24664584286E+04  0.00000000000E+00 0. -1.
         -2   -1    0    0    0  501 -0.00000000000E+00 -0.00000000000E+00 -0.15098290161E+04  0.15098290161E+04  0.00000000000E+00 0.  1.
         23    2    1    2    0    0  0.11852803178E+04 -0.15397064391E+03  0.20379735491E+04  0.23644867336E+04  0.94153787538E+02 0.  0.
         11    1    3    3    0    0  0.57209293231E+03 -0.12176282249E+03  0.99217169973E+03  0.11517470164E+04  0.00000000000E+00 0.  1.
        -11    1    3    3    0    0  0.61318738547E+03 -0.32207821410E+02  0.10458018493E+04  0.12127397171E+04  0.00000000000E+00 0. -1.
         22    1    1    2    0    0 -0.11852803178E+04  0.15397064391E+03 -0.10813441365E+04  0.16118007111E+04  0.00000000000E+00 0.  1.
<mgrwt>
<rscale>  0 0.38594976E+04</rscale>
<asrwt>0</asrwt>
<pdfrwt beam="1">  1        2 0.37945514E+00 0.38594976E+04</pdfrwt>
<pdfrwt beam="2">  1       -2 0.23228139E+00 0.38594976E+04</pdfrwt>
<totfact> 0.24031702E-01</totfact>
</mgrwt>
</event>
<event>
 6    1  0.2236204E-005  0.5687491E+03  0.7818608E-02  0.9972450E-01
          2   -1    0    0  501    0  0.00000000000E+00  0.00000000000E+00  0.13976512664E+04  0.13976512664E+04  0.00000000000E+00 0. -1.
         -2   -1    0    0    0  501 -0.00000000000E+00 -0.00000000000E+00 -0.57860561865E+02  0.57860561865E+02  0.00000000000E+00 0.  1.
         23    2    1    2    0    0  0.22123971132E+03  0.58574338136E+02  0.28655882407E+03  0.37770138251E+03  0.90357134442E+02 0.  0.
         11    1    3    3    0    0  0.11188582442E+03  0.66388248450E+02  0.19727648513E+03  0.23631303143E+03  0.00000000000E+00 0.  1.
        -11    1    3    3    0    0  0.10935388690E+03 -0.78139103140E+01  0.89282338938E+02  0.14138835108E+03  0.00000000000E+00 0. -1.
         22    1    1    2    0    0 -0.22123971132E+03 -0.58574338136E+02  0.10532318805E+04  0.10778104458E+04  0.00000000000E+00 0.  1.
<mgrwt>
<rscale>  0 0.56874911E+03</rscale>
<asrwt>0</asrwt>
<pdfrwt beam="1">  1        2 0.21502325E+00 0.56874911E+03</pdfrwt>
<pdfrwt beam="2">  1       -2 0.89016259E-02 0.56874911E+03</pdfrwt>
<totfact> 0.12231415E+03</totfact>
</mgrwt>
</event>
<event>
 6    1  0.2236204E-005  0.3076812E+04  0.7818608E-02  0.8222131E-01
         -2   -1    0    0    0  501 -0.00000000000E+00  0.00000000000E+00  0.68889045178E+03  0.68889045178E+03  0.00000000000E+00 0.  1.
          2   -1    0    0  501    0  0.00000000000E+00 -0.00000000000E+00 -0.34355138961E+04  0.34355138961E+04  0.00000000000E+00 0. -1.
         23    2    1    2    0    0  0.74734154713E+03  0.10637673649E+04 -0.24737477560E+04  0.27960288227E+04  0.90712857115E+02 0.  0.
         11    1    3    3    0    0  0.58365322772E+03  0.89132643931E+03 -0.20150337094E+04  0.22793584101E+04  0.00000000000E+00 0. -1.
        -11    1    3    3    0    0  0.16368831941E+03  0.17244092555E+03 -0.45871404659E+03  0.51667041260E+03  0.00000000000E+00 0.  1.
         22    1    1    2    0    0 -0.74734154713E+03 -0.10637673649E+04 -0.27287568832E+03  0.13283755252E+04  0.00000000000E+00 0.  1.
<mgrwt>
<rscale>  0 0.30768118E+04</rscale>
<asrwt>0</asrwt>
<pdfrwt beam="1">  1        2 0.52854061E+00 0.30768118E+04</pdfrwt>
<pdfrwt beam="2">  1       -2 0.10598315E+00 0.30768118E+04</pdfrwt>
<totfact> 0.55057982E-01</totfact>
</mgrwt>
</event>
<event>
 6    1  0.2236204E-005  0.1357090E+04  0.7818608E-02  0.8985478E-01
         -2   -1    0    0    0  501 -0.00000000000E+00  0.00000000000E+00  0.10385007534E+04  0.10385007534E+04  0.00000000000E+00 0.  1.
          2   -1    0    0  501    0  0.00000000000E+00 -0.00000000000E+00 -0.44335397728E+03  0.44335397728E+03  0.00000000000E+00 0. -1.
         23    2    1    2    0    0  0.59481268075E+01 -0.52591993247E+03  0.76168574663E+03  0.93016425195E+03  0.91723516103E+02 0.  0.
         11    1    3    3    0    0 -0.38448450816E+02 -0.20321896278E+03  0.26428038852E+03  0.33558956176E+03  0.00000000000E+00 0.  1.
        -11    1    3    3    0    0  0.44396577624E+02 -0.32270096969E+03  0.49740535811E+03  0.59457469020E+03  0.00000000000E+00 0. -1.
         22    1    1    2    0    0 -0.59481268075E+01  0.52591993247E+03 -0.16653897054E+03  0.55169047870E+03  0.00000000000E+00 0. -1.
<mgrwt>
<rscale>  0 0.13570902E+04</rscale>
<asrwt>0</asrwt>
<pdfrwt beam="1">  1        2 0.68208305E-01 0.13570902E+04</pdfrwt>
<pdfrwt beam="2">  1       -2 0.15976935E+00 0.13570902E+04</pdfrwt>
<totfact> 0.17446493E+01</totfact>
</mgrwt>
</event>
<event>
 6    1  0.2236204E-005  0.1782926E+04  0.7818608E-02  0.8715432E-01
          2   -1    0    0  501    0  0.00000000000E+00  0.00000000000E+00  0.67247717123E+03  0.67247717123E+03  0.00000000000E+00 0. -1.
         -2   -1    0    0    0  501 -0.00000000000E+00 -0.00000000000E+00 -0.11817590747E+04  0.11817590747E+04  0.00000000000E+00 0.  1.
         23    2    1    2    0    0 -0.29806701515E+02 -0.87885851127E+03 -0.11850692845E+03  0.89195468453E+03  0.90876536473E+02 0.  0.
         13    1    3    3    0    0 -0.50775436959E+02 -0.29718954118E+03 -0.26175544089E+02  0.30263001750E+03  0.00000000000E+00 0.  1.
        -13    1    3    3    0    0  0.20968735444E+02 -0.58166897009E+03 -0.92331384364E+02  0.58932466703E+03  0.00000000000E+00 0. -1.
         22    1    1    2    0    0  0.29806701515E+02  0.87885851127E+03 -0.39077497502E+03  0.96228156139E+03  0.00000000000E+00 0. -1.
<mgrwt>
<rscale>  0 0.17829257E+04</rscale>
<asrwt>0</asrwt>
<pdfrwt beam="1">  1        2 0.10345803E+00 0.17829257E+04</pdfrwt>
<pdfrwt beam="2">  1       -2 0.18180909E+00 0.17829257E+04</pdfrwt>
<totfact> 0.71729944E+00</totfact>
</mgrwt>
</event>
<event>
 6    1  0.2236204E-005  0.1959051E+04  0.7818608E-02  0.8626009E-01
          1   -1    0    0  501    0  0.00000000000E+00  0.00000000000E+00  0.13105130554E+04  0.13105130554E+04  0.00000000000E+00 0. -1.
         -1   -1    0    0    0  501 -0.00000000000E+00 -0.00000000000E+00 -0.73213313909E+03  0.73213313909E+03  0.00000000000E+00 0.  1.
         23    2    1    2    0    0  0.85177707260E+01  0.60688194084E+03  0.10887011449E+04  0.12496733079E+04  0.89637887994E+02 0.  0.
         13    1    3    3    0    0 -0.93954583767E+01  0.57868231244E+03  0.10081021869E+04  0.11624248417E+04  0.00000000000E+00 0. -1.
        -13    1    3    3    0    0  0.17913229103E+02  0.28199628398E+02  0.80598957972E+02  0.87248466146E+02  0.00000000000E+00 0.  1.
         22    1    1    2    0    0 -0.85177707260E+01 -0.60688194084E+03 -0.51032122860E+03  0.79297288661E+03  0.00000000000E+00 0.  1.
<mgrwt>
<rscale>  0 0.19590508E+04</rscale>
<asrwt>0</asrwt>
<pdfrwt beam="1">  1        1 0.20161739E+00 0.19590508E+04</pdfrwt>
<pdfrwt beam="2">  1       -1 0.11263587E+00 0.19590508E+04</pdfrwt>
<totfact> 0.59708387E+00</totfact>
</mgrwt>
</event>
<event>
 6    1  0.2310127E-005  0.4064562E+04  0.7818608E-02  0.7991647E-01
         -2   -1    0    0    0  501 -0.00000000000E+00  0.00000000000E+00  0.17026785050E+04  0.17026785050E+04  0.00000000000E+00 0. -1.
          2   -1    0    0  501    0  0.00000000000E+00 -0.00000000000E+00 -0.24256877406E+04  0.24256877406E+04  0.00000000000E+00 0.  1.
         23    2    1    2    0    0  0.10065487124E+04 -0.11454104240E+04  0.10012015453E+04  0.18266259981E+04  0.95145428460E+02 0.  0.
         13    1    3    3    0    0  0.49835415224E+03 -0.52803314975E+03  0.52424291927E+03  0.89554815990E+03  0.00000000000E+00 0. -1.
        -13    1    3    3    0    0  0.50819456018E+03 -0.61737727424E+03  0.47695862604E+03  0.93107783815E+03  0.00000000000E+00 0.  1.
         22    1    1    2    0    0 -0.10065487124E+04  0.11454104240E+04 -0.17242107810E+04  0.23017402475E+04  0.00000000000E+00 0. -1.
<mgrwt>
<rscale>  0 0.40645622E+04</rscale>
<asrwt>0</asrwt>
<pdfrwt beam="1">  1        2 0.37318273E+00 0.40645622E+04</pdfrwt>
<pdfrwt beam="2">  1       -2 0.26195054E+00 0.40645622E+04</pdfrwt>
<totfact> 0.16370130E-01</totfact>
</mgrwt>
</event>
<event>
 6    1  0.2236204E-005  0.1353522E+04  0.7818608E-02  0.8988166E-01
         -2   -1    0    0    0  501 -0.00000000000E+00  0.00000000000E+00  0.20918294974E+03  0.20918294974E+03  0.00000000000E+00 0.  1.
          2   -1    0    0  501    0  0.00000000000E+00 -0.00000000000E+00 -0.21894974285E+04  0.21894974285E+04  0.00000000000E+00 0. -1.
         23    2    1    2    0    0 -0.82914870862E+02  0.61852299736E+02 -0.21743603376E+04  0.21787840887E+04  0.92502131326E+02 0.  0.
         11    1    3    3    0    0 -0.18031352055E+02  0.60302023244E+02 -0.64932006904E+03  0.65236340771E+03  0.00000000000E+00 0. -1.
        -11    1    3    3    0    0 -0.64883518807E+02  0.15502764916E+01 -0.15250402686E+04  0.15264206810E+04  0.00000000000E+00 0.  1.
         22    1    1    2    0    0  0.82914870862E+02 -0.61852299736E+02  0.19404585891E+03  0.21989628954E+03  0.00000000000E+00 0.  1.
<mgrwt>
<rscale>  0 0.13535221E+04</rscale>
<asrwt>0</asrwt>
<pdfrwt beam="1">  1        2 0.33684575E+00 0.13535221E+04</pdfrwt>
<pdfrwt beam="2">  1       -2 0.32181993E-01 0.13535221E+04</pdfrwt>
<totfact> 0.46019838E+01</totfact>
</mgrwt>
</event>
<event>
 6    1  0.2891917E-005  0.5272052E+04  0.7818608E-02  0.7787858E-01
          2   -1    0    0  501    0  0.00000000000E+00  0.00000000000E+00  0.29738545880E+04  0.29738545880E+04  0.00000000000E+00 0. -1.
         -2   -1    0    0    0  501 -0.00000000000E+00 -0.00000000000E+00 -0.23365743854E+04  0.23365743854E+04  0.00000000000E+00 0.  1.
         23    2    1    2    0    0  0.25883153857E+04 -0.45517638138E+03  0.12316130909E+03  0.26325790316E+04  0.93496392739E+02 0.  0.
         13    1    3    3    0    0  0.15856312638E+04 -0.28742543125E+03  0.30707370086E+02  0.16117638865E+04  0.00000000000E+00 0. -1.
        -13    1    3    3    0    0  0.10026841219E+04 -0.16775095013E+03  0.92453939001E+02  0.10208151451E+04  0.00000000000E+00 0.  1.
         22    1    1    2    0    0 -0.25883153857E+04  0.45517638138E+03  0.51411889353E+03  0.26778499418E+04  0.00000000000E+00 0. -1.
<mgrwt>
<rscale>  0 0.52720518E+04</rscale>
<asrwt>0</asrwt>
<pdfrwt beam="1">  1        2 0.45751609E+00 0.52720518E+04</pdfrwt>
<pdfrwt beam="2">  1       -2 0.35947298E+00 0.52720518E+04</pdfrwt>
<totfact> 0.17453489E-02</totfact>
</mgrwt>
</event>
<event>
 6    1  0.2236204E-005  0.2252041E+04  0.7818608E-02  0.8497074E-01
          2   -1    0    0  501    0  0.00000000000E+00  0.00000000000E+00  0.89993232534E+03  0.89993232534E+03  0.00000000000E+00 0.  1.
         -2   -1    0    0    0  501 -0.00000000000E+00 -0.00000000000E+00 -0.14089086304E+04  0.14089086304E+04  0.00000000000E+00 0. -1.
         23    2    1    2    0    0 -0.56706352006E+03 -0.58078695624E+02 -0.12482843718E+04  0.13752936414E+04  0.91019538435E+02 0.  0.
         11    1    3    3    0    0 -0.43897998777E+03 -0.54020625079E+02 -0.87143070574E+03  0.97724773344E+03  0.00000000000E+00 0.  1.
        -11    1    3    3    0    0 -0.12808353229E+03 -0.40580705454E+01 -0.37685366610E+03  0.39804590795E+03  0.00000000000E+00 0. -1.
         22    1    1    2    0    0  0.56706352006E+03  0.58078695624E+02  0.73930806675E+03  0.93354731440E+03  0.00000000000E+00 0.  1.
<mgrwt>
<rscale>  0 0.22520412E+04</rscale>
<asrwt>0</asrwt>
<pdfrwt beam="1">  1        2 0.13845113E+00 0.22520412E+04</pdfrwt>
<pdfrwt beam="2">  1       -2 0.21675518E+00 0.22520412E+04</pdfrwt>
<totfact> 0.27653725E+00</totfact>
</mgrwt>
</event>
<event>
 6    1  0.2236204E-005  0.1320190E+04  0.7818608E-02  0.9013706E-01
          1   -1    0    0  501    0  0.00000000000E+00  0.00000000000E+00  0.10353451248E+04  0.10353451248E+04  0.00000000000E+00 0. -1.
         -1   -1    0    0    0  501 -0.00000000000E+00 -0.00000000000E+00 -0.42085031748E+03  0.42085031748E+03  0.00000000000E+00 0.  1.
         23    2    1    2    0    0 -0.32507991545E+03 -0.33026463930E+03 -0.20497745310E+03  0.51476755392E+03  0.90654260225E+02 0.  0.
         11    1    3    3    0    0 -0.60537787269E+02 -0.21189571564E+02 -0.15536994021E+02  0.65994089233E+02  0.00000000000E+00 0.  1.
        -11    1    3    3    0    0 -0.26454212818E+03 -0.30907506773E+03 -0.18944045907E+03  0.44877346469E+03  0.00000000000E+00 0. -1.
         22    1    1    2    0    0  0.32507991545E+03  0.33026463930E+03  0.81947226042E+03  0.94142788837E+03  0.00000000000E+00 0. -1.
<mgrwt>
<rscale>  0 0.13201899E+04</rscale>
<asrwt>0</asrwt>
<pdfrwt beam="1">  1        1 0.15928387E+00 0.13201899E+04</pdfrwt>
<pdfrwt beam="2">  1       -1 0.64746203E-01 0.13201899E+04</pdfrwt>
<totfact> 0.33705434E+01</totfact>
</mgrwt>
</event>
<event>
 6    1  0.2236204E-005  0.1766693E+04  0.7818608E-02  0.8724215E-01
          2   -1    0    0  501    0  0.00000000000E+00  0.00000000000E+00  0.10904190483E+04  0.10904190483E+04  0.00000000000E+00 0. -1.
         -2   -1    0    0    0  501 -0.00000000000E+00 -0.00000000000E+00 -0.71559756929E+03  0.71559756929E+03  0.00000000000E+00 0.  1.
         23    2    1    2    0    0  0.32520017670E+03 -0.66502727111E+03 -0.30027251099E+03  0.80413422849E+03  0.91933945438E+02 0.  0.
         11    1    3    3    0    0  0.30325155663E+03 -0.54263076258E+03 -0.24985577896E+03  0.66995340239E+03  0.00000000000E+00 0. -1.
        -11    1    3    3    0    0  0.21948620072E+02 -0.12239650853E+03 -0.50416732028E+02  0.13418082610E+03  0.00000000000E+00 0.  1.
         22    1    1    2    0    0 -0.32520017670E+03  0.66502727111E+03  0.67509398995E+03  0.10018823891E+04  0.00000000000E+00 0. -1.
<mgrwt>
<rscale>  0 0.17666932E+04</rscale>
<asrwt>0</asrwt>
<pdfrwt beam="1">  1        2 0.16775678E+00 0.17666932E+04</pdfrwt>
<pdfrwt beam="2">  1       -2 0.11009193E+00 0.17666932E+04</pdfrwt>
<totfact> 0.13709782E+01</totfact>
</mgrwt>
</event>
<event>
 6    1  0.2236204E-005  0.1391746E+04  0.7818608E-02  0.8959815E-01
         -2   -1    0    0    0  501 -0.00000000000E+00  0.00000000000E+00  0.24478642638E+03  0.24478642638E+03  0.00000000000E+00 0.  1.
          2   -1    0    0  501    0  0.00000000000E+00 -0.00000000000E+00 -0.19782107545E+04  0.19782107545E+04  0.00000000000E+00 0. -1.
         23    2    1    2    0    0 -0.25428351822E+03  0.50633213867E+03 -0.15076963864E+04  0.16130910849E+04  0.88781261122E+02 0.  0.
         11    1    3    3    0    0 -0.79945840123E+02  0.18223078580E+03 -0.41849673264E+03  0.46339930068E+03  0.00000000000E+00 0. -1.
        -11    1    3    3    0    0 -0.17433767810E+03  0.32410135288E+03 -0.10891996537E+04  0.11496917842E+04  0.00000000000E+00 0.  1.
         22    1    1    2    0    0  0.25428351822E+03 -0.50633213867E+03 -0.22572794179E+03  0.60990609605E+03  0.00000000000E+00 0.  1.
<mgrwt>
<rscale>  0 0.13917459E+04</rscale>
<asrwt>0</asrwt>
<pdfrwt beam="1">  1        2 0.30434012E+00 0.13917459E+04</pdfrwt>
<pdfrwt beam="2">  1       -2 0.37659450E-01 0.13917459E+04</pdfrwt>
<totfact> 0.44533782E+01</totfact>
</mgrwt>
</event>
<event>
 6    1  0.2236204E-005  0.2124721E+04  0.7818608E-02  0.8550431E-01
          2   -1    0    0  501    0  0.00000000000E+00  0.00000000000E+00  0.15647241791E+04  0.15647241791E+04  0.00000000000E+00 0. -1.
         -2   -1    0    0    0  501 -0.00000000000E+00 -0.00000000000E+00 -0.72128381795E+03  0.72128381795E+03  0.00000000000E+00 0.  1.
         23    2    1    2    0    0 -0.52185053454E+03  0.11064064482E+01 -0.57063921656E+03  0.77870900329E+03  0.91811719268E+02 0.  0.
         13    1    3    3    0    0 -0.44564683025E+02  0.26567099342E+00 -0.94769008280E+02  0.10472462215E+03  0.00000000000E+00 0. -1.
        -13    1    3    3    0    0 -0.47728585151E+03  0.84073545476E+00 -0.47587020828E+03  0.67398438114E+03  0.00000000000E+00 0.  1.
         22    1    1    2    0    0  0.52185053454E+03 -0.11064064482E+01  0.14140795777E+04  0.15072989937E+04  0.00000000000E+00 0. -1.
<mgrwt>
<rscale>  0 0.21247214E+04</rscale>
<asrwt>0</asrwt>
<pdfrwt beam="1">  1        2 0.24072680E+00 0.21247214E+04</pdfrwt>
<pdfrwt beam="2">  1       -2 0.11096674E+00 0.21247214E+04</pdfrwt>
<totfact> 0.69053871E+00</totfact>
</mgrwt>
</event>
<event>
 6    1  0.2236204E-005  0.3403350E+04  0.7818608E-02  0.8137085E-01
          1   -1    0    0  501    0  0.00000000000E+00  0.00000000000E+00  0.33485112618E+04  0.33485112618E+04  0.00000000000E+00 0.  1.
         -1   -1    0    0    0  501 -0.00000000000E+00 -0.00000000000E+00 -0.86477192260E+03  0.86477192260E+03  0.00000000000E+00 0. -1.
         23    2    1    2    0    0  0.74040692412E+03  0.44142380345E+03 -0.57161751391E+03  0.10386551924E+04  0.94871697615E+02 0.  0.
         13    1    3    3    0    0  0.51953468704E+03  0.27902172707E+03 -0.43183428412E+03  0.73092425337E+03  0.00000000000E+00 0. -1.
        -13    1    3    3    0    0  0.22087223708E+03  0.16240207638E+03 -0.13978322978E+03  0.30773093906E+03  0.00000000000E+00 0.  1.
         22    1    1    2    0    0 -0.74040692412E+03 -0.44142380345E+03  0.30553568531E+04  0.31746279919E+04  0.00000000000E+00 0.  1.
<mgrwt>
<rscale>  0 0.34033504E+04</rscale>
<asrwt>0</asrwt>
<pdfrwt beam="1">  1        1 0.51515557E+00 0.34033504E+04</pdfrwt>
<pdfrwt beam="2">  1       -1 0.13304184E+00 0.34033504E+04</pdfrwt>
<totfact> 0.12878610E-01</totfact>
</mgrwt>
</event>
<event>
 6    1  0.2387166E-005  0.2730623E+04  0.7818608E-02  0.8325137E-01
         -2   -1    0    0    0  501 -0.00000000000E+00  0.00000000000E+00  0.17371543006E+04  0.17371543006E+04  0.00000000000E+00 0.  1.
          2   -1    0    0  501    0  0.00000000000E+00 -0.00000000000E+00 -0.10730628497E+04  0.10730628497E+04  0.00000000000E+00 0. -1.
         23    2    1    2    0    0 -0.80047872244E+03 -0.11036078879E+04  0.29898356846E+03  0.13988276502E+04  0.92795826810E+02 0.  0.
         11    1    3    3    0    0 -0.35201512424E+03 -0.53955529936E+03  0.17558655173E+03  0.66773138754E+03  0.00000000000E+00 0.  1.
        -11    1    3    3    0    0 -0.44846359821E+03 -0.56405258850E+03  0.12339701673E+03  0.73109626264E+03  0.00000000000E+00 0. -1.
         22    1    1    2    0    0  0.80047872244E+03  0.11036078879E+04  0.36510788237E+03  0.14113895001E+04  0.00000000000E+00 0.  1.
<mgrwt>
<rscale>  0 0.27306232E+04</rscale>
<asrwt>0</asrwt>
<pdfrwt beam="1">  1        2 0.16508659E+00 0.27306232E+04</pdfrwt>
<pdfrwt beam="2">  1       -2 0.26725451E+00 0.27306232E+04</pdfrwt>
<totfact> 0.99810365E-01</totfact>
</mgrwt>
</event>
<event>
 6    1  0.2236204E-005  0.1353889E+04  0.7818608E-02  0.8987889E-01
          2   -1    0    0  501    0  0.00000000000E+00  0.00000000000E+00  0.34799238894E+04  0.34799238894E+04  0.00000000000E+00 0. -1.
         -2   -1    0    0    0  501 -0.00000000000E+00 -0.00000000000E+00 -0.13168502360E+03  0.13168502360E+03  0.00000000000E+00 0.  1.
         23    2    1    2    0    0 -0.20945746539E+03  0.42578307164E+03  0.29581274534E+04  0.29973202447E+04  0.90812802011E+02 0.  0.
         11    1    3    3    0    0 -0.13381118962E+03  0.35543382101E+03  0.23404298350E+04  0.23710441684E+04  0.00000000000E+00 0. -1.
        -11    1    3    3    0    0 -0.75646275767E+02  0.70349250631E+02  0.61769761831E+03  0.62627607632E+03  0.00000000000E+00 0.  1.
         22    1    1    2    0    0  0.20945746539E+03 -0.42578307164E+03  0.39011141248E+03  0.61428866834E+03  0.00000000000E+00 0.  1.
<mgrwt>
<rscale>  0 0.13538890E+04</rscale>
<asrwt>0</asrwt>
<pdfrwt beam="1">  1        2 0.53537284E+00 0.13538890E+04</pdfrwt>
<pdfrwt beam="2">  1       -2 0.20259237E-01 0.13538890E+04</pdfrwt>
<totfact> 0.17452064E+01</totfact>
</mgrwt>
</event>
<event>
 6    1  0.2236204E-005  0.8516939E+03  0.7818608E-02  0.9488066E-01
          2   -1    0    0  501    0  0.00000000000E+00  0.00000000000E+00  0.15611741176E+04  0.15611741176E+04  0.00000000000E+00 0. -1.
         -2   -1    0    0    0  501 -0.00000000000E+00 -0.00000000000E+00 -0.11615975807E+03  0.11615975807E+03  0.00000000000E+00 0.  1.
         23    2    1    2    0    0 -0.28293668687E+03 -0.10272213173E+03  0.14995076640E+03  0.34774946113E+03  0.88540670007E+02 0.  0.
         11    1    3    3    0    0 -0.15800288483E+03 -0.28025244410E+02  0.11676004179E+03  0.19845209321E+03  0.00000000000E+00 0. -1.
        -11    1    3    3    0    0 -0.12493380204E+03 -0.74696887315E+02  0.33190724603E+02  0.14929736792E+03  0.00000000000E+00 0.  1.
         22    1    1    2    0    0  0.28293668687E+03  0.10272213173E+03  0.12950635932E+04  0.13295844146E+04  0.00000000000E+00 0. -1.
<mgrwt>
<rscale>  0 0.85169386E+03</rscale>
<asrwt>0</asrwt>
<pdfrwt beam="1">  1        2 0.24018062E+00 0.85169386E+03</pdfrwt>
<pdfrwt beam="2">  1       -2 0.17870733E-01 0.85169386E+03</pdfrwt>
<totfact> 0.30679000E+02</totfact>
</mgrwt>
</event>
<event>
 6    1  0.2236204E-005  0.4007387E+04  0.7818608E-02  0.8003058E-01
          2   -1    0    0  501    0  0.00000000000E+00  0.00000000000E+00  0.35825902311E+04  0.35825902311E+04  0.00000000000E+00 0. -1.
         -2   -1    0    0    0  501 -0.00000000000E+00 -0.00000000000E+00 -0.11206384218E+04  0.11206384218E+04  0.00000000000E+00 0.  1.
         23    2    1    2    0    0 -0.62023668751E+03  0.18729991987E+04  0.82867476065E+03  0.21418982438E+04  0.90590734561E+02 0.  0.
         13    1    3    3    0    0 -0.57380107291E+03  0.17822078157E+04  0.77185416734E+03  0.20251595555E+04  0.00000000000E+00 0. -1.
        -13    1    3    3    0    0 -0.46435614601E+02  0.90791382961E+02  0.56820593316E+02  0.11673868831E+03  0.00000000000E+00 0.  1.
         22    1    1    2    0    0  0.62023668751E+03 -0.18729991987E+04  0.16332770487E+04  0.25613304091E+04  0.00000000000E+00 0. -1.
<mgrwt>
<rscale>  0 0.40073873E+04</rscale>
<asrwt>0</asrwt>
<pdfrwt beam="1">  1        2 0.55116772E+00 0.40073873E+04</pdfrwt>
<pdfrwt beam="2">  1       -2 0.17240591E+00 0.40073873E+04</pdfrwt>
<totfact> 0.11455942E-01</totfact>
</mgrwt>
</event>
<event>
 6    1  0.2236204E-005  0.1225615E+04  0.7818608E-02  0.9090727E-01
          2   -1    0    0  501    0  0.00000000000E+00  0.00000000000E+00  0.28459657615E+04  0.28459657615E+04  0.00000000000E+00 0. -1.
         -2   -1    0    0    0  501 -0.00000000000E+00 -0.00000000000E+00 -0.13195270035E+03  0.13195270035E+03  0.00000000000E+00 0.  1.
         23    2    1    2    0    0 -0.14033635364E+03 -0.27732572580E+02  0.28038773502E+04  0.28089836277E+04  0.90539702912E+02 0.  0.
         13    1    3    3    0    0 -0.13637149279E+03  0.46131049405E+01  0.23218989805E+04  0.23259048434E+04  0.00000000000E+00 0. -1.
        -13    1    3    3    0    0 -0.39648608525E+01 -0.32345677521E+02  0.48197836964E+03  0.48307878424E+03  0.00000000000E+00 0.  1.
         22    1    1    2    0    0  0.14033635364E+03  0.27732572580E+02 -0.89864289089E+02  0.16893483415E+03  0.00000000000E+00 0.  1.
<mgrwt>
<rscale>  0 0.12256147E+04</rscale>
<asrwt>0</asrwt>
<pdfrwt beam="1">  1        2 0.43784084E+00 0.12256147E+04</pdfrwt>
<pdfrwt beam="2">  1       -2 0.20300418E-01 0.12256147E+04</pdfrwt>
<totfact> 0.44963421E+01</totfact>
</mgrwt>
</event>
<event>
 6    1  0.2236204E-005  0.2125105E+04  0.7818608E-02  0.8550264E-01
         -2   -1    0    0    0  501 -0.00000000000E+00  0.00000000000E+00  0.43100632772E+03  0.43100632772E+03  0.00000000000E+00 0. -1.
          2   -1    0    0  501    0  0.00000000000E+00 -0.00000000000E+00 -0.26194923900E+04  0.26194923900E+04  0.00000000000E+00 0.  1.
         23    2    1    2    0    0 -0.19578849522E+03  0.10422275867E+04 -0.11264092116E+04  0.15496393925E+04  0.89515684251E+02 0.  0.
         11    1    3    3    0    0 -0.19282289244E+03  0.84398747545E+03 -0.90373046123E+03  0.12514888226E+04  0.00000000000E+00 0. -1.
        -11    1    3    3    0    0 -0.29656027837E+01  0.19824011121E+03 -0.22267875035E+03  0.29815056993E+03  0.00000000000E+00 0.  1.
         22    1    1    2    0    0  0.19578849522E+03 -0.10422275867E+04 -0.10620768507E+04  0.15008593252E+04  0.00000000000E+00 0. -1.
<mgrwt>
<rscale>  0 0.21251050E+04</rscale>
<asrwt>0</asrwt>
<pdfrwt beam="1">  1        2 0.40299884E+00 0.21251050E+04</pdfrwt>
<pdfrwt beam="2">  1       -2 0.66308664E-01 0.21251050E+04</pdfrwt>
<totfact> 0.57031280E+00</totfact>
</mgrwt>
</event>
<event>
 6    1  0.2236204E-005  0.1843841E+04  0.7818608E-02  0.8683327E-01
         -2   -1    0    0    0  501 -0.00000000000E+00  0.00000000000E+00  0.61042968414E+03  0.61042968414E+03  0.00000000000E+00 0.  1.
          2   -1    0    0  501    0  0.00000000000E+00 -0.00000000000E+00 -0.13923586091E+04  0.13923586091E+04  0.00000000000E+00 0. -1.
         23    2    1    2    0    0 -0.10334916592E+03  0.69585387162E+03 -0.10353203001E+04  0.12550578273E+04  0.91588019904E+02 0.  0.
         13    1    3    3    0    0 -0.83136807653E+02  0.34618538615E+03 -0.58086253480E+03  0.68129093250E+03  0.00000000000E+00 0.  1.
        -13    1    3    3    0    0 -0.20212358266E+02  0.34966848547E+03 -0.45445776526E+03  0.57376689479E+03  0.00000000000E+00 0. -1.
         22    1    1    2    0    0  0.10334916592E+03 -0.69585387162E+03  0.25339137509E+03  0.74773046595E+03  0.00000000000E+00 0.  1.
<mgrwt>
<rscale>  0 0.18438406E+04</rscale>
<asrwt>0</asrwt>
<pdfrwt beam="1">  1        2 0.21420902E+00 0.18438406E+04</pdfrwt>
<pdfrwt beam="2">  1       -2 0.93912258E-01 0.18438406E+04</pdfrwt>
<totfact> 0.13167433E+01</totfact>
</mgrwt>
</event>
<event>
 6    1  0.2236204E-005  0.2625664E+04  0.7818608E-02  0.8359536E-01
         -2   -1    0    0    0  501 -0.00000000000E+00  0.00000000000E+00  0.11744261366E+04  0.11744261366E+04  0.00000000000E+00 0.  1.
          2   -1    0    0  501    0  0.00000000000E+00 -0.00000000000E+00 -0.14675485883E+04  0.14675485883E+04  0.00000000000E+00 0. -1.
         23    2    1    2    0    0  0.11940838077E+04  0.47899604333E+03 -0.39988354408E+03  0.13509784893E+04  0.99813226977E+02 0.  0.
         11    1    3    3    0    0  0.37359845094E+03  0.19564123215E+03 -0.15140301613E+03  0.44807830516E+03  0.00000000000E+00 0.  1.
        -11    1    3    3    0    0  0.82048535679E+03  0.28335481118E+03 -0.24848052795E+03  0.90290018413E+03  0.00000000000E+00 0. -1.
         22    1    1    2    0    0 -0.11940838077E+04 -0.47899604333E+03  0.10676109241E+03  0.12909962356E+04  0.00000000000E+00 0. -1.
<mgrwt>
<rscale>  0 0.26256637E+04</rscale>
<asrwt>0</asrwt>
<pdfrwt beam="1">  1        2 0.22577670E+00 0.26256637E+04</pdfrwt>
<pdfrwt beam="2">  1       -2 0.18068095E+00 0.26256637E+04</pdfrwt>
<totfact> 0.20969943E+00</totfact>
</mgrwt>
</event>
<event>
 6    1  0.2236204E-005  0.3363414E+04  0.7818608E-02  0.8146945E-01
         -2   -1    0    0    0  501 -0.00000000000E+00  0.00000000000E+00  0.14699741187E+04  0.14699741187E+04  0.00000000000E+00 0.  1.
          2   -1    0    0  501    0  0.00000000000E+00 -0.00000000000E+00 -0.19239370712E+04  0.19239370712E+04  0.00000000000E+00 0. -1.
         23    2    1    2    0    0 -0.10055403939E+04 -0.56437930473E+03 -0.14606662760E+04  0.18631966296E+04  0.91215280890E+02 0.  0.
         13    1    3    3    0    0 -0.55174262488E+03 -0.36055619814E+03 -0.81884421823E+03  0.10511548648E+04  0.00000000000E+00 0. -1.
        -13    1    3    3    0    0 -0.45379776902E+03 -0.20382310659E+03 -0.64182205777E+03  0.81204176481E+03  0.00000000000E+00 0.  1.
         22    1    1    2    0    0  0.10055403939E+04  0.56437930473E+03  0.10067033235E+04  0.15307145602E+04  0.00000000000E+00 0.  1.
<mgrwt>
<rscale>  0 0.33634136E+04</rscale>
<asrwt>0</asrwt>
<pdfrwt beam="1">  1        2 0.29599032E+00 0.33634136E+04</pdfrwt>
<pdfrwt beam="2">  1       -2 0.22614986E+00 0.33634136E+04</pdfrwt>
<totfact> 0.55314043E-01</totfact>
</mgrwt>
</event>
<event>
 6    1  0.2236204E-005  0.3537670E+04  0.7818608E-02  0.8104920E-01
         -2   -1    0    0    0  501 -0.00000000000E+00  0.00000000000E+00  0.11550319674E+04  0.11550319674E+04  0.00000000000E+00 0.  1.
          2   -1    0    0  501    0  0.00000000000E+00 -0.00000000000E+00 -0.27088228650E+04  0.27088228650E+04  0.00000000000E+00 0. -1.
         23    2    1    2    0    0 -0.10300981256E+04 -0.13583651297E+04 -0.26704414778E+03  0.17279767525E+04  0.91285849282E+02 0.  0.
         11    1    3    3    0    0 -0.33371628234E+03 -0.37901925289E+03 -0.59449346760E+02  0.50848439110E+03  0.00000000000E+00 0. -1.
        -11    1    3    3    0    0 -0.69638184327E+03 -0.97934587678E+03 -0.20759480102E+03  0.12194923614E+04  0.00000000000E+00 0.  1.
         22    1    1    2    0    0  0.10300981256E+04  0.13583651297E+04 -0.12867467498E+04  0.21358780799E+04  0.00000000000E+00 0. -1.
<mgrwt>
<rscale>  0 0.35376699E+04</rscale>
<asrwt>0</asrwt>
<pdfrwt beam="1">  1        2 0.41674197E+00 0.35376699E+04</pdfrwt>
<pdfrwt beam="2">  1       -2 0.17769723E+00 0.35376699E+04</pdfrwt>
<totfact> 0.40418876E-01</totfact>
</mgrwt>
</event>
<event>
 6    1  0.2236204E-005  0.1734790E+04  0.7818608E-02  0.8741767E-01
          2   -1    0    0  501    0  0.00000000000E+00  0.00000000000E+00  0.54839860452E+03  0.54839860452E+03  0.00000000000E+00 0. -1.
         -2   -1    0    0    0  501 -0.00000000000E+00 -0.00000000000E+00 -0.13719477502E+04  0.13719477502E+04  0.00000000000E+00 0.  1.
         23    2    1    2    0    0  0.56567871347E+03  0.30468854552E+03  0.22650015037E+03  0.68931790633E+03  0.10502067049E+03 0.  0.
         11    1    3    3    0    0  0.13978037095E+03  0.96581056688E+02  0.10586675158E+03  0.20018546826E+03  0.00000000000E+00 0.  1.
        -11    1    3    3    0    0  0.42589834252E+03  0.20810748883E+03  0.12063339879E+03  0.48913243807E+03  0.00000000000E+00 0. -1.
         22    1    1    2    0    0 -0.56567871347E+03 -0.30468854552E+03 -0.10500492961E+04  0.12310284484E+04  0.00000000000E+00 0.  1.
<mgrwt>
<rscale>  0 0.17347902E+04</rscale>
<asrwt>0</asrwt>
<pdfrwt beam="1">  1        2 0.84369018E-01 0.17347902E+04</pdfrwt>
<pdfrwt beam="2">  1       -2 0.21106888E+00 0.17347902E+04</pdfrwt>
<totfact> 0.59037105E+00</totfact>
</mgrwt>
</event>
<event>
 6    1  0.2236204E-005  0.2793489E+04  0.7818608E-02  0.8305293E-01
         -4   -1    0    0    0  501 -0.00000000000E+00  0.00000000000E+00  0.13678817981E+04  0.13678817981E+04  0.00000000000E+00 0.  1.
          4   -1    0    0  501    0  0.00000000000E+00 -0.00000000000E+00 -0.14262160899E+04  0.14262160899E+04  0.00000000000E+00 0. -1.
         23    2    1    2    0    0  0.40151725399E+03  0.10252487851E+04 -0.88628030376E+03  0.14164746538E+04  0.92501304785E+02 0.  0.
         11    1    3    3    0    0  0.20002449250E+03  0.40543185815E+03 -0.39439070505E+03  0.59994067826E+03  0.00000000000E+00 0. -1.
        -11    1    3    3    0    0  0.20149276149E+03  0.61981692699E+03 -0.49188959871E+03  0.81653397555E+03  0.00000000000E+00 0.  1.
         22    1    1    2    0    0 -0.40151725399E+03 -0.10252487851E+04  0.82794601197E+03  0.13776232342E+04  0.00000000000E+00 0.  1.
<mgrwt>
<rscale>  0 0.27934889E+04</rscale>
<asrwt>0</asrwt>
<pdfrwt beam="1">  1        4 0.21941786E+00 0.27934889E+04</pdfrwt>
<pdfrwt beam="2">  1       -4 0.21044335E+00 0.27934889E+04</pdfrwt>
<totfact> 0.19152081E-02</totfact>
</mgrwt>
</event>
<event>
 6    1  0.2236204E-005  0.8203122E+03  0.7818608E-02  0.9531073E-01
         -2   -1    0    0    0  501 -0.00000000000E+00  0.00000000000E+00  0.21001984253E+03  0.21001984253E+03  0.00000000000E+00 0.  1.
          2   -1    0    0  501    0  0.00000000000E+00 -0.00000000000E+00 -0.80101018700E+03  0.80101018700E+03  0.00000000000E+00 0. -1.
         23    2    1    2    0    0 -0.38095235323E+03 -0.13304145429E+03 -0.25650959762E+03  0.48690972464E+03  0.91973813063E+02 0.  0.
         11    1    3    3    0    0 -0.31076626767E+03 -0.84171386795E+02 -0.16545586935E+03  0.36198914373E+03  0.00000000000E+00 0. -1.
        -11    1    3    3    0    0 -0.70186085555E+02 -0.48870067500E+02 -0.91053728267E+02  0.12492058091E+03  0.00000000000E+00 0.  1.
         22    1    1    2    0    0  0.38095235323E+03  0.13304145429E+03 -0.33448074685E+03  0.52412030490E+03  0.00000000000E+00 0. -1.
<mgrwt>
<rscale>  0 0.82031222E+03</rscale>
<asrwt>0</asrwt>
<pdfrwt beam="1">  1        2 0.12323234E+00 0.82031222E+03</pdfrwt>
<pdfrwt beam="2">  1       -2 0.32310745E-01 0.82031222E+03</pdfrwt>
<totfact> 0.30798820E+02</totfact>
</mgrwt>
</event>
<event>
 6    1  0.2236204E-005  0.1305701E+04  0.7818608E-02  0.9025056E-01
         -1   -1    0    0    0  501 -0.00000000000E+00  0.00000000000E+00  0.16480627733E+03  0.16480627733E+03  0.00000000000E+00 0.  1.
          1   -1    0    0  501    0  0.00000000000E+00 -0.00000000000E+00 -0.25861518868E+04  0.25861518868E+04  0.00000000000E+00 0. -1.
         23    2    1    2    0    0 -0.81507854037E+02 -0.46761834154E+03 -0.21511507359E+04  0.22047753071E+04  0.90962754574E+02 0.  0.
         13    1    3    3    0    0 -0.61024942774E+01 -0.13536017665E+03 -0.45513771100E+03  0.47487888334E+03  0.00000000000E+00 0. -1.
        -13    1    3    3    0    0 -0.75405359759E+02 -0.33225816489E+03 -0.16960130249E+04  0.17298964237E+04  0.00000000000E+00 0.  1.
         22    1    1    2    0    0  0.81507854037E+02  0.46761834154E+03 -0.27019487363E+03  0.54618285707E+03  0.00000000000E+00 0.  1.
<mgrwt>
<rscale>  0 0.13057014E+04</rscale>
<asrwt>0</asrwt>
<pdfrwt beam="1">  1        1 0.39786948E+00 0.13057014E+04</pdfrwt>
<pdfrwt beam="2">  1       -1 0.25354815E-01 0.13057014E+04</pdfrwt>
<totfact> 0.15927487E+01</totfact>
</mgrwt>
</event>
<event>
 6    1  0.2236204E-005  0.1452076E+04  0.7818608E-02  0.8916962E-01
         -1   -1    0    0    0  501 -0.00000000000E+00  0.00000000000E+00  0.95173699803E+03  0.95173699803E+03  0.00000000000E+00 0.  1.
          1   -1    0    0  501    0  0.00000000000E+00 -0.00000000000E+00 -0.55386234938E+03  0.55386234938E+03  0.00000000000E+00 0. -1.
         23    2    1    2    0    0  0.65714522289E+03  0.29538859437E+03  0.13471479068E+03  0.73856129327E+03  0.90721791481E+02 0.  0.
         11    1    3    3    0    0  0.53769456290E+03  0.20296912802E+03  0.11676622247E+03  0.58646931770E+03  0.00000000000E+00 0. -1.
        -11    1    3    3    0    0  0.11945065999E+03  0.92419466349E+02  0.17948568209E+02  0.15209197557E+03  0.00000000000E+00 0.  1.
         22    1    1    2    0    0 -0.65714522289E+03 -0.29538859437E+03  0.26315985797E+03  0.76703805414E+03  0.00000000000E+00 0.  1.
<mgrwt>
<rscale>  0 0.14520762E+04</rscale>
<asrwt>0</asrwt>
<pdfrwt beam="1">  1        1 0.85209592E-01 0.14520762E+04</pdfrwt>
<pdfrwt beam="2">  1       -1 0.14642108E+00 0.14520762E+04</pdfrwt>
<totfact> 0.13886364E+01</totfact>
</mgrwt>
</event>
<event>
 6    1  0.2236204E-005  0.1046764E+04  0.7818608E-02  0.9258692E-01
         -1   -1    0    0    0  501 -0.00000000000E+00  0.00000000000E+00  0.98777994523E+03  0.98777994523E+03  0.00000000000E+00 0.  1.
          1   -1    0    0  501    0  0.00000000000E+00 -0.00000000000E+00 -0.27731732113E+03  0.27731732113E+03  0.00000000000E+00 0. -1.
         23    2    1    2    0    0  0.32180339938E+03  0.91755372137E+02 -0.12278941511E+03  0.36716328382E+03  0.88063388265E+02 0.  0.
         11    1    3    3    0    0  0.24687770649E+03  0.94334332557E+02 -0.64089518139E+02  0.27194674956E+03  0.00000000000E+00 0. -1.
        -11    1    3    3    0    0  0.74925692887E+02 -0.25789604200E+01 -0.58699896969E+02  0.95216534256E+02  0.00000000000E+00 0.  1.
         22    1    1    2    0    0 -0.32180339938E+03 -0.91755372137E+02  0.83325203920E+03  0.89793398254E+03  0.00000000000E+00 0.  1.
<mgrwt>
<rscale>  0 0.10467636E+04</rscale>
<asrwt>0</asrwt>
<pdfrwt beam="1">  1        1 0.42664204E-01 0.10467636E+04</pdfrwt>
<pdfrwt beam="2">  1       -1 0.15196614E+00 0.10467636E+04</pdfrwt>
<totfact> 0.32722505E+01</totfact>
</mgrwt>
</event>
<event>
 6    1  0.2236204E-005  0.2500336E+04  0.7818608E-02  0.8402866E-01
          2   -1    0    0  501    0  0.00000000000E+00  0.00000000000E+00  0.11672816564E+04  0.11672816564E+04  0.00000000000E+00 0. -1.
         -2   -1    0    0    0  501 -0.00000000000E+00 -0.00000000000E+00 -0.13389395879E+04  0.13389395879E+04  0.00000000000E+00 0.  1.
         23    2    1    2    0    0  0.16489420505E+03 -0.91784713203E+03  0.74628120209E+03  0.11976931744E+04  0.88881104385E+02 0.  0.
         11    1    3    3    0    0  0.41332080622E+02 -0.46052381562E+03  0.39128339519E+03  0.60571711301E+03  0.00000000000E+00 0. -1.
        -11    1    3    3    0    0  0.12356212443E+03 -0.45732331641E+03  0.35499780691E+03  0.59197606137E+03  0.00000000000E+00 0.  1.
         22    1    1    2    0    0 -0.16489420505E+03  0.91784713203E+03 -0.91793913365E+03  0.13085280699E+04  0.00000000000E+00 0.  1.
<mgrwt>
<rscale>  0 0.25003357E+04</rscale>
<asrwt>0</asrwt>
<pdfrwt beam="1">  1        2 0.17958179E+00 0.25003357E+04</pdfrwt>
<pdfrwt beam="2">  1       -2 0.20599071E+00 0.25003357E+04</pdfrwt>
<totfact> 0.21482556E+00</totfact>
</mgrwt>
</event>
<event>
 6    1  0.2236204E-005  0.2312468E+04  0.7818608E-02  0.8473021E-01
          2   -1    0    0  501    0  0.00000000000E+00  0.00000000000E+00  0.14596637225E+04  0.14596637225E+04  0.00000000000E+00 0. -1.
         -2   -1    0    0    0  501 -0.00000000000E+00 -0.00000000000E+00 -0.91588040595E+03  0.91588040595E+03  0.00000000000E+00 0.  1.
         23    2    1    2    0    0 -0.23418680681E+03 -0.74662656560E+03 -0.59948915528E+03  0.99013204761E+03  0.93164024502E+02 0.  0.
         13    1    3    3    0    0 -0.38454095986E+02 -0.45603576458E+02 -0.36118643201E+02  0.69734927192E+02  0.00000000000E+00 0.  1.
        -13    1    3    3    0    0 -0.19573271082E+03 -0.70102298914E+03 -0.56337051208E+03  0.92039712041E+03  0.00000000000E+00 0. -1.
         22    1    1    2    0    0  0.23418680681E+03  0.74662656560E+03  0.11432724719E+04  0.13854120809E+04  0.00000000000E+00 0. -1.
<mgrwt>
<rscale>  0 0.23124683E+04</rscale>
<asrwt>0</asrwt>
<pdfrwt beam="1">  1        2 0.22456365E+00 0.23124683E+04</pdfrwt>
<pdfrwt beam="2">  1       -2 0.14090468E+00 0.23124683E+04</pdfrwt>
<totfact> 0.42806671E+00</totfact>
</mgrwt>
</event>
<event>
 6    1  0.2236204E-005  0.9228179E+03  0.7818608E-02  0.9397499E-01
         -2   -1    0    0    0  501 -0.00000000000E+00  0.00000000000E+00  0.23132125664E+03  0.23132125664E+03  0.00000000000E+00 0.  1.
          2   -1    0    0  501    0  0.00000000000E+00 -0.00000000000E+00 -0.92035739861E+03  0.92035739861E+03  0.00000000000E+00 0. -1.
         23    2    1    2    0    0  0.66935719077E+02  0.14841157682E+02 -0.91168831674E+03  0.91870946977E+03  0.90282072015E+02 0.  0.
         11    1    3    3    0    0  0.74585418027E+02 -0.13872890797E+02 -0.47587649717E+03  0.48188575642E+03  0.00000000000E+00 0.  1.
        -11    1    3    3    0    0 -0.76496989497E+01  0.28714048479E+02 -0.43581181957E+03  0.43682371336E+03  0.00000000000E+00 0. -1.
         22    1    1    2    0    0 -0.66935719077E+02 -0.14841157682E+02  0.22265217478E+03  0.23296918548E+03  0.00000000000E+00 0.  1.
<mgrwt>
<rscale>  0 0.92281792E+03</rscale>
<asrwt>0</asrwt>
<pdfrwt beam="1">  1        2 0.14159344E+00 0.92281792E+03</pdfrwt>
<pdfrwt beam="2">  1       -2 0.35587887E-01 0.92281792E+03</pdfrwt>
<totfact> 0.21095394E+02</totfact>
</mgrwt>
</event>
<event>
 6    1  0.2236204E-005  0.1248990E+04  0.7818608E-02  0.9071024E-01
          2   -1    0    0  501    0  0.00000000000E+00  0.00000000000E+00  0.35809634691E+03  0.35809634691E+03  0.00000000000E+00 0. -1.
         -2   -1    0    0    0  501 -0.00000000000E+00 -0.00000000000E+00 -0.10890759269E+04  0.10890759269E+04  0.00000000000E+00 0.  1.
         23    2    1    2    0    0  0.49469808219E+03 -0.31406338184E+03 -0.60607164538E+03  0.84803623544E+03  0.92090265213E+02 0.  0.
         11    1    3    3    0    0  0.42579737217E+03 -0.22837579629E+03 -0.49724335674E+03  0.69333243275E+03  0.00000000000E+00 0.  1.
        -11    1    3    3    0    0  0.68900710022E+02 -0.85687585549E+02 -0.10882828864E+03  0.15470380269E+03  0.00000000000E+00 0. -1.
         22    1    1    2    0    0 -0.49469808219E+03  0.31406338184E+03 -0.12490793461E+03  0.59913603837E+03  0.00000000000E+00 0. -1.
<mgrwt>
<rscale>  0 0.12489902E+04</rscale>
<asrwt>0</asrwt>
<pdfrwt beam="1">  1        2 0.55091747E-01 0.12489902E+04</pdfrwt>
<pdfrwt beam="2">  1       -2 0.16755014E+00 0.12489902E+04</pdfrwt>
<totfact> 0.19634940E+01</totfact>
</mgrwt>
</event>
<event>
 6    1  0.2236204E-005  0.1015401E+04  0.7818608E-02  0.9291813E-01
          2   -1    0    0  501    0  0.00000000000E+00  0.00000000000E+00  0.16740069163E+04  0.16740069163E+04  0.00000000000E+00 0. -1.
         -2   -1    0    0    0  501 -0.00000000000E+00 -0.00000000000E+00 -0.15397758850E+03  0.15397758850E+03  0.00000000000E+00 0.  1.
         23    2    1    2    0    0  0.49855634281E+03  0.67865378381E+02  0.73164291620E+03  0.89272129558E+03  0.92118500992E+02 0.  0.
         13    1    3    3    0    0  0.12926313441E+03  0.57497344006E+02  0.18355949863E+03  0.23175200544E+03  0.00000000000E+00 0. -1.
        -13    1    3    3    0    0  0.36929320840E+03  0.10368034375E+02  0.54808341756E+03  0.66096929014E+03  0.00000000000E+00 0.  1.
         22    1    1    2    0    0 -0.49855634281E+03 -0.67865378381E+02  0.78838641165E+03  0.93526320927E+03  0.00000000000E+00 0.  1.
<mgrwt>
<rscale>  0 0.10154005E+04</rscale>
<asrwt>0</asrwt>
<pdfrwt beam="1">  1        2 0.25753951E+00 0.10154005E+04</pdfrwt>
<pdfrwt beam="2">  1       -2 0.23688861E-01 0.10154005E+04</pdfrwt>
<totfact> 0.15998062E+02</totfact>
</mgrwt>
</event>
<event>
 6    1  0.2236204E-005  0.4396788E+04  0.7818608E-02  0.7928960E-01
         -2   -1    0    0    0  501 -0.00000000000E+00  0.00000000000E+00  0.12677313134E+04  0.12677313134E+04  0.00000000000E+00 0.  1.
          2   -1    0    0  501    0  0.00000000000E+00 -0.00000000000E+00 -0.38122710272E+04  0.38122710272E+04  0.00000000000E+00 0. -1.
         23    2    1    2    0    0 -0.58874406885E+03 -0.12173755020E+04 -0.32740687168E+04  0.35435013618E+04  0.90847386862E+02 0.  0.
         13    1    3    3    0    0 -0.34442163016E+03 -0.79017460639E+03 -0.21552499606E+04  0.23212291056E+04  0.00000000000E+00 0.  1.
        -13    1    3    3    0    0 -0.24432243868E+03 -0.42720089563E+03 -0.11188187562E+04  0.12222722563E+04  0.00000000000E+00 0. -1.
         22    1    1    2    0    0  0.58874406885E+03  0.12173755020E+04  0.72952900297E+03  0.15365009787E+04  0.00000000000E+00 0.  1.
<mgrwt>
<rscale>  0 0.43967876E+04</rscale>
<asrwt>0</asrwt>
<pdfrwt beam="1">  1        2 0.58650323E+00 0.43967876E+04</pdfrwt>
<pdfrwt beam="2">  1       -2 0.19503559E+00 0.43967876E+04</pdfrwt>
<totfact> 0.52511395E-02</totfact>
</mgrwt>
</event>
<event>
 6    1  0.2236204E-005  0.1720115E+04  0.7818608E-02  0.8749974E-01
          1   -1    0    0  501    0  0.00000000000E+00  0.00000000000E+00  0.33005534621E+03  0.33005534621E+03  0.00000000000E+00 0. -1.
         -1   -1    0    0    0  501 -0.00000000000E+00 -0.00000000000E+00 -0.22411369183E+04  0.22411369183E+04  0.00000000000E+00 0.  1.
         23    2    1    2    0    0 -0.20415546231E+03 -0.17654863825E+03 -0.21749201474E+04  0.21937539672E+04  0.97107912378E+02 0.  0.
         13    1    3    3    0    0 -0.15277517416E+03 -0.17822083958E+03 -0.18395136482E+04  0.18544307438E+04  0.00000000000E+00 0.  1.
        -13    1    3    3    0    0 -0.51380288155E+02  0.16722013346E+01 -0.33540649920E+03  0.33932322345E+03  0.00000000000E+00 0. -1.
         22    1    1    2    0    0  0.20415546231E+03  0.17654863825E+03  0.26383857530E+03  0.37743829731E+03  0.00000000000E+00 0. -1.
<mgrwt>
<rscale>  0 0.17201154E+04</rscale>
<asrwt>0</asrwt>
<pdfrwt beam="1">  1        1 0.50777747E-01 0.17201154E+04</pdfrwt>
<pdfrwt beam="2">  1       -1 0.34479028E+00 0.17201154E+04</pdfrwt>
<totfact> 0.12400048E+00</totfact>
</mgrwt>
</event>
<event>
 6    1  0.2236204E-005  0.2958523E+04  0.7818608E-02  0.8255675E-01
         -2   -1    0    0    0  501 -0.00000000000E+00  0.00000000000E+00  0.14547290710E+04  0.14547290710E+04  0.00000000000E+00 0.  1.
          2   -1    0    0  501    0  0.00000000000E+00 -0.00000000000E+00 -0.15042076289E+04  0.15042076289E+04  0.00000000000E+00 0. -1.
         23    2    1    2    0    0  0.35462566385E+03 -0.97375206426E+03 -0.10778696312E+04  0.14989570275E+04  0.10543616276E+03 0.  0.
         13    1    3    3    0    0  0.89399285681E+02 -0.37943886036E+03 -0.37180523552E+03  0.53870698361E+03  0.00000000000E+00 0. -1.
        -13    1    3    3    0    0  0.26522637817E+03 -0.59431320390E+03 -0.70606439565E+03  0.96025004390E+03  0.00000000000E+00 0.  1.
         22    1    1    2    0    0 -0.35462566385E+03  0.97375206426E+03  0.10283910732E+04  0.14599796723E+04  0.00000000000E+00 0.  1.
<mgrwt>
<rscale>  0 0.29585230E+04</rscale>
<asrwt>0</asrwt>
<pdfrwt beam="1">  1        2 0.23141656E+00 0.29585230E+04</pdfrwt>
<pdfrwt beam="2">  1       -2 0.22380447E+00 0.29585230E+04</pdfrwt>
<totfact> 0.10140649E+00</totfact>
</mgrwt>
</event>
<event>
 6    1  0.2236204E-005  0.4205931E+03  0.7818608E-02  0.1036873E+00
         -2   -1    0    0    0  501 -0.00000000000E+00  0.00000000000E+00  0.12660074038E+03  0.12660074038E+03  0.00000000000E+00 0.  1.
          2   -1    0    0  501    0  0.00000000000E+00 -0.00000000000E+00 -0.34932374050E+03  0.34932374050E+03  0.00000000000E+00 0. -1.
         23    2    1    2    0    0  0.67623582555E+02 -0.18951744068E+03 -0.95821971191E+02  0.23803021784E+03  0.83586632924E+02 0.  0.
         11    1    3    3    0    0  0.38896780650E+01  0.77845332541E+01  0.17538105557E+01  0.88771845142E+01  0.00000000000E+00 0. -1.
        -11    1    3    3    0    0  0.63733904490E+02 -0.19730197394E+03 -0.97575781747E+02  0.22915303333E+03  0.00000000000E+00 0.  1.
         22    1    1    2    0    0 -0.67623582555E+02  0.18951744068E+03 -0.12690102893E+03  0.23789426303E+03  0.00000000000E+00 0. -1.
<mgrwt>
<rscale>  0 0.42059312E+03</rscale>
<asrwt>0</asrwt>
<pdfrwt beam="1">  1        2 0.53742114E-01 0.42059312E+03</pdfrwt>
<pdfrwt beam="2">  1       -2 0.19477037E-01 0.42059312E+03</pdfrwt>
<totfact> 0.20513771E+03</totfact>
</mgrwt>
</event>
<event>
 6    1  0.2236204E-005  0.9243974E+03  0.7818608E-02  0.9395587E-01
         -2   -1    0    0    0  501 -0.00000000000E+00  0.00000000000E+00  0.13277232484E+03  0.13277232484E+03  0.00000000000E+00 0.  1.
          2   -1    0    0  501    0  0.00000000000E+00 -0.00000000000E+00 -0.16089771486E+04  0.16089771486E+04  0.00000000000E+00 0. -1.
         23    2    1    2    0    0  0.41342443299E+03 -0.18514297189E+03 -0.62309650138E+03  0.77583462651E+03  0.92045835470E+02 0.  0.
         11    1    3    3    0    0  0.11560266281E+03 -0.90762678649E+02 -0.24089188854E+03  0.28218919443E+03  0.00000000000E+00 0.  1.
        -11    1    3    3    0    0  0.29782177018E+03 -0.94380293237E+02 -0.38220461284E+03  0.49364543208E+03  0.00000000000E+00 0. -1.
         22    1    1    2    0    0 -0.41342443299E+03  0.18514297189E+03 -0.85310832242E+03  0.96591484698E+03  0.00000000000E+00 0. -1.
<mgrwt>
<rscale>  0 0.92439740E+03</rscale>
<asrwt>0</asrwt>
<pdfrwt beam="1">  1        2 0.24753495E+00 0.92439740E+03</pdfrwt>
<pdfrwt beam="2">  1       -2 0.20426512E-01 0.92439740E+03</pdfrwt>
<totfact> 0.22756291E+02</totfact>
</mgrwt>
</event>
<event>
 6    1  0.2236204E-005  0.4747056E+04  0.7818608E-02  0.7868757E-01
         -2   -1    0    0    0  501 -0.00000000000E+00  0.00000000000E+00  0.21843429320E+04  0.21843429320E+04  0.00000000000E+00 0.  1.
          2   -1    0    0  501    0  0.00000000000E+00 -0.00000000000E+00 -0.25790981458E+04  0.25790981458E+04  0.00000000000E+00 0. -1.
         23    2    1    2    0    0 -0.11096132156E+04 -0.10102599601E+04 -0.20416066906E+04  0.25354405253E+04  0.91837372899E+02 0.  0.
         13    1    3    3    0    0 -0.91499109980E+03 -0.80724190848E+03 -0.16063100359E+04  0.20171961092E+04  0.00000000000E+00 0. -1.
        -13    1    3    3    0    0 -0.19462211582E+03 -0.20301805160E+03 -0.43529665468E+03  0.51824441610E+03  0.00000000000E+00 0.  1.
         22    1    1    2    0    0  0.11096132156E+04  0.10102599601E+04  0.16468514768E+04  0.22280005525E+04  0.00000000000E+00 0.  1.
<mgrwt>
<rscale>  0 0.47470558E+04</rscale>
<asrwt>0</asrwt>
<pdfrwt beam="1">  1        2 0.39678433E+00 0.47470558E+04</pdfrwt>
<pdfrwt beam="2">  1       -2 0.33605276E+00 0.47470558E+04</pdfrwt>
<totfact> 0.44253496E-02</totfact>
</mgrwt>
</event>
<event>
 6    1  0.2236204E-005  0.1602486E+04  0.7818608E-02  0.8819022E-01
          2   -1    0    0  501    0  0.00000000000E+00  0.00000000000E+00  0.11476177511E+04  0.11476177511E+04  0.00000000000E+00 0. -1.
         -2   -1    0    0    0  501 -0.00000000000E+00 -0.00000000000E+00 -0.55941154145E+03  0.55941154145E+03  0.00000000000E+00 0.  1.
         23    2    1    2    0    0 -0.62177811599E+03  0.11854064492E+03  0.81387923761E+03  0.10350261486E+04  0.90663139482E+02 0.  0.
         11    1    3    3    0    0 -0.29735588458E+03  0.96552242068E+02  0.36204422031E+03  0.47835015940E+03  0.00000000000E+00 0.  1.
        -11    1    3    3    0    0 -0.32442223141E+03  0.21988402852E+02  0.45183501730E+03  0.55667598920E+03  0.00000000000E+00 0. -1.
         22    1    1    2    0    0  0.62177811599E+03 -0.11854064492E+03 -0.22567302791E+03  0.67200314400E+03  0.00000000000E+00 0.  1.
<mgrwt>
<rscale>  0 0.16024863E+04</rscale>
<asrwt>0</asrwt>
<pdfrwt beam="1">  1        2 0.17655658E+00 0.16024863E+04</pdfrwt>
<pdfrwt beam="2">  1       -2 0.86063315E-01 0.16024863E+04</pdfrwt>
<totfact> 0.22877329E+01</totfact>
</mgrwt>
</event>
<event>
 6    1  0.2236204E-005  0.1816584E+04  0.7818608E-02  0.8697530E-01
          2   -1    0    0  501    0  0.00000000000E+00  0.00000000000E+00  0.20700418300E+04  0.20700418300E+04  0.00000000000E+00 0. -1.
         -2   -1    0    0    0  501 -0.00000000000E+00 -0.00000000000E+00 -0.39853992887E+03  0.39853992887E+03  0.00000000000E+00 0.  1.
         23    2    1    2    0    0  0.53489878156E+03 -0.39427243736E+03  0.16073527968E+01  0.67132961631E+03  0.95464175354E+02 0.  0.
         13    1    3    3    0    0  0.15909333089E+03 -0.17221703936E+03 -0.99949138067E+01  0.23466847867E+03  0.00000000000E+00 0.  1.
        -13    1    3    3    0    0  0.37580545067E+03 -0.22205539800E+03  0.11602266604E+02  0.43666113764E+03  0.00000000000E+00 0. -1.
         22    1    1    2    0    0 -0.53489878156E+03  0.39427243736E+03  0.16698945484E+04  0.17972521426E+04  0.00000000000E+00 0. -1.
<mgrwt>
<rscale>  0 0.18165840E+04</rscale>
<asrwt>0</asrwt>
<pdfrwt beam="1">  1        2 0.31846797E+00 0.18165840E+04</pdfrwt>
<pdfrwt beam="2">  1       -2 0.61313836E-01 0.18165840E+04</pdfrwt>
<totfact> 0.14242753E+01</totfact>
</mgrwt>
</event>
<event>
 6    1  0.2236204E-005  0.1788833E+04  0.7818608E-02  0.8712260E-01
         -2   -1    0    0    0  501 -0.00000000000E+00  0.00000000000E+00  0.10712365454E+04  0.10712365454E+04  0.00000000000E+00 0.  1.
          2   -1    0    0  501    0  0.00000000000E+00 -0.00000000000E+00 -0.74678295708E+03  0.74678295708E+03  0.00000000000E+00 0. -1.
         23    2    1    2    0    0 -0.51236559930E+03 -0.35106666179E+02 -0.57865166191E+03  0.77910175870E+03  0.91710518574E+02 0.  0.
         13    1    3    3    0    0 -0.42347391911E+03 -0.58218409836E+02 -0.44610239118E+03  0.61784050274E+03  0.00000000000E+00 0.  1.
        -13    1    3    3    0    0 -0.88891680194E+02  0.23111743657E+02 -0.13254927072E+03  0.16126125595E+03  0.00000000000E+00 0. -1.
         22    1    1    2    0    0  0.51236559930E+03  0.35106666179E+02  0.90310525027E+03  0.10389177438E+04  0.00000000000E+00 0.  1.
<mgrwt>
<rscale>  0 0.17888334E+04</rscale>
<asrwt>0</asrwt>
<pdfrwt beam="1">  1        2 0.11488969E+00 0.17888334E+04</pdfrwt>
<pdfrwt beam="2">  1       -2 0.16480562E+00 0.17888334E+04</pdfrwt>
<totfact> 0.82715826E+00</totfact>
</mgrwt>
</event>
<event>
 6    1  0.2236204E-005  0.4573151E+03  0.7818608E-02  0.1025563E+00
          2   -1    0    0  501    0  0.00000000000E+00  0.00000000000E+00  0.88414993267E+02  0.88414993267E+02  0.00000000000E+00 0. -1.
         -2   -1    0    0    0  501 -0.00000000000E+00 -0.00000000000E+00 -0.59135076746E+03  0.59135076746E+03  0.00000000000E+00 0.  1.
         23    2    1    2    0    0  0.19100964526E+03 -0.81030962556E+02 -0.15396065306E+03  0.27376780920E+03  0.90521981785E+02 0.  0.
         13    1    3    3    0    0  0.65630824045E+02  0.10606132017E+02 -0.22153919279E+02  0.70076324394E+02  0.00000000000E+00 0.  1.
        -13    1    3    3    0    0  0.12537882122E+03 -0.91637094573E+02 -0.13180673378E+03  0.20369148480E+03  0.00000000000E+00 0. -1.
         22    1    1    2    0    0 -0.19100964526E+03  0.81030962556E+02 -0.34897512114E+03  0.40599795154E+03  0.00000000000E+00 0. -1.
<mgrwt>
<rscale>  0 0.45731510E+03</rscale>
<asrwt>0</asrwt>
<pdfrwt beam="1">  1        2 0.13602307E-01 0.45731510E+03</pdfrwt>
<pdfrwt beam="2">  1       -2 0.90977041E-01 0.45731510E+03</pdfrwt>
<totfact> 0.47009447E+02</totfact>
</mgrwt>
</event>
<event>
 6    1  0.2236204E-005  0.6245607E+04  0.7818608E-02  0.7660674E-01
          2   -1    0    0  501    0  0.00000000000E+00  0.00000000000E+00  0.45391255442E+04  0.45391255442E+04  0.00000000000E+00 0. -1.
         -2   -1    0    0    0  501 -0.00000000000E+00 -0.00000000000E+00 -0.21484095831E+04  0.21484095831E+04  0.00000000000E+00 0.  1.
         23    2    1    2    0    0  0.97473383992E+03 -0.59721985380E+03 -0.19153106771E+04  0.22323535348E+04  0.90607407380E+02 0.  0.
         13    1    3    3    0    0  0.43122384573E+03 -0.22072478599E+03 -0.85900395738E+03  0.98618519309E+03  0.00000000000E+00 0. -1.
        -13    1    3    3    0    0  0.54350999419E+03 -0.37649506781E+03 -0.10563067197E+04  0.12461683417E+04  0.00000000000E+00 0.  1.
         22    1    1    2    0    0 -0.97473383992E+03  0.59721985380E+03  0.43060266382E+04  0.44551815924E+04  0.00000000000E+00 0. -1.
<mgrwt>
<rscale>  0 0.62456067E+04</rscale>
<asrwt>0</asrwt>
<pdfrwt beam="1">  1        2 0.69832700E+00 0.62456067E+04</pdfrwt>
<pdfrwt beam="2">  1       -2 0.33052455E+00 0.62456067E+04</pdfrwt>
<totfact> 0.15127293E-03</totfact>
</mgrwt>
</event>
<event>
 6    1  0.2236204E-005  0.1610321E+04  0.7818608E-02  0.8814232E-01
          2   -1    0    0  501    0  0.00000000000E+00  0.00000000000E+00  0.19060941178E+04  0.19060941178E+04  0.00000000000E+00 0. -1.
         -2   -1    0    0    0  501 -0.00000000000E+00 -0.00000000000E+00 -0.34011109297E+03  0.34011109297E+03  0.00000000000E+00 0.  1.
         23    2    1    2    0    0  0.53630757701E+03 -0.18518859497E+03 -0.61112408206E+01  0.57485814538E+03  0.92216631754E+02 0.  0.
         11    1    3    3    0    0  0.44869712799E+03 -0.13318681364E+03 -0.33847065195E+02  0.46926907401E+03  0.00000000000E+00 0.  1.
        -11    1    3    3    0    0  0.87610449021E+02 -0.52001781329E+02  0.27735824374E+02  0.10558907137E+03  0.00000000000E+00 0. -1.
         22    1    1    2    0    0 -0.53630757701E+03  0.18518859497E+03  0.15720942656E+04  0.16713470654E+04  0.00000000000E+00 0. -1.
<mgrwt>
<rscale>  0 0.16103214E+04</rscale>
<asrwt>0</asrwt>
<pdfrwt beam="1">  1        2 0.29324524E+00 0.16103214E+04</pdfrwt>
<pdfrwt beam="2">  1       -2 0.52324785E-01 0.16103214E+04</pdfrwt>
<totfact> 0.24888500E+01</totfact>
</mgrwt>
</event>
<event>
 6    1  0.2236204E-005  0.3225278E+04  0.7818608E-02  0.8182173E-01
         -2   -1    0    0    0  501 -0.00000000000E+00  0.00000000000E+00  0.37079388563E+04  0.37079388563E+04  0.00000000000E+00 0. -1.
          2   -1    0    0  501    0  0.00000000000E+00 -0.00000000000E+00 -0.70136134532E+03  0.70136134532E+03  0.00000000000E+00 0.  1.
         23    2    1    2    0    0  0.61225489045E+03 -0.92947894356E+02  0.35381995337E+04  0.35931400843E+04  0.91128278455E+02 0.  0.
         13    1    3    3    0    0  0.21735248854E+03 -0.57652299885E+02  0.14965791794E+04  0.15133787140E+04  0.00000000000E+00 0. -1.
        -13    1    3    3    0    0  0.39490240191E+03 -0.35295594471E+02  0.20416203544E+04  0.20797613703E+04  0.00000000000E+00 0.  1.
         22    1    1    2    0    0 -0.61225489045E+03  0.92947894356E+02 -0.53162202277E+03  0.81616011728E+03  0.00000000000E+00 0.  1.
<mgrwt>
<rscale>  0 0.32252783E+04</rscale>
<asrwt>0</asrwt>
<pdfrwt beam="1">  1        2 0.10790175E+00 0.32252783E+04</pdfrwt>
<pdfrwt beam="2">  1       -2 0.57045212E+00 0.32252783E+04</pdfrwt>
<totfact> 0.23114605E-02</totfact>
</mgrwt>
</event>
<event>
 6    1  0.2236204E-005  0.2449310E+04  0.7818608E-02  0.8421270E-01
         -2   -1    0    0    0  501 -0.00000000000E+00  0.00000000000E+00  0.92490924251E+03  0.92490924251E+03  0.00000000000E+00 0.  1.
          2   -1    0    0  501    0  0.00000000000E+00 -0.00000000000E+00 -0.16215425643E+04  0.16215425643E+04  0.00000000000E+00 0. -1.
         23    2    1    2    0    0  0.64309628480E+03 -0.95456481531E+03  0.80870716552E+02  0.11574668005E+04  0.91774196900E+02 0.  0.
         11    1    3    3    0    0  0.56251253360E+03 -0.86405682405E+03  0.95329929494E+02  0.10354237495E+04  0.00000000000E+00 0. -1.
        -11    1    3    3    0    0  0.80583751207E+02 -0.90507991254E+02 -0.14459212943E+02  0.12204305092E+03  0.00000000000E+00 0.  1.
         22    1    1    2    0    0 -0.64309628480E+03  0.95456481531E+03 -0.77750403830E+03  0.13889850063E+04  0.00000000000E+00 0. -1.
<mgrwt>
<rscale>  0 0.24493099E+04</rscale>
<asrwt>0</asrwt>
<pdfrwt beam="1">  1        2 0.24946809E+00 0.24493099E+04</pdfrwt>
<pdfrwt beam="2">  1       -2 0.14229373E+00 0.24493099E+04</pdfrwt>
<totfact> 0.33447997E+00</totfact>
</mgrwt>
</event>
<event>
 6    1  0.2236204E-005  0.1434662E+04  0.7818608E-02  0.8929104E-01
          2   -1    0    0  501    0  0.00000000000E+00  0.00000000000E+00  0.15120359926E+04  0.15120359926E+04  0.00000000000E+00 0. -1.
         -2   -1    0    0    0  501 -0.00000000000E+00 -0.00000000000E+00 -0.34031187127E+03  0.34031187127E+03  0.00000000000E+00 0.  1.
         23    2    1    2    0    0 -0.65694410442E+02 -0.48587126862E+03  0.12591278474E+04  0.13543257192E+04  0.91698267530E+02 0.  0.
         11    1    3    3    0    0 -0.61683881867E+02 -0.36532969110E+03  0.83763387284E+03  0.91591549250E+03  0.00000000000E+00 0. -1.
        -11    1    3    3    0    0 -0.40105285744E+01 -0.12054157751E+03  0.42149397461E+03  0.43841022671E+03  0.00000000000E+00 0.  1.
         22    1    1    2    0    0  0.65694410442E+02  0.48587126862E+03 -0.87403726112E+02  0.49802214466E+03  0.00000000000E+00 0.  1.
<mgrwt>
<rscale>  0 0.14346620E+04</rscale>
<asrwt>0</asrwt>
<pdfrwt beam="1">  1        2 0.23262092E+00 0.14346620E+04</pdfrwt>
<pdfrwt beam="2">  1       -2 0.52355674E-01 0.14346620E+04</pdfrwt>
<totfact> 0.41765163E+01</totfact>
</mgrwt>
</event>
<event>
 6    1  0.2236204E-005  0.3072065E+04  0.7818608E-02  0.8223446E-01
          2   -1    0    0  501    0  0.00000000000E+00  0.00000000000E+00  0.18194952781E+04  0.18194952781E+04  0.00000000000E+00 0. -1.
         -2   -1    0    0    0  501 -0.00000000000E+00 -0.00000000000E+00 -0.12967309746E+04  0.12967309746E+04  0.00000000000E+00 0.  1.
         23    2    1    2    0    0  0.13988540481E+04  0.63091505571E+03  0.24177258718E+03  0.15561612540E+04  0.91309413234E+02 0.  0.
         13    1    3    3    0    0  0.77916264298E+03  0.39842451651E+03  0.12304744970E+03  0.88372914088E+03  0.00000000000E+00 0. -1.
        -13    1    3    3    0    0  0.61969140516E+03  0.23249053920E+03  0.11872513748E+03  0.67243211309E+03  0.00000000000E+00 0.  1.
         22    1    1    2    0    0 -0.13988540481E+04 -0.63091505571E+03  0.28099171629E+03  0.15600649987E+04  0.00000000000E+00 0.  1.
<mgrwt>
<rscale>  0 0.30720650E+04</rscale>
<asrwt>0</asrwt>
<pdfrwt beam="1">  1        2 0.27992235E+00 0.30720650E+04</pdfrwt>
<pdfrwt beam="2">  1       -2 0.19949707E+00 0.30720650E+04</pdfrwt>
<totfact> 0.95994274E-01</totfact>
</mgrwt>
</event>
<event>
 6    1  0.2236204E-005  0.1053954E+04  0.7818608E-02  0.9251271E-01
         -2   -1    0    0    0  501 -0.00000000000E+00  0.00000000000E+00  0.27537345316E+03  0.27537345316E+03  0.00000000000E+00 0.  1.
          2   -1    0    0  501    0  0.00000000000E+00 -0.00000000000E+00 -0.10084667451E+04  0.10084667451E+04  0.00000000000E+00 0. -1.
         23    2    1    2    0    0 -0.33354716476E+03  0.24084710978E+03  0.24383911707E+02  0.42184672065E+03  0.89994661823E+02 0.  0.
         11    1    3    3    0    0 -0.96085895871E+02  0.42575253242E+02  0.39124532123E+02  0.11214223374E+03  0.00000000000E+00 0.  1.
        -11    1    3    3    0    0 -0.23746126889E+03  0.19827185654E+03 -0.14740620416E+02  0.30970448691E+03  0.00000000000E+00 0. -1.
         22    1    1    2    0    0  0.33354716476E+03 -0.24084710978E+03 -0.75747720363E+03  0.86199347761E+03  0.00000000000E+00 0. -1.
<mgrwt>
<rscale>  0 0.10539544E+04</rscale>
<asrwt>0</asrwt>
<pdfrwt beam="1">  1        2 0.15514873E+00 0.10539544E+04</pdfrwt>
<pdfrwt beam="2">  1       -2 0.42365147E-01 0.10539544E+04</pdfrwt>
<totfact> 0.13069194E+02</totfact>
</mgrwt>
</event>
<event>
 6    1  0.2236204E-005  0.1696090E+04  0.7818608E-02  0.8763598E-01
          2   -1    0    0  501    0  0.00000000000E+00  0.00000000000E+00  0.38024997679E+04  0.38024997679E+04  0.00000000000E+00 0. -1.
         -2   -1    0    0    0  501 -0.00000000000E+00 -0.00000000000E+00 -0.18913349522E+03  0.18913349522E+03  0.00000000000E+00 0.  1.
         23    2    1    2    0    0  0.76416373353E+03  0.36037629190E+03  0.17371267687E+04  0.19339423340E+04  0.93307327353E+02 0.  0.
         13    1    3    3    0    0  0.57837686562E+03  0.30212274874E+03  0.12690569630E+04  0.14269910754E+04  0.00000000000E+00 0. -1.
        -13    1    3    3    0    0  0.18578686791E+03  0.58253543158E+02  0.46806980567E+03  0.50695125857E+03  0.00000000000E+00 0.  1.
         22    1    1    2    0    0 -0.76416373353E+03 -0.36037629190E+03  0.18762395040E+04  0.20576909291E+04  0.00000000000E+00 0. -1.
<mgrwt>
<rscale>  0 0.16960897E+04</rscale>
<asrwt>0</asrwt>
<pdfrwt beam="1">  1        2 0.58499991E+00 0.16960897E+04</pdfrwt>
<pdfrwt beam="2">  1       -2 0.29097464E-01 0.16960897E+04</pdfrwt>
<totfact> 0.51245084E+00</totfact>
</mgrwt>
</event>
<event>
 6    1  0.2236204E-005  0.2271442E+04  0.7818608E-02  0.8489267E-01
          2   -1    0    0  501    0  0.00000000000E+00  0.00000000000E+00  0.10812915654E+04  0.10812915654E+04  0.00000000000E+00 0. -1.
         -2   -1    0    0    0  501 -0.00000000000E+00 -0.00000000000E+00 -0.11928898116E+04  0.11928898116E+04  0.00000000000E+00 0.  1.
         23    2    1    2    0    0 -0.33990843054E+03 -0.63167977513E+02  0.10254324755E+04  0.10857509851E+04  0.88405346509E+02 0.  0.
         13    1    3    3    0    0 -0.15040477217E+03 -0.10152933273E+02  0.57057201119E+03  0.59015006354E+03  0.00000000000E+00 0.  1.
        -13    1    3    3    0    0 -0.18950365837E+03 -0.53015044240E+02  0.45486046427E+03  0.49560092151E+03  0.00000000000E+00 0. -1.
         22    1    1    2    0    0  0.33990843054E+03  0.63167977513E+02 -0.11370307216E+04  0.11884303919E+04  0.00000000000E+00 0.  1.
<mgrwt>
<rscale>  0 0.22714416E+04</rscale>
<asrwt>0</asrwt>
<pdfrwt beam="1">  1        2 0.16635255E+00 0.22714416E+04</pdfrwt>
<pdfrwt beam="2">  1       -2 0.18352151E+00 0.22714416E+04</pdfrwt>
<totfact> 0.34866412E+00</totfact>
</mgrwt>
</event>
<event>
 6    1  0.2236204E-005  0.5270974E+04  0.7818608E-02  0.7788014E-01
          2   -1    0    0  501    0  0.00000000000E+00  0.00000000000E+00  0.35932008930E+04  0.35932008930E+04  0.00000000000E+00 0.  1.
         -2   -1    0    0    0  501 -0.00000000000E+00 -0.00000000000E+00 -0.19330371127E+04  0.19330371127E+04  0.00000000000E+00 0. -1.
         23    2    1    2    0    0  0.25414635891E+03 -0.20782066282E+04 -0.84656676611E+03  0.22601652580E+04  0.90213870762E+02 0.  0.
         11    1    3    3    0    0  0.19071950111E+03 -0.12010511195E+04 -0.50141233737E+03  0.13154132627E+04  0.00000000000E+00 0. -1.
        -11    1    3    3    0    0  0.63426857799E+02 -0.87715550877E+03 -0.34515442874E+03  0.94475199525E+03  0.00000000000E+00 0.  1.
         22    1    1    2    0    0 -0.25414635891E+03  0.20782066282E+04  0.25067305464E+04  0.32660727478E+04  0.00000000000E+00 0.  1.
<mgrwt>
<rscale>  0 0.52709736E+04</rscale>
<asrwt>0</asrwt>
<pdfrwt beam="1">  1        2 0.55280014E+00 0.52709736E+04</pdfrwt>
<pdfrwt beam="2">  1       -2 0.29739033E+00 0.52709736E+04</pdfrwt>
<totfact> 0.16365316E-02</totfact>
</mgrwt>
</event>
<event>
 6    1  0.2236204E-005  0.7696947E+03  0.7818608E-02  0.9604949E-01
         -2   -1    0    0    0  501 -0.00000000000E+00  0.00000000000E+00  0.13083170206E+03  0.13083170206E+03  0.00000000000E+00 0.  1.
          2   -1    0    0  501    0  0.00000000000E+00 -0.00000000000E+00 -0.11320457052E+04  0.11320457052E+04  0.00000000000E+00 0. -1.
         23    2    1    2    0    0 -0.18155620201E+03 -0.68553564965E+02  0.28903645926E+02  0.21463859064E+03  0.87017573443E+02 0.  0.
         11    1    3    3    0    0 -0.35976718542E+02 -0.25232040674E+00 -0.26360995444E+02  0.44601457638E+02  0.00000000000E+00 0. -1.
        -11    1    3    3    0    0 -0.14557948347E+03 -0.68301244558E+02  0.55264641370E+02  0.17003713301E+03  0.00000000000E+00 0.  1.
         22    1    1    2    0    0  0.18155620201E+03  0.68553564965E+02 -0.10301176491E+04  0.10482388166E+04  0.00000000000E+00 0. -1.
<mgrwt>
<rscale>  0 0.76969466E+03</rscale>
<asrwt>0</asrwt>
<pdfrwt beam="1">  1        2 0.17416087E+00 0.76969466E+03</pdfrwt>
<pdfrwt beam="2">  1       -2 0.20127955E-01 0.76969466E+03</pdfrwt>
<totfact> 0.44218376E+02</totfact>
</mgrwt>
</event>
<event>
 6    1  0.2236204E-005  0.1471211E+04  0.7818608E-02  0.8903827E-01
         -2   -1    0    0    0  501 -0.00000000000E+00  0.00000000000E+00  0.32682872928E+03  0.32682872928E+03  0.00000000000E+00 0.  1.
          2   -1    0    0  501    0  0.00000000000E+00 -0.00000000000E+00 -0.16556534229E+04  0.16556534229E+04  0.00000000000E+00 0. -1.
         23    2    1    2    0    0 -0.67124649354E+03  0.63583883527E+02 -0.10538610748E+04  0.12543202492E+04  0.89896368664E+02 0.  0.
         13    1    3    3    0    0 -0.52520636612E+03  0.49165891722E+02 -0.75061933409E+03  0.91743577248E+03  0.00000000000E+00 0. -1.
        -13    1    3    3    0    0 -0.14604012742E+03  0.14417991805E+02 -0.30324174074E+03  0.33688447668E+03  0.00000000000E+00 0.  1.
         22    1    1    2    0    0  0.67124649354E+03 -0.63583883527E+02 -0.27496361880E+03  0.72816190301E+03  0.00000000000E+00 0. -1.
<mgrwt>
<rscale>  0 0.14712105E+04</rscale>
<asrwt>0</asrwt>
<pdfrwt beam="1">  1        2 0.25471591E+00 0.14712105E+04</pdfrwt>
<pdfrwt beam="2">  1       -2 0.50281343E-01 0.14712105E+04</pdfrwt>
<totfact> 0.37598574E+01</totfact>
</mgrwt>
</event>
<event>
 6    1  0.2236204E-005  0.7300011E+04  0.7818608E-02  0.7547262E-01
          2   -1    0    0  501    0  0.00000000000E+00  0.00000000000E+00  0.47428958641E+04  0.47428958641E+04  0.00000000000E+00 0. -1.
         -2   -1    0    0    0  501 -0.00000000000E+00 -0.00000000000E+00 -0.28089465156E+04  0.28089465156E+04  0.00000000000E+00 0.  1.
         23    2    1    2    0    0  0.19582876736E+04 -0.56856294095E+03 -0.21638990589E+04  0.29746690160E+04  0.89678243242E+02 0.  0.
         13    1    3    3    0    0  0.91467036092E+03 -0.31217906170E+03 -0.10258493100E+04  0.14094128006E+04  0.00000000000E+00 0. -1.
        -13    1    3    3    0    0  0.10436173126E+04 -0.25638387924E+03 -0.11380497490E+04  0.15652562154E+04  0.00000000000E+00 0.  1.
         22    1    1    2    0    0 -0.19582876736E+04  0.56856294095E+03  0.40978484075E+04  0.45771733637E+04  0.00000000000E+00 0. -1.
<mgrwt>
<rscale>  0 0.73000112E+04</rscale>
<asrwt>0</asrwt>
<pdfrwt beam="1">  1        2 0.72967629E+00 0.73000112E+04</pdfrwt>
<pdfrwt beam="2">  1       -2 0.43214562E+00 0.73000112E+04</pdfrwt>
<totfact> 0.18882253E-04</totfact>
</mgrwt>
</event>
<event>
 6    1  0.2236204E-005  0.1958975E+04  0.7818608E-02  0.8626045E-01
          2   -1    0    0  501    0  0.00000000000E+00  0.00000000000E+00  0.16011214388E+04  0.16011214388E+04  0.00000000000E+00 0. -1.
         -2   -1    0    0    0  501 -0.00000000000E+00 -0.00000000000E+00 -0.59920209864E+03  0.59920209864E+03  0.00000000000E+00 0.  1.
         23    2    1    2    0    0 -0.73013468504E+02 -0.92835159823E+03  0.16865559299E+03  0.95072515042E+03  0.90917248510E+02 0.  0.
         11    1    3    3    0    0 -0.64217738538E+02 -0.74100212942E+03  0.97578326989E+02  0.75015305348E+03  0.00000000000E+00 0.  1.
        -11    1    3    3    0    0 -0.87957299663E+01 -0.18734946880E+03  0.71077265998E+02  0.20057209693E+03  0.00000000000E+00 0. -1.
         22    1    1    2    0    0  0.73013468504E+02  0.92835159823E+03  0.83326374722E+03  0.12495983871E+04  0.00000000000E+00 0. -1.
<mgrwt>
<rscale>  0 0.19589746E+04</rscale>
<asrwt>0</asrwt>
<pdfrwt beam="1">  1        2 0.24632637E+00 0.19589746E+04</pdfrwt>
<pdfrwt beam="2">  1       -2 0.92184939E-01 0.19589746E+04</pdfrwt>
<totfact> 0.10377352E+01</totfact>
</mgrwt>
</event>
<event>
 6    1  0.2236204E-005  0.1521852E+04  0.7818608E-02  0.8870050E-01
         -1   -1    0    0    0  501 -0.00000000000E+00  0.00000000000E+00  0.47721460738E+03  0.47721460738E+03  0.00000000000E+00 0. -1.
          1   -1    0    0  501    0  0.00000000000E+00 -0.00000000000E+00 -0.12133078857E+04  0.12133078857E+04  0.00000000000E+00 0.  1.
         23    2    1    2    0    0 -0.51375728167E+03 -0.42818664449E+03 -0.76539373699E+03  0.10210832771E+04  0.97432741617E+02 0.  0.
         13    1    3    3    0    0 -0.24624473464E+03 -0.15519978449E+03 -0.28717677790E+03  0.40889356098E+03  0.00000000000E+00 0.  1.
        -13    1    3    3    0    0 -0.26751254703E+03 -0.27298686000E+03 -0.47821695909E+03  0.61218971612E+03  0.00000000000E+00 0. -1.
         22    1    1    2    0    0  0.51375728167E+03  0.42818664449E+03  0.29300458696E+02  0.66943921597E+03  0.00000000000E+00 0. -1.
<mgrwt>
<rscale>  0 0.15218518E+04</rscale>
<asrwt>0</asrwt>
<pdfrwt beam="1">  1        1 0.18666275E+00 0.15218518E+04</pdfrwt>
<pdfrwt beam="2">  1       -1 0.73417631E-01 0.15218518E+04</pdfrwt>
<totfact> 0.18862740E+01</totfact>
</mgrwt>
</event>
<event>
 6    1  0.2236204E-005  0.1943812E+04  0.7818608E-02  0.8633350E-01
         -1   -1    0    0    0  501 -0.00000000000E+00  0.00000000000E+00  0.74775552180E+03  0.74775552180E+03  0.00000000000E+00 0.  1.
          1   -1    0    0  501    0  0.00000000000E+00 -0.00000000000E+00 -0.12632493019E+04  0.12632493019E+04  0.00000000000E+00 0. -1.
         23    2    1    2    0    0  0.67440645915E+03  0.69337867137E+03 -0.18707269763E+03  0.98950667810E+03  0.92353764214E+02 0.  0.
         13    1    3    3    0    0  0.56403098850E+03  0.52948634471E+03 -0.13685350411E+03  0.78563071911E+03  0.00000000000E+00 0. -1.
        -13    1    3    3    0    0  0.11037547065E+03  0.16389232665E+03 -0.50219193517E+02  0.20387595899E+03  0.00000000000E+00 0.  1.
         22    1    1    2    0    0 -0.67440645915E+03 -0.69337867137E+03 -0.32842108247E+03  0.10214981456E+04  0.00000000000E+00 0. -1.
<mgrwt>
<rscale>  0 0.19438124E+04</rscale>
<asrwt>0</asrwt>
<pdfrwt beam="1">  1        1 0.19434605E+00 0.19438124E+04</pdfrwt>
<pdfrwt beam="2">  1       -1 0.11503931E+00 0.19438124E+04</pdfrwt>
<totfact> 0.61457206E+00</totfact>
</mgrwt>
</event>
<event>
 6    1  0.2236204E-005  0.2265219E+04  0.7818608E-02  0.8491762E-01
          2   -1    0    0  501    0  0.00000000000E+00  0.00000000000E+00  0.22513960806E+04  0.22513960806E+04  0.00000000000E+00 0. -1.
         -2   -1    0    0    0  501 -0.00000000000E+00 -0.00000000000E+00 -0.56978175973E+03  0.56978175973E+03  0.00000000000E+00 0.  1.
         23    2    1    2    0    0 -0.10166314651E+04 -0.31363600924E+03  0.36507457687E+03  0.11284924060E+04  0.91151420554E+02 0.  0.
         11    1    3    3    0    0 -0.82985389845E+03 -0.28182251000E+03  0.27373311326E+03  0.91815643396E+03  0.00000000000E+00 0. -1.
        -11    1    3    3    0    0 -0.18677756667E+03 -0.31813499235E+02  0.91341463612E+02  0.21033597200E+03  0.00000000000E+00 0.  1.
         22    1    1    2    0    0  0.10166314651E+04  0.31363600924E+03  0.13165397440E+04  0.16926854343E+04  0.00000000000E+00 0. -1.
<mgrwt>
<rscale>  0 0.22652191E+04</rscale>
<asrwt>0</asrwt>
<pdfrwt beam="1">  1        2 0.34636862E+00 0.22652191E+04</pdfrwt>
<pdfrwt beam="2">  1       -2 0.87658734E-01 0.22652191E+04</pdfrwt>
<totfact> 0.49309647E+00</totfact>
</mgrwt>
</event>
<event>
 6    1  0.2236204E-005  0.3266806E+04  0.7818608E-02  0.8171393E-01
          2   -1    0    0  501    0  0.00000000000E+00  0.00000000000E+00  0.41746245843E+04  0.41746245843E+04  0.00000000000E+00 0. -1.
         -2   -1    0    0    0  501 -0.00000000000E+00 -0.00000000000E+00 -0.63910074114E+03  0.63910074114E+03  0.00000000000E+00 0.  1.
         23    2    1    2    0    0 -0.16925046947E+03 -0.16211791961E+04  0.16570285248E+04  0.23266361899E+04  0.10307628688E+03 0.  0.
         11    1    3    3    0    0 -0.10607273350E+03 -0.61152913266E+03  0.59156456435E+03  0.85741934821E+03  0.00000000000E+00 0.  1.
        -11    1    3    3    0    0 -0.63177735966E+02 -0.10096500634E+04  0.10654639605E+04  0.14692168417E+04  0.00000000000E+00 0. -1.
         22    1    1    2    0    0  0.16925046947E+03  0.16211791961E+04  0.18784953184E+04  0.24870891356E+04  0.00000000000E+00 0. -1.
<mgrwt>
<rscale>  0 0.32668062E+04</rscale>
<asrwt>0</asrwt>
<pdfrwt beam="1">  1        2 0.64224992E+00 0.32668062E+04</pdfrwt>
<pdfrwt beam="2">  1       -2 0.98323194E-01 0.32668062E+04</pdfrwt>
<totfact> 0.17568324E-01</totfact>
</mgrwt>
</event>
<event>
 6    1  0.2236204E-005  0.3132893E+04  0.7818608E-02  0.8206768E-01
          1   -1    0    0  501    0  0.00000000000E+00  0.00000000000E+00  0.17998998669E+04  0.17998998669E+04  0.00000000000E+00 0. -1.
         -1   -1    0    0    0  501 -0.00000000000E+00 -0.00000000000E+00 -0.13632725590E+04  0.13632725590E+04  0.00000000000E+00 0.  1.
         23    2    1    2    0    0 -0.35970780247E+03 -0.81946071398E+03  0.15148921311E+04  0.17619013622E+04  0.92155719271E+02 0.  0.
         11    1    3    3    0    0 -0.13223533868E+03 -0.30121475960E+03  0.64600534437E+03  0.72494097770E+03  0.00000000000E+00 0.  1.
        -11    1    3    3    0    0 -0.22747246379E+03 -0.51824595437E+03  0.86888678669E+03  0.10369603845E+04  0.00000000000E+00 0. -1.
         22    1    1    2    0    0  0.35970780247E+03  0.81946071398E+03 -0.10782648232E+04  0.14012710637E+04  0.00000000000E+00 0.  1.
<mgrwt>
<rscale>  0 0.31328927E+04</rscale>
<asrwt>0</asrwt>
<pdfrwt beam="1">  1        1 0.27690767E+00 0.31328927E+04</pdfrwt>
<pdfrwt beam="2">  1       -1 0.20973424E+00 0.31328927E+04</pdfrwt>
<totfact> 0.44265139E-01</totfact>
</mgrwt>
</event>
<event>
 6    1  0.2236204E-005  0.3747028E+04  0.7818608E-02  0.8057619E-01
         -2   -1    0    0    0  501 -0.00000000000E+00  0.00000000000E+00  0.30200319227E+04  0.30200319227E+04  0.00000000000E+00 0.  1.
          2   -1    0    0  501    0  0.00000000000E+00 -0.00000000000E+00 -0.11622574627E+04  0.11622574627E+04  0.00000000000E+00 0. -1.
         23    2    1    2    0    0 -0.13471537721E+04 -0.12164704036E+04  0.41614075377E+03  0.18643309579E+04  0.89068879051E+02 0.  0.
         13    1    3    3    0    0 -0.11442428043E+04 -0.10098791543E+04  0.32118001918E+03  0.15595845941E+04  0.00000000000E+00 0. -1.
        -13    1    3    3    0    0 -0.20291096777E+03 -0.20659124931E+03  0.94960734590E+02  0.30474636380E+03  0.00000000000E+00 0.  1.
         22    1    1    2    0    0  0.13471537721E+04  0.12164704036E+04  0.14416337062E+04  0.23179584275E+04  0.00000000000E+00 0.  1.
<mgrwt>
<rscale>  0 0.37470280E+04</rscale>
<asrwt>0</asrwt>
<pdfrwt beam="1">  1        2 0.17880884E+00 0.37470280E+04</pdfrwt>
<pdfrwt beam="2">  1       -2 0.46462029E+00 0.37470280E+04</pdfrwt>
<totfact> 0.44666363E-02</totfact>
</mgrwt>
</event>
<event>
 6    1  0.2236204E-005  0.4323625E+04  0.7818608E-02  0.7942264E-01
         -2   -1    0    0    0  501 -0.00000000000E+00  0.00000000000E+00  0.14262461723E+04  0.14262461723E+04  0.00000000000E+00 0.  1.
          2   -1    0    0  501    0  0.00000000000E+00 -0.00000000000E+00 -0.32767364405E+04  0.32767364405E+04  0.00000000000E+00 0. -1.
         23    2    1    2    0    0 -0.32052937538E+03 -0.69593425555E+03  0.12720864130E+04  0.14877767565E+04  0.90621557064E+02 0.  0.
         13    1    3    3    0    0 -0.18585106715E+03 -0.42888426044E+03  0.85668378108E+03  0.97590441580E+03  0.00000000000E+00 0. -1.
        -13    1    3    3    0    0 -0.13467830823E+03 -0.26704999511E+03  0.41540263187E+03  0.51187234069E+03  0.00000000000E+00 0.  1.
         22    1    1    2    0    0  0.32052937538E+03  0.69593425555E+03 -0.31225766812E+04  0.32152058563E+04  0.00000000000E+00 0. -1.
<mgrwt>
<rscale>  0 0.43236248E+04</rscale>
<asrwt>0</asrwt>
<pdfrwt beam="1">  1        2 0.50411330E+00 0.43236248E+04</pdfrwt>
<pdfrwt beam="2">  1       -2 0.21942249E+00 0.43236248E+04</pdfrwt>
<totfact> 0.88320385E-02</totfact>
</mgrwt>
</event>
<event>
 6    1  0.2236204E-005  0.2725526E+04  0.7818608E-02  0.8326770E-01
          2   -1    0    0  501    0  0.00000000000E+00  0.00000000000E+00  0.15885499273E+04  0.15885499273E+04  0.00000000000E+00 0. -1.
         -2   -1    0    0    0  501 -0.00000000000E+00 -0.00000000000E+00 -0.11690677814E+04  0.11690677814E+04  0.00000000000E+00 0.  1.
         23    2    1    2    0    0  0.23649927798E+03 -0.12425823427E+04 -0.29896496398E+03  0.13029325068E+04  0.91160740741E+02 0.  0.
         11    1    3    3    0    0  0.17032400232E+03 -0.65453041458E+03 -0.15228934801E+03  0.69326212567E+03  0.00000000000E+00 0. -1.
        -11    1    3    3    0    0  0.66175275664E+02 -0.58805192812E+03 -0.14667561596E+03  0.60967038110E+03  0.00000000000E+00 0.  1.
         22    1    1    2    0    0 -0.23649927798E+03  0.12425823427E+04  0.71844710986E+03  0.14546852019E+04  0.00000000000E+00 0.  1.
<mgrwt>
<rscale>  0 0.27255257E+04</rscale>
<asrwt>0</asrwt>
<pdfrwt beam="1">  1        2 0.24439230E+00 0.27255257E+04</pdfrwt>
<pdfrwt beam="2">  1       -2 0.17985658E+00 0.27255257E+04</pdfrwt>
<totfact> 0.18010554E+00</totfact>
</mgrwt>
</event>
<event>
 6    1  0.2236204E-005  0.3274367E+04  0.7818608E-02  0.8169449E-01
          2   -1    0    0  501    0  0.00000000000E+00  0.00000000000E+00  0.24228345791E+04  0.24228345791E+04  0.00000000000E+00 0.  1.
         -2   -1    0    0    0  501 -0.00000000000E+00 -0.00000000000E+00 -0.11062947440E+04  0.11062947440E+04  0.00000000000E+00 0. -1.
         23    2    1    2    0    0  0.14413064529E+04  0.60009408727E+03  0.13257735729E+03  0.15697303455E+04  0.94865152364E+02 0.  0.
         11    1    3    3    0    0  0.90848538501E+03  0.32848397750E+03  0.78135502139E+02  0.96920202999E+03  0.00000000000E+00 0.  1.
        -11    1    3    3    0    0  0.53282106788E+03  0.27161010977E+03  0.54441855150E+02  0.60052831549E+03  0.00000000000E+00 0. -1.
         22    1    1    2    0    0 -0.14413064529E+04 -0.60009408727E+03  0.11839624779E+04  0.19593989777E+04  0.00000000000E+00 0.  1.
<mgrwt>
<rscale>  0 0.32743666E+04</rscale>
<asrwt>0</asrwt>
<pdfrwt beam="1">  1        2 0.37274378E+00 0.32743666E+04</pdfrwt>
<pdfrwt beam="2">  1       -2 0.17019919E+00 0.32743666E+04</pdfrwt>
<totfact> 0.68574478E-01</totfact>
</mgrwt>
</event>
<event>
 6    1  0.2236204E-005  0.3083563E+04  0.7818608E-02  0.8220263E-01
          1   -1    0    0  501    0  0.00000000000E+00  0.00000000000E+00  0.21745411285E+04  0.21745411285E+04  0.00000000000E+00 0. -1.
         -1   -1    0    0    0  501 -0.00000000000E+00 -0.00000000000E+00 -0.10931459416E+04  0.10931459416E+04  0.00000000000E+00 0.  1.
         23    2    1    2    0    0 -0.10568014540E+04 -0.10288253492E+04  0.10122522548E+04  0.17911737253E+04  0.91311415833E+02 0.  0.
         11    1    3    3    0    0 -0.66406905406E+03 -0.61202030609E+03  0.57427323993E+03  0.10702085394E+04  0.00000000000E+00 0. -1.
        -11    1    3    3    0    0 -0.39273239998E+03 -0.41680504307E+03  0.43797901486E+03  0.72096518597E+03  0.00000000000E+00 0.  1.
         22    1    1    2    0    0  0.10568014540E+04  0.10288253492E+04  0.69142932144E+02  0.14765133448E+04  0.00000000000E+00 0.  1.
<mgrwt>
<rscale>  0 0.30835634E+04</rscale>
<asrwt>0</asrwt>
<pdfrwt beam="1">  1        1 0.33454479E+00 0.30835634E+04</pdfrwt>
<pdfrwt beam="2">  1       -1 0.16817630E+00 0.30835634E+04</pdfrwt>
<totfact> 0.48623874E-01</totfact>
</mgrwt>
</event>
<event>
 6    1  0.2236204E-005  0.2549216E+04  0.7818608E-02  0.8385659E-01
         -2   -1    0    0    0  501 -0.00000000000E+00  0.00000000000E+00  0.93233818483E+03  0.93233818483E+03  0.00000000000E+00 0.  1.
          2   -1    0    0  501    0  0.00000000000E+00 -0.00000000000E+00 -0.17425288402E+04  0.17425288402E+04  0.00000000000E+00 0. -1.
         23    2    1    2    0    0  0.27461372223E+03 -0.94118813795E+03 -0.12575980336E+04  0.15971745042E+04  0.90364680186E+02 0.  0.
         11    1    3    3    0    0  0.86579339650E+02 -0.34546006447E+03 -0.52488751484E+03  0.63430713493E+03  0.00000000000E+00 0.  1.
        -11    1    3    3    0    0  0.18803438258E+03 -0.59572807348E+03 -0.73271051873E+03  0.96286736928E+03  0.00000000000E+00 0. -1.
         22    1    1    2    0    0 -0.27461372223E+03  0.94118813795E+03  0.44740737817E+03  0.10776925208E+04  0.00000000000E+00 0.  1.
<mgrwt>
<rscale>  0 0.25492165E+04</rscale>
<asrwt>0</asrwt>
<pdfrwt beam="1">  1        2 0.26808136E+00 0.25492165E+04</pdfrwt>
<pdfrwt beam="2">  1       -2 0.14343664E+00 0.25492165E+04</pdfrwt>
<totfact> 0.27815163E+00</totfact>
</mgrwt>
</event>
<event>
 6    1  0.2236204E-005  0.2258581E+04  0.7818608E-02  0.8494433E-01
          2   -1    0    0  501    0  0.00000000000E+00  0.00000000000E+00  0.42916295282E+04  0.42916295282E+04  0.00000000000E+00 0. -1.
         -2   -1    0    0    0  501 -0.00000000000E+00 -0.00000000000E+00 -0.29715926517E+03  0.29715926517E+03  0.00000000000E+00 0.  1.
         23    2    1    2    0    0 -0.11275765787E+04 -0.16113281450E+02  0.19539075486E+04  0.22573547347E+04  0.78785221051E+02 0.  0.
         13    1    3    3    0    0 -0.46130038422E+03 -0.92648397033E+01  0.72311251066E+03  0.85777362096E+03  0.00000000000E+00 0.  1.
        -13    1    3    3    0    0 -0.66627619445E+03 -0.68484417463E+01  0.12307950379E+04  0.13995811137E+04  0.00000000000E+00 0. -1.
         22    1    1    2    0    0  0.11275765787E+04  0.16113281450E+02  0.20405627144E+04  0.23314340587E+04  0.00000000000E+00 0. -1.
<mgrwt>
<rscale>  0 0.22585814E+04</rscale>
<asrwt>0</asrwt>
<pdfrwt beam="1">  1        2 0.66025065E+00 0.22585814E+04</pdfrwt>
<pdfrwt beam="2">  1       -2 0.45716813E-01 0.22585814E+04</pdfrwt>
<totfact> 0.80342574E-01</totfact>
</mgrwt>
</event>
<event>
 6    1  0.3037053E-005  0.2567125E+04  0.7818608E-02  0.8379454E-01
         -1   -1    0    0    0  501 -0.00000000000E+00  0.00000000000E+00  0.10504283040E+04  0.10504283040E+04  0.00000000000E+00 0.  1.
          1   -1    0    0  501    0  0.00000000000E+00 -0.00000000000E+00 -0.15684393990E+04  0.15684393990E+04  0.00000000000E+00 0. -1.
         23    2    1    2    0    0 -0.10324219492E+04  0.62712210865E+03  0.17841813060E+03  0.12245252463E+04  0.91933829703E+02 0.  0.
         11    1    3    3    0    0 -0.50005957331E+03  0.27319241140E+03  0.12224579330E+03  0.58278444084E+03  0.00000000000E+00 0. -1.
        -11    1    3    3    0    0 -0.53236237592E+03  0.35392969724E+03  0.56172337297E+02  0.64174080544E+03  0.00000000000E+00 0.  1.
         22    1    1    2    0    0  0.10324219492E+04 -0.62712210865E+03 -0.69642922563E+03  0.13943424568E+04  0.00000000000E+00 0. -1.
<mgrwt>
<rscale>  0 0.25671253E+04</rscale>
<asrwt>0</asrwt>
<pdfrwt beam="1">  1        1 0.24129837E+00 0.25671253E+04</pdfrwt>
<pdfrwt beam="2">  1       -1 0.16160435E+00 0.25671253E+04</pdfrwt>
<totfact> 0.14725487E+00</totfact>
</mgrwt>
</event>
<event>
 6    1  0.2236204E-005  0.1259454E+04  0.7818608E-02  0.9062351E-01
         -2   -1    0    0    0  501 -0.00000000000E+00  0.00000000000E+00  0.15527589969E+03  0.15527589969E+03  0.00000000000E+00 0.  1.
          2   -1    0    0  501    0  0.00000000000E+00 -0.00000000000E+00 -0.25538792410E+04  0.25538792410E+04  0.00000000000E+00 0. -1.
         23    2    1    2    0    0  0.24866264589E+03  0.36437189228E+03 -0.21621395225E+04  0.22086402808E+04  0.92976276226E+02 0.  0.
         11    1    3    3    0    0  0.14237247022E+03  0.16958256191E+03 -0.87932434298E+03  0.90677420880E+03  0.00000000000E+00 0. -1.
        -11    1    3    3    0    0  0.10629017567E+03  0.19478933037E+03 -0.12828151795E+04  0.13018660720E+04  0.00000000000E+00 0.  1.
         22    1    1    2    0    0 -0.24866264589E+03 -0.36437189228E+03 -0.23646381878E+03  0.50051485986E+03  0.00000000000E+00 0.  1.
<mgrwt>
<rscale>  0 0.12594537E+04</rscale>
<asrwt>0</asrwt>
<pdfrwt beam="1">  1        2 0.39290448E+00 0.12594537E+04</pdfrwt>
<pdfrwt beam="2">  1       -2 0.23888601E-01 0.12594537E+04</pdfrwt>
<totfact> 0.49880013E+01</totfact>
</mgrwt>
</event>
<event>
 6    1  0.4118005E-005  0.4604064E+04  0.7818608E-02  0.7892667E-01
         -2   -1    0    0    0  501 -0.00000000000E+00  0.00000000000E+00  0.17146527410E+04  0.17146527410E+04  0.00000000000E+00 0.  1.
          2   -1    0    0  501    0  0.00000000000E+00 -0.00000000000E+00 -0.30906266573E+04  0.30906266573E+04  0.00000000000E+00 0. -1.
         23    2    1    2    0    0 -0.15131437498E+04 -0.16224453235E+04 -0.50432130012E+02  0.22209044521E+04  0.89108644735E+02 0.  0.
         11    1    3    3    0    0 -0.55254835480E+03 -0.53926036181E+03  0.44705584715E+01  0.77209546567E+03  0.00000000000E+00 0.  1.
        -11    1    3    3    0    0 -0.96059539496E+03 -0.10831849617E+04 -0.54902688484E+02  0.14488089865E+04  0.00000000000E+00 0. -1.
         22    1    1    2    0    0  0.15131437498E+04  0.16224453235E+04 -0.13255417862E+04  0.25843749461E+04  0.00000000000E+00 0. -1.
<mgrwt>
<rscale>  0 0.46040641E+04</rscale>
<asrwt>0</asrwt>
<pdfrwt beam="1">  1        2 0.47548102E+00 0.46040641E+04</pdfrwt>
<pdfrwt beam="2">  1       -2 0.26379273E+00 0.46040641E+04</pdfrwt>
<totfact> 0.60591471E-02</totfact>
</mgrwt>
</event>
<event>
 6    1  0.2236204E-005  0.2241486E+04  0.7818608E-02  0.8501357E-01
         -2   -1    0    0    0  501 -0.00000000000E+00  0.00000000000E+00  0.54224404339E+03  0.54224404339E+03  0.00000000000E+00 0.  1.
          2   -1    0    0  501    0  0.00000000000E+00 -0.00000000000E+00 -0.23164188888E+04  0.23164188888E+04  0.00000000000E+00 0. -1.
         23    2    1    2    0    0 -0.59647858245E+03 -0.30119749805E+03  0.25602423586E+03  0.72132464785E+03  0.90852661467E+02 0.  0.
         11    1    3    3    0    0 -0.10617332380E+02 -0.23877709439E+02  0.11563222312E+02  0.28575879079E+02  0.00000000000E+00 0. -1.
        -11    1    3    3    0    0 -0.58586125007E+03 -0.27731978861E+03  0.24446101355E+03  0.69274876877E+03  0.00000000000E+00 0.  1.
         22    1    1    2    0    0  0.59647858245E+03  0.30119749805E+03 -0.20301990812E+04  0.21373382843E+04  0.00000000000E+00 0. -1.
<mgrwt>
<rscale>  0 0.22414855E+04</rscale>
<asrwt>0</asrwt>
<pdfrwt beam="1">  1        2 0.35637215E+00 0.22414855E+04</pdfrwt>
<pdfrwt beam="2">  1       -2 0.83422158E-01 0.22414855E+04</pdfrwt>
<totfact> 0.50819250E+00</totfact>
</mgrwt>
</event>
<event>
 6    1  0.2236204E-005  0.3697578E+04  0.7818608E-02  0.8068499E-01
          2   -1    0    0  501    0  0.00000000000E+00  0.00000000000E+00  0.12043609555E+04  0.12043609555E+04  0.00000000000E+00 0.  1.
         -2   -1    0    0    0  501 -0.00000000000E+00 -0.00000000000E+00 -0.28380361058E+04  0.28380361058E+04  0.00000000000E+00 0. -1.
         23    2    1    2    0    0  0.16017990281E+04 -0.54763064751E+03 -0.16245453433E+04  0.23495465640E+04  0.12474787138E+03 0.  0.
         13    1    3    3    0    0  0.78831592504E+03 -0.26169656272E+03 -0.88287884664E+03  0.12121889896E+04  0.00000000000E+00 0. -1.
        -13    1    3    3    0    0  0.81348310309E+03 -0.28593408478E+03 -0.74166649670E+03  0.11373575745E+04  0.00000000000E+00 0.  1.
         22    1    1    2    0    0 -0.16017990281E+04  0.54763064751E+03 -0.91298069602E+01  0.16928504972E+04  0.00000000000E+00 0. -1.
<mgrwt>
<rscale>  0 0.36975775E+04</rscale>
<asrwt>0</asrwt>
<pdfrwt beam="1">  1        2 0.18528630E+00 0.36975775E+04</pdfrwt>
<pdfrwt beam="2">  1       -2 0.43662093E+00 0.36975775E+04</pdfrwt>
<totfact> 0.64740963E-02</totfact>
</mgrwt>
</event>
<event>
 6    1  0.2236204E-005  0.1422866E+04  0.7818608E-02  0.8937432E-01
          2   -1    0    0  501    0  0.00000000000E+00  0.00000000000E+00  0.63874491605E+03  0.63874491605E+03  0.00000000000E+00 0.  1.
         -2   -1    0    0    0  501 -0.00000000000E+00 -0.00000000000E+00 -0.79239248242E+03  0.79239248242E+03  0.00000000000E+00 0. -1.
         23    2    1    2    0    0  0.73941906074E+02  0.58247852586E+03 -0.47605060001E+03  0.76129237560E+03  0.90516676934E+02 0.  0.
         13    1    3    3    0    0  0.21882949424E+02  0.14727844147E+03 -0.17390321196E+03  0.22893695623E+03  0.00000000000E+00 0. -1.
        -13    1    3    3    0    0  0.52058956650E+02  0.43520008439E+03 -0.30214738805E+03  0.53235541937E+03  0.00000000000E+00 0.  1.
         22    1    1    2    0    0 -0.73941906074E+02 -0.58247852586E+03  0.32240303363E+03  0.66984502287E+03  0.00000000000E+00 0.  1.
<mgrwt>
<rscale>  0 0.14228657E+04</rscale>
<asrwt>0</asrwt>
<pdfrwt beam="1">  1        2 0.98268449E-01 0.14228657E+04</pdfrwt>
<pdfrwt beam="2">  1       -2 0.12190654E+00 0.14228657E+04</pdfrwt>
<totfact> 0.22787610E+01</totfact>
</mgrwt>
</event>
<event>
 6    1  0.2236204E-005  0.3165552E+04  0.7818608E-02  0.8197975E-01
          2   -1    0    0  501    0  0.00000000000E+00  0.00000000000E+00  0.28377462271E+04  0.28377462271E+04  0.00000000000E+00 0. -1.
         -2   -1    0    0    0  501 -0.00000000000E+00 -0.00000000000E+00 -0.88280592197E+03  0.88280592197E+03  0.00000000000E+00 0.  1.
         23    2    1    2    0    0  0.10621744833E+04 -0.11631482116E+04  0.82330254768E+03  0.17810335466E+04  0.11456445363E+03 0.  0.
         11    1    3    3    0    0  0.87475767287E+03 -0.10143460174E+04  0.68105474737E+03  0.15026424718E+04  0.00000000000E+00 0. -1.
        -11    1    3    3    0    0  0.18741681040E+03 -0.14880219429E+03  0.14224780031E+03  0.27839107482E+03  0.00000000000E+00 0.  1.
         22    1    1    2    0    0 -0.10621744833E+04  0.11631482116E+04  0.11316377574E+04  0.19395186024E+04  0.00000000000E+00 0.  1.
<mgrwt>
<rscale>  0 0.31655516E+04</rscale>
<asrwt>0</asrwt>
<pdfrwt beam="1">  1        2 0.43657634E+00 0.31655516E+04</pdfrwt>
<pdfrwt beam="2">  1       -2 0.13581630E+00 0.31655516E+04</pdfrwt>
<totfact> 0.71919353E-01</totfact>
</mgrwt>
</event>
<event>
 6    1  0.2236204E-005  0.3720570E+04  0.7818608E-02  0.8063418E-01
          1   -1    0    0  501    0  0.00000000000E+00  0.00000000000E+00  0.19954859046E+04  0.19954859046E+04  0.00000000000E+00 0. -1.
         -1   -1    0    0    0  501 -0.00000000000E+00 -0.00000000000E+00 -0.17342447314E+04  0.17342447314E+04  0.00000000000E+00 0.  1.
         23    2    1    2    0    0 -0.14121141392E+04 -0.66791328845E+03  0.11413231017E+04  0.19367669709E+04  0.90958090156E+02 0.  0.
         13    1    3    3    0    0 -0.11429353414E+04 -0.50315051602E+03  0.89408561192E+03  0.15358550446E+04  0.00000000000E+00 0.  1.
        -13    1    3    3    0    0 -0.26917879779E+03 -0.16476277243E+03  0.24723748976E+03  0.40091192636E+03  0.00000000000E+00 0. -1.
         22    1    1    2    0    0  0.14121141392E+04  0.66791328845E+03 -0.88008192848E+03  0.17929636650E+04  0.00000000000E+00 0. -1.
<mgrwt>
<rscale>  0 0.37205703E+04</rscale>
<asrwt>0</asrwt>
<pdfrwt beam="1">  1        1 0.30699783E+00 0.37205703E+04</pdfrwt>
<pdfrwt beam="2">  1       -1 0.26680688E+00 0.37205703E+04</pdfrwt>
<totfact> 0.13027623E-01</totfact>
</mgrwt>
</event>
<event>
 6    1  0.2236204E-005  0.4078134E+04  0.7818608E-02  0.7988967E-01
          2   -1    0    0  501    0  0.00000000000E+00  0.00000000000E+00  0.15538377923E+04  0.15538377923E+04  0.00000000000E+00 0. -1.
         -2   -1    0    0    0  501 -0.00000000000E+00 -0.00000000000E+00 -0.26758226243E+04  0.26758226243E+04  0.00000000000E+00 0.  1.
         23    2    1    2    0    0 -0.13264038414E+04  0.11259672304E+04  0.53956633819E+03  0.18238545963E+04  0.90357072850E+02 0.  0.
         11    1    3    3    0    0 -0.89371892622E+03  0.70316720170E+03  0.34408802786E+03  0.11880968831E+04  0.00000000000E+00 0. -1.
        -11    1    3    3    0    0 -0.43268491518E+03  0.42280002868E+03  0.19547831033E+03  0.63575771319E+03  0.00000000000E+00 0.  1.
         22    1    1    2    0    0  0.13264038414E+04 -0.11259672304E+04 -0.16615511702E+04  0.24058058204E+04  0.00000000000E+00 0.  1.
<mgrwt>
<rscale>  0 0.40781340E+04</rscale>
<asrwt>0</asrwt>
<pdfrwt beam="1">  1        2 0.23905197E+00 0.40781340E+04</pdfrwt>
<pdfrwt beam="2">  1       -2 0.41166502E+00 0.40781340E+04</pdfrwt>
<totfact> 0.57724872E-02</totfact>
</mgrwt>
</event>
<event>
 6    1  0.2236204E-005  0.1876260E+04  0.7818608E-02  0.8666764E-01
          2   -1    0    0  501    0  0.00000000000E+00  0.00000000000E+00  0.51549199601E+03  0.51549199601E+03  0.00000000000E+00 0. -1.
         -2   -1    0    0    0  501 -0.00000000000E+00 -0.00000000000E+00 -0.17072780419E+04  0.17072780419E+04  0.00000000000E+00 0.  1.
         23    2    1    2    0    0  0.46728290721E+03  0.38100306351E+03  0.25055840510E+03  0.65948050457E+03  0.92835186003E+02 0.  0.
         11    1    3    3    0    0  0.18211314353E+03  0.10571036171E+03  0.11888773888E+03  0.24181433390E+03  0.00000000000E+00 0.  1.
        -11    1    3    3    0    0  0.28516976367E+03  0.27529270180E+03  0.13167066622E+03  0.41766617067E+03  0.00000000000E+00 0. -1.
         22    1    1    2    0    0 -0.46728290721E+03 -0.38100306351E+03 -0.14423444510E+04  0.15632895333E+04  0.00000000000E+00 0.  1.
<mgrwt>
<rscale>  0 0.18762603E+04</rscale>
<asrwt>0</asrwt>
<pdfrwt beam="1">  1        2 0.79306460E-01 0.18762603E+04</pdfrwt>
<pdfrwt beam="2">  1       -2 0.26265816E+00 0.18762603E+04</pdfrwt>
<totfact> 0.29972046E+00</totfact>
</mgrwt>
</event>
<event>
 6    1  0.2236204E-005  0.4105839E+04  0.7818608E-02  0.7983529E-01
          2   -1    0    0  501    0  0.00000000000E+00  0.00000000000E+00  0.32090922666E+04  0.32090922666E+04  0.00000000000E+00 0. -1.
         -2   -1    0    0    0  501 -0.00000000000E+00 -0.00000000000E+00 -0.13132928987E+04  0.13132928987E+04  0.00000000000E+00 0.  1.
         23    2    1    2    0    0 -0.63702602573E+03 -0.11711787146E+04 -0.76958795504E+03  0.15421584424E+04  0.92332562338E+02 0.  0.
         13    1    3    3    0    0 -0.14690758258E+03 -0.27108940246E+03 -0.13400608579E+03  0.33619775873E+03  0.00000000000E+00 0. -1.
        -13    1    3    3    0    0 -0.49011844315E+03 -0.90008931209E+03 -0.63558186925E+03  0.12059606837E+04  0.00000000000E+00 0.  1.
         22    1    1    2    0    0  0.63702602573E+03  0.11711787146E+04  0.26653873230E+04  0.29802267230E+04  0.00000000000E+00 0. -1.
<mgrwt>
<rscale>  0 0.41058388E+04</rscale>
<asrwt>0</asrwt>
<pdfrwt beam="1">  1        2 0.49370650E+00 0.41058388E+04</pdfrwt>
<pdfrwt beam="2">  1       -2 0.20204506E+00 0.41058388E+04</pdfrwt>
<totfact> 0.12889051E-01</totfact>
</mgrwt>
</event>
<event>
 6    1  0.2236204E-005  0.9246436E+03  0.7818608E-02  0.9395289E-01
          1   -1    0    0  501    0  0.00000000000E+00  0.00000000000E+00  0.12838027405E+03  0.12838027405E+03  0.00000000000E+00 0. -1.
         -1   -1    0    0    0  501 -0.00000000000E+00 -0.00000000000E+00 -0.16649087285E+04  0.16649087285E+04  0.00000000000E+00 0.  1.
         23    2    1    2    0    0 -0.18706029810E+03 -0.41759194689E+03 -0.75244654583E+03  0.88545695383E+03  0.92106587849E+02 0.  0.
         11    1    3    3    0    0 -0.13918683092E+03 -0.38325660501E+03 -0.65152764838E+03  0.76860059575E+03  0.00000000000E+00 0.  1.
        -11    1    3    3    0    0 -0.47873467172E+02 -0.34335341882E+02 -0.10091889745E+03  0.11685635808E+03  0.00000000000E+00 0. -1.
         22    1    1    2    0    0  0.18706029810E+03  0.41759194689E+03 -0.78408190860E+03  0.90783204869E+03  0.00000000000E+00 0. -1.
<mgrwt>
<rscale>  0 0.92464358E+03</rscale>
<asrwt>0</asrwt>
<pdfrwt beam="1">  1        1 0.19750812E-01 0.92464358E+03</pdfrwt>
<pdfrwt beam="2">  1       -1 0.25613980E+00 0.92464358E+03</pdfrwt>
<totfact> 0.17237252E+01</totfact>
</mgrwt>
</event>
<event>
 6    1  0.2236204E-005  0.2126967E+04  0.7818608E-02  0.8549456E-01
          2   -1    0    0  501    0  0.00000000000E+00  0.00000000000E+00  0.41267904849E+04  0.41267904849E+04  0.00000000000E+00 0. -1.
         -2   -1    0    0    0  501 -0.00000000000E+00 -0.00000000000E+00 -0.27406221182E+03  0.27406221182E+03  0.00000000000E+00 0.  1.
         23    2    1    2    0    0 -0.88795605072E+03  0.57557879391E+03  0.17562600789E+04  0.20524626556E+04  0.91632919353E+02 0.  0.
         11    1    3    3    0    0 -0.32136570018E+03  0.21799998465E+03  0.56219943170E+03  0.68327747479E+03  0.00000000000E+00 0. -1.
        -11    1    3    3    0    0 -0.56659035054E+03  0.35757880926E+03  0.11940606472E+04  0.13691851808E+04  0.00000000000E+00 0.  1.
         22    1    1    2    0    0  0.88795605072E+03 -0.57557879391E+03  0.20964681942E+04  0.23483900411E+04  0.00000000000E+00 0.  1.
<mgrwt>
<rscale>  0 0.21269672E+04</rscale>
<asrwt>0</asrwt>
<pdfrwt beam="1">  1        2 0.63489080E+00 0.21269672E+04</pdfrwt>
<pdfrwt beam="2">  1       -2 0.42163420E-01 0.21269672E+04</pdfrwt>
<totfact> 0.13297664E+00</totfact>
</mgrwt>
</event>
<event>
 6    1  0.2236204E-005  0.1923547E+04  0.7818608E-02  0.8643224E-01
          2   -1    0    0  501    0  0.00000000000E+00  0.00000000000E+00  0.55141475852E+03  0.55141475852E+03  0.00000000000E+00 0. -1.
         -2   -1    0    0    0  501 -0.00000000000E+00 -0.00000000000E+00 -0.16775174136E+04  0.16775174136E+04  0.00000000000E+00 0.  1.
         23    2    1    2    0    0  0.11243591527E+03  0.91278284050E+03 -0.24663636328E+03  0.95642468399E+03  0.90024060604E+02 0.  0.
         13    1    3    3    0    0  0.68713091054E+02  0.62705131203E+03 -0.21110422118E+03  0.66519157315E+03  0.00000000000E+00 0. -1.
        -13    1    3    3    0    0  0.43722824218E+02  0.28573152848E+03 -0.35532142106E+02  0.29123311083E+03  0.00000000000E+00 0.  1.
         22    1    1    2    0    0 -0.11243591527E+03 -0.91278284050E+03 -0.87946629180E+03  0.12725074881E+04  0.00000000000E+00 0.  1.
<mgrwt>
<rscale>  0 0.19235466E+04</rscale>
<asrwt>0</asrwt>
<pdfrwt beam="1">  1        2 0.84833041E-01 0.19235466E+04</pdfrwt>
<pdfrwt beam="2">  1       -2 0.25807960E+00 0.19235466E+04</pdfrwt>
<totfact> 0.29411208E+00</totfact>
</mgrwt>
</event>
<event>
 6    1  0.2236204E-005  0.2412416E+04  0.7818608E-02  0.8434870E-01
         -2   -1    0    0    0  501 -0.00000000000E+00  0.00000000000E+00  0.74768356777E+03  0.74768356777E+03  0.00000000000E+00 0.  1.
          2   -1    0    0  501    0  0.00000000000E+00 -0.00000000000E+00 -0.19459265232E+04  0.19459265232E+04  0.00000000000E+00 0. -1.
         23    2    1    2    0    0  0.77009684312E+03 -0.48753927334E+03 -0.14790997503E+04  0.17398678669E+04  0.93061442205E+02 0.  0.
         13    1    3    3    0    0  0.28867388914E+03 -0.13219565669E+03 -0.49087659340E+03  0.58460938742E+03  0.00000000000E+00 0. -1.
        -13    1    3    3    0    0  0.48142295398E+03 -0.35534361665E+03 -0.98822315693E+03  0.11552584795E+04  0.00000000000E+00 0.  1.
         22    1    1    2    0    0 -0.77009684312E+03  0.48753927334E+03  0.28085679486E+03  0.95374222411E+03  0.00000000000E+00 0.  1.
<mgrwt>
<rscale>  0 0.24124156E+04</rscale>
<asrwt>0</asrwt>
<pdfrwt beam="1">  1        2 0.29937331E+00 0.24124156E+04</pdfrwt>
<pdfrwt beam="2">  1       -2 0.11502824E+00 0.24124156E+04</pdfrwt>
<totfact> 0.37904730E+00</totfact>
</mgrwt>
</event>
<event>
 6    1  0.2236204E-005  0.3195221E+04  0.7818608E-02  0.8190081E-01
          2   -1    0    0  501    0  0.00000000000E+00  0.00000000000E+00  0.36407226417E+04  0.36407226417E+04  0.00000000000E+00 0.  1.
         -2   -1    0    0    0  501 -0.00000000000E+00 -0.00000000000E+00 -0.70105825243E+03  0.70105825243E+03  0.00000000000E+00 0. -1.
         23    2    1    2    0    0 -0.15122873971E+04  0.13502735337E+03  0.21430635295E+04  0.26271910052E+04  0.64542456749E+02 0.  0.
         11    1    3    3    0    0 -0.13363952218E+04  0.12003633439E+03  0.18566213390E+04  0.22907212198E+04  0.00000000000E+00 0.  1.
        -11    1    3    3    0    0 -0.17589217525E+03  0.14991018983E+02  0.28644219052E+03  0.33646978538E+03  0.00000000000E+00 0. -1.
         22    1    1    2    0    0  0.15122873971E+04 -0.13502735337E+03  0.79660085969E+03  0.17145898889E+04  0.00000000000E+00 0. -1.
<mgrwt>
<rscale>  0 0.31952206E+04</rscale>
<asrwt>0</asrwt>
<pdfrwt beam="1">  1        2 0.56011116E+00 0.31952206E+04</pdfrwt>
<pdfrwt beam="2">  1       -2 0.10785512E+00 0.31952206E+04</pdfrwt>
<totfact> 0.37395952E-01</totfact>
</mgrwt>
</event>
<event>
 6    1  0.2236204E-005  0.4157024E+04  0.7818608E-02  0.7973598E-01
          2   -1    0    0  501    0  0.00000000000E+00  0.00000000000E+00  0.26195296900E+04  0.26195296900E+04  0.00000000000E+00 0. -1.
         -2   -1    0    0    0  501 -0.00000000000E+00 -0.00000000000E+00 -0.16492318706E+04  0.16492318706E+04  0.00000000000E+00 0.  1.
         23    2    1    2    0    0 -0.76266996823E+03  0.15203904028E+04 -0.73947508420E+03  0.18570037288E+04  0.91580518128E+02 0.  0.
         13    1    3    3    0    0 -0.23064011875E+03  0.49983788248E+03 -0.19715552879E+03  0.58472478627E+03  0.00000000000E+00 0. -1.
        -13    1    3    3    0    0 -0.53202984948E+03  0.10205525203E+04 -0.54231955541E+03  0.12722789426E+04  0.00000000000E+00 0.  1.
         22    1    1    2    0    0  0.76266996823E+03 -0.15203904028E+04  0.17097729035E+04  0.24117578318E+04  0.00000000000E+00 0. -1.
<mgrwt>
<rscale>  0 0.41570239E+04</rscale>
<asrwt>0</asrwt>
<pdfrwt beam="1">  1        2 0.40300457E+00 0.41570239E+04</pdfrwt>
<pdfrwt beam="2">  1       -2 0.25372798E+00 0.41570239E+04</pdfrwt>
<totfact> 0.14072121E-01</totfact>
</mgrwt>
</event>
<event>
 6    1  0.2236204E-005  0.4111421E+04  0.7818608E-02  0.7982439E-01
          2   -1    0    0  501    0  0.00000000000E+00  0.00000000000E+00  0.29520561888E+04  0.29520561888E+04  0.00000000000E+00 0.  1.
         -2   -1    0    0    0  501 -0.00000000000E+00 -0.00000000000E+00 -0.14315263049E+04  0.14315263049E+04  0.00000000000E+00 0. -1.
         23    2    1    2    0    0  0.16154985305E+04 -0.11916774629E+04  0.12280364023E+04  0.23549171407E+04  0.87353629301E+02 0.  0.
         11    1    3    3    0    0  0.37698851295E+03 -0.25973364670E+03  0.24121585190E+03  0.51746206946E+03  0.00000000000E+00 0. -1.
        -11    1    3    3    0    0  0.12385100176E+04 -0.93194381622E+03  0.98682055035E+03  0.18374550712E+04  0.00000000000E+00 0.  1.
         22    1    1    2    0    0 -0.16154985305E+04  0.11916774629E+04  0.29249348156E+03  0.20286653530E+04  0.00000000000E+00 0. -1.
<mgrwt>
<rscale>  0 0.41114212E+04</rscale>
<asrwt>0</asrwt>
<pdfrwt beam="1">  1        2 0.45416249E+00 0.41114212E+04</pdfrwt>
<pdfrwt beam="2">  1       -2 0.22023482E+00 0.41114212E+04</pdfrwt>
<totfact> 0.14358168E-01</totfact>
</mgrwt>
</event>
<event>
 6    1  0.2236204E-005  0.3161652E+04  0.7818608E-02  0.8199019E-01
         -2   -1    0    0    0  501 -0.00000000000E+00  0.00000000000E+00  0.89455780452E+03  0.89455780452E+03  0.00000000000E+00 0. -1.
          2   -1    0    0  501    0  0.00000000000E+00 -0.00000000000E+00 -0.27935718785E+04  0.27935718785E+04  0.00000000000E+00 0.  1.
         23    2    1    2    0    0 -0.13167682280E+04  0.87211045149E+03 -0.98642846701E+03  0.18640497242E+04  0.84764661875E+02 0.  0.
         11    1    3    3    0    0 -0.51346683753E+03  0.29156896848E+03 -0.37621186500E+03  0.70014000314E+03  0.00000000000E+00 0. -1.
        -11    1    3    3    0    0 -0.80330139049E+03  0.58054148301E+03 -0.61021660201E+03  0.11639097211E+04  0.00000000000E+00 0.  1.
         22    1    1    2    0    0  0.13167682280E+04 -0.87211045149E+03 -0.91258560693E+03  0.18240799587E+04  0.00000000000E+00 0.  1.
<mgrwt>
<rscale>  0 0.31616524E+04</rscale>
<asrwt>0</asrwt>
<pdfrwt beam="1">  1        2 0.42978028E+00 0.31616524E+04</pdfrwt>
<pdfrwt beam="2">  1       -2 0.13762428E+00 0.31616524E+04</pdfrwt>
<totfact> 0.73967473E-01</totfact>
</mgrwt>
</event>
<event>
 6    1  0.2236204E-005  0.1504787E+04  0.7818608E-02  0.8881276E-01
          4   -1    0    0  501    0  0.00000000000E+00  0.00000000000E+00  0.51219270049E+03  0.51219270049E+03  0.00000000000E+00 0.  1.
         -4   -1    0    0    0  501 -0.00000000000E+00 -0.00000000000E+00 -0.11052405839E+04  0.11052405839E+04  0.00000000000E+00 0. -1.
         23    2    1    2    0    0  0.30896086169E+03  0.58958261333E+03 -0.66656514776E+03  0.94775480914E+03  0.10423823690E+03 0.  0.
         13    1    3    3    0    0  0.20683661536E+03  0.37528837373E+03 -0.49587667090E+03  0.65537502367E+03  0.00000000000E+00 0.  1.
        -13    1    3    3    0    0  0.10212424633E+03  0.21429423960E+03 -0.17068847686E+03  0.29237978546E+03  0.00000000000E+00 0. -1.
         22    1    1    2    0    0 -0.30896086169E+03 -0.58958261333E+03  0.73517264392E+02  0.66967847521E+03  0.00000000000E+00 0. -1.
<mgrwt>
<rscale>  0 0.15047872E+04</rscale>
<asrwt>0</asrwt>
<pdfrwt beam="1">  1        4 0.78798877E-01 0.15047872E+04</pdfrwt>
<pdfrwt beam="2">  1       -4 0.17003701E+00 0.15047872E+04</pdfrwt>
<totfact> 0.58619995E-01</totfact>
</mgrwt>
</event>
<event>
 6    1  0.2236204E-005  0.2357097E+04  0.7818608E-02  0.8455743E-01
          2   -1    0    0  501    0  0.00000000000E+00  0.00000000000E+00  0.17083530177E+04  0.17083530177E+04  0.00000000000E+00 0.  1.
         -2   -1    0    0    0  501 -0.00000000000E+00 -0.00000000000E+00 -0.81305020933E+03  0.81305020933E+03  0.00000000000E+00 0. -1.
         23    2    1    2    0    0 -0.70405410082E+02 -0.11695148489E+04  0.33082607741E+03  0.12208818380E+04  0.91567817334E+02 0.  0.
         13    1    3    3    0    0 -0.24282047078E+02 -0.87221006355E+03  0.21628439325E+03  0.89895436566E+03  0.00000000000E+00 0. -1.
        -13    1    3    3    0    0 -0.46123363004E+02 -0.29730478536E+03  0.11454168416E+03  0.32192747231E+03  0.00000000000E+00 0.  1.
         22    1    1    2    0    0  0.70405410082E+02  0.11695148489E+04  0.56447673094E+03  0.13005213890E+04  0.00000000000E+00 0.  1.
<mgrwt>
<rscale>  0 0.23570972E+04</rscale>
<asrwt>0</asrwt>
<pdfrwt beam="1">  1        2 0.26282354E+00 0.23570972E+04</pdfrwt>
<pdfrwt beam="2">  1       -2 0.12508465E+00 0.23570972E+04</pdfrwt>
<totfact> 0.41914646E+00</totfact>
</mgrwt>
</event>
<event>
 6    1  0.2236204E-005  0.3099147E+04  0.7818608E-02  0.8215972E-01
         -2   -1    0    0    0  501 -0.00000000000E+00  0.00000000000E+00  0.84425370604E+03  0.84425370604E+03  0.00000000000E+00 0.  1.
          2   -1    0    0  501    0  0.00000000000E+00 -0.00000000000E+00 -0.28441434000E+04  0.28441434000E+04  0.00000000000E+00 0. -1.
         23    2    1    2    0    0 -0.59812890594E+03  0.68519631777E+03 -0.24918115267E+04  0.26543568402E+04  0.96090416519E+02 0.  0.
         11    1    3    3    0    0 -0.85524683468E+02  0.15263541694E+03 -0.51062469450E+03  0.53976811745E+03  0.00000000000E+00 0. -1.
        -11    1    3    3    0    0 -0.51260422247E+03  0.53256090083E+03 -0.19811868322E+04  0.21145887227E+04  0.00000000000E+00 0.  1.
         22    1    1    2    0    0  0.59812890594E+03 -0.68519631777E+03  0.49192183274E+03  0.10340402659E+04  0.00000000000E+00 0.  1.
<mgrwt>
<rscale>  0 0.30991474E+04</rscale>
<asrwt>0</asrwt>
<pdfrwt beam="1">  1        2 0.43756052E+00 0.30991474E+04</pdfrwt>
<pdfrwt beam="2">  1       -2 0.12988519E+00 0.30991474E+04</pdfrwt>
<totfact> 0.80300970E-01</totfact>
</mgrwt>
</event>
<event>
 6    1  0.2236204E-005  0.2103206E+04  0.7818608E-02  0.8559833E-01
         -1   -1    0    0    0  501 -0.00000000000E+00  0.00000000000E+00  0.33438187495E+03  0.33438187495E+03  0.00000000000E+00 0.  1.
          1   -1    0    0  501    0  0.00000000000E+00 -0.00000000000E+00 -0.33072020911E+04  0.33072020911E+04  0.00000000000E+00 0. -1.
         23    2    1    2    0    0  0.58711691601E+02  0.82501767587E+03 -0.37001490712E+03  0.91052250483E+03  0.89660315002E+02 0.  0.
         11    1    3    3    0    0  0.67506586836E+02  0.68378854180E+03 -0.27511425631E+03  0.74014306940E+03  0.00000000000E+00 0.  1.
        -11    1    3    3    0    0 -0.87948952351E+01  0.14122913407E+03 -0.94900650810E+02  0.17037943543E+03  0.00000000000E+00 0. -1.
         22    1    1    2    0    0 -0.58711691601E+02 -0.82501767587E+03 -0.26028053090E+04  0.27310614612E+04  0.00000000000E+00 0.  1.
<mgrwt>
<rscale>  0 0.21032056E+04</rscale>
<asrwt>0</asrwt>
<pdfrwt beam="1">  1        1 0.50880033E+00 0.21032056E+04</pdfrwt>
<pdfrwt beam="2">  1       -1 0.51443365E-01 0.21032056E+04</pdfrwt>
<totfact> 0.12356130E+00</totfact>
</mgrwt>
</event>
<event>
 6    1  0.2236204E-005  0.1812279E+04  0.7818608E-02  0.8699797E-01
          1   -1    0    0  501    0  0.00000000000E+00  0.00000000000E+00  0.81904960751E+03  0.81904960751E+03  0.00000000000E+00 0. -1.
         -1   -1    0    0    0  501 -0.00000000000E+00 -0.00000000000E+00 -0.10024897031E+04  0.10024897031E+04  0.00000000000E+00 0.  1.
         23    2    1    2    0    0 -0.76556853203E+02  0.78119116487E+03  0.35841721858E+03  0.86774167131E+03  0.91608502430E+02 0.  0.
         13    1    3    3    0    0 -0.47434920234E+01  0.28043324880E+03  0.16964368371E+03  0.32778695394E+03  0.00000000000E+00 0. -1.
        -13    1    3    3    0    0 -0.71813361179E+02  0.50075791606E+03  0.18877353487E+03  0.53995471737E+03  0.00000000000E+00 0.  1.
         22    1    1    2    0    0  0.76556853203E+02 -0.78119116487E+03 -0.54185731419E+03  0.95379763932E+03  0.00000000000E+00 0.  1.
<mgrwt>
<rscale>  0 0.18122790E+04</rscale>
<asrwt>0</asrwt>
<pdfrwt beam="1">  1        1 0.12600763E+00 0.18122790E+04</pdfrwt>
<pdfrwt beam="2">  1       -1 0.15422918E+00 0.18122790E+04</pdfrwt>
<totfact> 0.64908660E+00</totfact>
</mgrwt>
</event>
<event>
 6    1  0.2236204E-005  0.2202170E+04  0.7818608E-02  0.8517525E-01
         -1   -1    0    0    0  501 -0.00000000000E+00  0.00000000000E+00  0.62793144605E+03  0.62793144605E+03  0.00000000000E+00 0.  1.
          1   -1    0    0  501    0  0.00000000000E+00 -0.00000000000E+00 -0.19307652490E+04  0.19307652490E+04  0.00000000000E+00 0. -1.
         23    2    1    2    0    0 -0.81488806618E+03 -0.38328456754E+03 -0.13849602986E+04  0.16544321423E+04  0.89894742505E+02 0.  0.
         13    1    3    3    0    0 -0.51052455713E+03 -0.21689801920E+03 -0.78075916029E+03  0.95773949513E+03  0.00000000000E+00 0. -1.
        -13    1    3    3    0    0 -0.30436350906E+03 -0.16638654834E+03 -0.60420113827E+03  0.69669264716E+03  0.00000000000E+00 0.  1.
         22    1    1    2    0    0  0.81488806618E+03  0.38328456754E+03  0.82126495603E+02  0.90426455277E+03  0.00000000000E+00 0.  1.
<mgrwt>
<rscale>  0 0.22021700E+04</rscale>
<asrwt>0</asrwt>
<pdfrwt beam="1">  1        1 0.29704080E+00 0.22021700E+04</pdfrwt>
<pdfrwt beam="2">  1       -1 0.96604841E-01 0.22021700E+04</pdfrwt>
<totfact> 0.31203265E+00</totfact>
</mgrwt>
</event>
<event>
 6    1  0.2236204E-005  0.1476290E+04  0.7818608E-02  0.8900374E-01
         -2   -1    0    0    0  501 -0.00000000000E+00  0.00000000000E+00  0.24220522590E+03  0.24220522590E+03  0.00000000000E+00 0.  1.
          2   -1    0    0  501    0  0.00000000000E+00 -0.00000000000E+00 -0.22495725962E+04  0.22495725962E+04  0.00000000000E+00 0. -1.
         23    2    1    2    0    0  0.10795857062E+03 -0.70116190996E+03 -0.67763439581E+03  0.98463719813E+03  0.83898513765E+02 0.  0.
         13    1    3    3    0    0  0.13113093456E+02 -0.27624768440E+03 -0.22412342269E+03  0.35597197215E+03  0.00000000000E+00 0.  1.
        -13    1    3    3    0    0  0.94845477167E+02 -0.42491422556E+03 -0.45351097312E+03  0.62866522598E+03  0.00000000000E+00 0. -1.
         22    1    1    2    0    0 -0.10795857062E+03  0.70116190996E+03 -0.13297329745E+04  0.15071406240E+04  0.00000000000E+00 0. -1.
<mgrwt>
<rscale>  0 0.14762903E+04</rscale>
<asrwt>0</asrwt>
<pdfrwt beam="1">  1        2 0.34608810E+00 0.14762903E+04</pdfrwt>
<pdfrwt beam="2">  1       -2 0.37262342E-01 0.14762903E+04</pdfrwt>
<totfact> 0.31867396E+01</totfact>
</mgrwt>
</event>
<event>
 6    1  0.2236204E-005  0.3411029E+04  0.7818608E-02  0.8135205E-01
          1   -1    0    0  501    0  0.00000000000E+00  0.00000000000E+00  0.36914185101E+04  0.36914185101E+04  0.00000000000E+00 0. -1.
         -1   -1    0    0    0  501 -0.00000000000E+00 -0.00000000000E+00 -0.78798404692E+03  0.78798404692E+03  0.00000000000E+00 0.  1.
         23    2    1    2    0    0  0.69920293972E+03 -0.14688660775E+04  0.78655771732E+03  0.18096423690E+04  0.98387786100E+02 0.  0.
         13    1    3    3    0    0  0.53025094841E+03 -0.10093161640E+04  0.54654581170E+03  0.12643565603E+04  0.00000000000E+00 0.  1.
        -13    1    3    3    0    0  0.16895199131E+03 -0.45954991349E+03  0.24001190562E+03  0.54528580872E+03  0.00000000000E+00 0. -1.
         22    1    1    2    0    0 -0.69920293972E+03  0.14688660775E+04  0.21168767459E+04  0.26697601881E+04  0.00000000000E+00 0.  1.
<mgrwt>
<rscale>  0 0.34110285E+04</rscale>
<asrwt>0</asrwt>
<pdfrwt beam="1">  1        1 0.56791053E+00 0.34110285E+04</pdfrwt>
<pdfrwt beam="2">  1       -1 0.12122832E+00 0.34110285E+04</pdfrwt>
<totfact> 0.86865803E-02</totfact>
</mgrwt>
</event>
<event>
 6    1  0.2236204E-005  0.5161489E+04  0.7818608E-02  0.7804068E-01
          2   -1    0    0  501    0  0.00000000000E+00  0.00000000000E+00  0.34772959415E+04  0.34772959415E+04  0.00000000000E+00 0.  1.
         -2   -1    0    0    0  501 -0.00000000000E+00 -0.00000000000E+00 -0.19153509513E+04  0.19153509513E+04  0.00000000000E+00 0. -1.
         23    2    1    2    0    0  0.82819290127E+03 -0.13469074765E+04  0.29111574687E+04  0.33140806696E+04  0.90717390938E+02 0.  0.
         11    1    3    3    0    0  0.36632087917E+03 -0.58912383090E+03  0.11839071702E+04  0.13721858702E+04  0.00000000000E+00 0.  1.
        -11    1    3    3    0    0  0.46187202209E+03 -0.75778364562E+03  0.17272502985E+04  0.19418947994E+04  0.00000000000E+00 0. -1.
         22    1    1    2    0    0 -0.82819290127E+03  0.13469074765E+04 -0.13492124785E+04  0.20785662232E+04  0.00000000000E+00 0. -1.
<mgrwt>
<rscale>  0 0.51614890E+04</rscale>
<asrwt>0</asrwt>
<pdfrwt beam="1">  1        2 0.53496861E+00 0.51614890E+04</pdfrwt>
<pdfrwt beam="2">  1       -2 0.29466938E+00 0.51614890E+04</pdfrwt>
<totfact> 0.20726111E-02</totfact>
</mgrwt>
</event>
<event>
 6    1  0.2236204E-005  0.3075229E+04  0.7818608E-02  0.8222569E-01
          2   -1    0    0  501    0  0.00000000000E+00  0.00000000000E+00  0.20459884994E+04  0.20459884994E+04  0.00000000000E+00 0. -1.
         -2   -1    0    0    0  501 -0.00000000000E+00 -0.00000000000E+00 -0.11555582297E+04  0.11555582297E+04  0.00000000000E+00 0.  1.
         23    2    1    2    0    0 -0.14110465886E+04 -0.53453933083E+01  0.10780839225E+04  0.17780668586E+04  0.90419917724E+02 0.  0.
         11    1    3    3    0    0 -0.70232112627E+02  0.19058091955E+02  0.61164240425E+02  0.95062215521E+02  0.00000000000E+00 0.  1.
        -11    1    3    3    0    0 -0.13408144760E+04 -0.24403485263E+02  0.10169196820E+04  0.16830046431E+04  0.00000000000E+00 0. -1.
         22    1    1    2    0    0  0.14110465886E+04  0.53453933083E+01 -0.18765365275E+03  0.14234798705E+04  0.00000000000E+00 0.  1.
<mgrwt>
<rscale>  0 0.30752293E+04</rscale>
<asrwt>0</asrwt>
<pdfrwt beam="1">  1        2 0.31476746E+00 0.30752293E+04</pdfrwt>
<pdfrwt beam="2">  1       -2 0.17777819E+00 0.30752293E+04</pdfrwt>
<totfact> 0.10068052E+00</totfact>
</mgrwt>
</event>
<event>
 6    1  0.2236204E-005  0.9941323E+03  0.7818608E-02  0.9315004E-01
         -2   -1    0    0    0  501 -0.00000000000E+00  0.00000000000E+00  0.20914418507E+03  0.20914418507E+03  0.00000000000E+00 0.  1.
          2   -1    0    0  501    0  0.00000000000E+00 -0.00000000000E+00 -0.11813608869E+04  0.11813608869E+04  0.00000000000E+00 0. -1.
         23    2    1    2    0    0 -0.19858333550E+03 -0.59557870277E+02 -0.11159926553E+04  0.11382076169E+04  0.84228803194E+02 0.  0.
         13    1    3    3    0    0 -0.14657009499E+03 -0.46112516093E+02 -0.59754522575E+03  0.61698416001E+03  0.00000000000E+00 0. -1.
        -13    1    3    3    0    0 -0.52013240506E+02 -0.13445354184E+02 -0.51844742957E+03  0.52122345685E+03  0.00000000000E+00 0.  1.
         22    1    1    2    0    0  0.19858333550E+03  0.59557870277E+02  0.14377595350E+03  0.25229745511E+03  0.00000000000E+00 0.  1.
<mgrwt>
<rscale>  0 0.99413231E+03</rscale>
<asrwt>0</asrwt>
<pdfrwt beam="1">  1        2 0.18174783E+00 0.99413231E+03</pdfrwt>
<pdfrwt beam="2">  1       -2 0.32176027E-01 0.99413231E+03</pdfrwt>
<totfact> 0.17424904E+02</totfact>
</mgrwt>
</event>
<event>
 6    1  0.2236204E-005  0.6912905E+03  0.7818608E-02  0.9732244E-01
          2   -1    0    0  501    0  0.00000000000E+00  0.00000000000E+00  0.62267404835E+03  0.62267404835E+03  0.00000000000E+00 0. -1.
         -2   -1    0    0    0  501 -0.00000000000E+00 -0.00000000000E+00 -0.19186707935E+03  0.19186707935E+03  0.00000000000E+00 0.  1.
         23    2    1    2    0    0 -0.81370331509E+02 -0.30171612001E+02  0.60583710295E+03  0.61917735211E+03  0.93864482323E+02 0.  0.
         11    1    3    3    0    0 -0.92737809006E+01  0.64047452913E+01  0.36421303492E+03  0.36438737435E+03  0.00000000000E+00 0. -1.
        -11    1    3    3    0    0 -0.72096550608E+02 -0.36576357292E+02  0.24162406803E+03  0.25478997777E+03  0.00000000000E+00 0.  1.
         22    1    1    2    0    0  0.81370331509E+02  0.30171612001E+02 -0.17503013395E+03  0.19536377558E+03  0.00000000000E+00 0.  1.
<mgrwt>
<rscale>  0 0.69129054E+03</rscale>
<asrwt>0</asrwt>
<pdfrwt beam="1">  1        2 0.95796006E-01 0.69129054E+03</pdfrwt>
<pdfrwt beam="2">  1       -2 0.29518012E-01 0.69129054E+03</pdfrwt>
<totfact> 0.50399799E+02</totfact>
</mgrwt>
</event>
<event>
 6    1  0.2236204E-005  0.4032167E+04  0.7818608E-02  0.7998089E-01
         -2   -1    0    0    0  501 -0.00000000000E+00  0.00000000000E+00  0.99119120874E+03  0.99119120874E+03  0.00000000000E+00 0.  1.
          2   -1    0    0  501    0  0.00000000000E+00 -0.00000000000E+00 -0.41007145384E+04  0.41007145384E+04  0.00000000000E+00 0. -1.
         23    2    1    2    0    0  0.19238201169E+04 -0.53151231373E+03 -0.12055223013E+04  0.23334987616E+04  0.91341501524E+02 0.  0.
         11    1    3    3    0    0  0.51224279476E+03 -0.17196542999E+03 -0.29372722458E+03  0.61501257902E+03  0.00000000000E+00 0. -1.
        -11    1    3    3    0    0  0.14115773221E+04 -0.35954688374E+03 -0.91179507674E+03  0.17184861826E+04  0.00000000000E+00 0.  1.
         22    1    1    2    0    0 -0.19238201169E+04  0.53151231373E+03 -0.19040010284E+04  0.27584069855E+04  0.00000000000E+00 0. -1.
<mgrwt>
<rscale>  0 0.40321668E+04</rscale>
<asrwt>0</asrwt>
<pdfrwt beam="1">  1        2 0.63087915E+00 0.40321668E+04</pdfrwt>
<pdfrwt beam="2">  1       -2 0.15249096E+00 0.40321668E+04</pdfrwt>
<totfact> 0.63497552E-02</totfact>
</mgrwt>
</event>
<event>
 6    1  0.2236204E-005  0.2799618E+04  0.7818608E-02  0.8303387E-01
          2   -1    0    0  501    0  0.00000000000E+00  0.00000000000E+00  0.16468726468E+04  0.16468726468E+04  0.00000000000E+00 0. -1.
         -2   -1    0    0    0  501 -0.00000000000E+00 -0.00000000000E+00 -0.11898100390E+04  0.11898100390E+04  0.00000000000E+00 0.  1.
         23    2    1    2    0    0  0.24910657949E+03  0.21565153540E+03  0.16057008507E+04  0.16417226506E+04  0.91751658810E+02 0.  0.
         13    1    3    3    0    0  0.12980439332E+03  0.12262342592E+03  0.10809371503E+04  0.10955869697E+04  0.00000000000E+00 0. -1.
        -13    1    3    3    0    0  0.11930218617E+03  0.93028109474E+02  0.52476370031E+03  0.54613568089E+03  0.00000000000E+00 0.  1.
         22    1    1    2    0    0 -0.24910657949E+03 -0.21565153540E+03 -0.11486382429E+04  0.11949600352E+04  0.00000000000E+00 0.  1.
<mgrwt>
<rscale>  0 0.27996183E+04</rscale>
<asrwt>0</asrwt>
<pdfrwt beam="1">  1        2 0.25336502E+00 0.27996183E+04</pdfrwt>
<pdfrwt beam="2">  1       -2 0.18304770E+00 0.27996183E+04</pdfrwt>
<totfact> 0.15787256E+00</totfact>
</mgrwt>
</event>
<event>
 6    1  0.2236204E-005  0.3075483E+04  0.7818608E-02  0.8222499E-01
         -2   -1    0    0    0  501 -0.00000000000E+00  0.00000000000E+00  0.12181320751E+04  0.12181320751E+04  0.00000000000E+00 0.  1.
          2   -1    0    0  501    0  0.00000000000E+00 -0.00000000000E+00 -0.19412094753E+04  0.19412094753E+04  0.00000000000E+00 0. -1.
         23    2    1    2    0    0 -0.93908406174E+03 -0.69688183801E+03 -0.13855272586E+04  0.18153315110E+04  0.90661674935E+02 0.  0.
         11    1    3    3    0    0 -0.63050360449E+03 -0.42081297422E+03 -0.86302126531E+03  0.11486618558E+04  0.00000000000E+00 0. -1.
        -11    1    3    3    0    0 -0.30858045725E+03 -0.27606886379E+03 -0.52250599333E+03  0.66666965523E+03  0.00000000000E+00 0.  1.
         22    1    1    2    0    0  0.93908406174E+03  0.69688183801E+03  0.66244985835E+03  0.13440100394E+04  0.00000000000E+00 0.  1.
<mgrwt>
<rscale>  0 0.30754834E+04</rscale>
<asrwt>0</asrwt>
<pdfrwt beam="1">  1        2 0.29864761E+00 0.30754834E+04</pdfrwt>
<pdfrwt beam="2">  1       -2 0.18740493E+00 0.30754834E+04</pdfrwt>
<totfact> 0.98902629E-01</totfact>
</mgrwt>
</event>
<event>
 6    1  0.2236204E-005  0.5136218E+04  0.7818608E-02  0.7807831E-01
          2   -1    0    0  501    0  0.00000000000E+00  0.00000000000E+00  0.44502342793E+04  0.44502342793E+04  0.00000000000E+00 0. -1.
         -2   -1    0    0    0  501 -0.00000000000E+00 -0.00000000000E+00 -0.14819858066E+04  0.14819858066E+04  0.00000000000E+00 0.  1.
         23    2    1    2    0    0  0.12738921276E+04 -0.13956221629E+04  0.34921081315E+04  0.39713551449E+04  0.79247147357E+02 0.  0.
         13    1    3    3    0    0  0.35264661325E+03 -0.33975196939E+03  0.87357908585E+03  0.10014646543E+04  0.00000000000E+00 0.  1.
        -13    1    3    3    0    0  0.92124551437E+03 -0.10558701935E+04  0.26185290457E+04  0.29698904906E+04  0.00000000000E+00 0. -1.
         22    1    1    2    0    0 -0.12738921276E+04  0.13956221629E+04 -0.52385965889E+03  0.19608649410E+04  0.00000000000E+00 0.  1.
<mgrwt>
<rscale>  0 0.51362181E+04</rscale>
<asrwt>0</asrwt>
<pdfrwt beam="1">  1        2 0.68465142E+00 0.51362181E+04</pdfrwt>
<pdfrwt beam="2">  1       -2 0.22799782E+00 0.51362181E+04</pdfrwt>
<totfact> 0.86354625E-03</totfact>
</mgrwt>
</event>
<event>
 6    1  0.2236204E-005  0.2396216E+04  0.7818608E-02  0.8440921E-01
         -2   -1    0    0    0  501 -0.00000000000E+00  0.00000000000E+00  0.64398636750E+03  0.64398636750E+03  0.00000000000E+00 0.  1.
          2   -1    0    0  501    0  0.00000000000E+00 -0.00000000000E+00 -0.22290273928E+04  0.22290273928E+04  0.00000000000E+00 0. -1.
         23    2    1    2    0    0 -0.68123678677E+03 -0.16436159193E+03 -0.19562248606E+04  0.20799969054E+04  0.92049598521E+02 0.  0.
         13    1    3    3    0    0 -0.11852949271E+03  0.47445454258E+01 -0.29737493960E+03  0.32016184353E+03  0.00000000000E+00 0.  1.
        -13    1    3    3    0    0 -0.56270729406E+03 -0.16910613735E+03 -0.16588499210E+04  0.17598350618E+04  0.00000000000E+00 0. -1.
         22    1    1    2    0    0  0.68123678677E+03  0.16436159193E+03  0.37118383532E+03  0.79301685490E+03  0.00000000000E+00 0.  1.
<mgrwt>
<rscale>  0 0.23962164E+04</rscale>
<asrwt>0</asrwt>
<pdfrwt beam="1">  1        2 0.34292729E+00 0.23962164E+04</pdfrwt>
<pdfrwt beam="2">  1       -2 0.99074826E-01 0.23962164E+04</pdfrwt>
<totfact> 0.37765720E+00</totfact>
</mgrwt>
</event>
<event>
 6    1  0.2236204E-005  0.3395766E+04  0.7818608E-02  0.8138946E-01
          2   -1    0    0  501    0  0.00000000000E+00  0.00000000000E+00  0.16606488571E+04  0.16606488571E+04  0.00000000000E+00 0. -1.
         -2   -1    0    0    0  501 -0.00000000000E+00 -0.00000000000E+00 -0.17359517320E+04  0.17359517320E+04  0.00000000000E+00 0.  1.
         23    2    1    2    0    0 -0.13650952786E+04 -0.98862510775E+03 -0.23203636591E+03  0.17038424520E+04  0.91506844813E+02 0.  0.
         11    1    3    3    0    0 -0.96056989650E+03 -0.65767439029E+03 -0.13075321422E+03  0.11714634150E+04  0.00000000000E+00 0. -1.
        -11    1    3    3    0    0 -0.40452538214E+03 -0.33095071747E+03 -0.10128315169E+03  0.53237903697E+03  0.00000000000E+00 0.  1.
         22    1    1    2    0    0  0.13650952786E+04  0.98862510775E+03  0.15673349104E+03  0.16927581371E+04  0.00000000000E+00 0.  1.
<mgrwt>
<rscale>  0 0.33957658E+04</rscale>
<asrwt>0</asrwt>
<pdfrwt beam="1">  1        2 0.25548444E+00 0.33957658E+04</pdfrwt>
<pdfrwt beam="2">  1       -2 0.26706950E+00 0.33957658E+04</pdfrwt>
<totfact> 0.43174337E-01</totfact>
</mgrwt>
</event>
<event>
 6    1  0.2236204E-005  0.1415137E+04  0.7818608E-02  0.8942934E-01
          2   -1    0    0  501    0  0.00000000000E+00  0.00000000000E+00  0.18933102746E+04  0.18933102746E+04  0.00000000000E+00 0. -1.
         -2   -1    0    0    0  501 -0.00000000000E+00 -0.00000000000E+00 -0.26443254816E+03  0.26443254816E+03  0.00000000000E+00 0.  1.
         23    2    1    2    0    0 -0.64878942316E+03  0.22941648929E+03  0.58849095080E+03  0.91035984866E+03  0.94200922076E+02 0.  0.
         11    1    3    3    0    0 -0.34338267617E+03  0.12674577390E+03  0.25138349654E+03  0.44403807925E+03  0.00000000000E+00 0. -1.
        -11    1    3    3    0    0 -0.30540674699E+03  0.10267071539E+03  0.33710745426E+03  0.46632176940E+03  0.00000000000E+00 0.  1.
         22    1    1    2    0    0  0.64878942316E+03 -0.22941648929E+03  0.10403867756E+04  0.12473829741E+04  0.00000000000E+00 0.  1.
<mgrwt>
<rscale>  0 0.14151365E+04</rscale>
<asrwt>0</asrwt>
<pdfrwt beam="1">  1        2 0.29127850E+00 0.14151365E+04</pdfrwt>
<pdfrwt beam="2">  1       -2 0.40681932E-01 0.14151365E+04</pdfrwt>
<totfact> 0.42610678E+01</totfact>
</mgrwt>
</event>
<event>
 6    1  0.2236204E-005  0.8388671E+03  0.7818608E-02  0.9505402E-01
          2   -1    0    0  501    0  0.00000000000E+00  0.00000000000E+00  0.83259979420E+03  0.83259979420E+03  0.00000000000E+00 0. -1.
         -2   -1    0    0    0  501 -0.00000000000E+00 -0.00000000000E+00 -0.21129537423E+03  0.21129537423E+03  0.00000000000E+00 0.  1.
         23    2    1    2    0    0 -0.21586208820E+03  0.11967166247E+03  0.72886034074E+03  0.77466288208E+03  0.89148396796E+02 0.  0.
         11    1    3    3    0    0 -0.87729440027E+02  0.49645413614E+01  0.19749384753E+03  0.21615948078E+03  0.00000000000E+00 0.  1.
        -11    1    3    3    0    0 -0.12813264817E+03  0.11470712111E+03  0.53136649321E+03  0.55850340130E+03  0.00000000000E+00 0. -1.
         22    1    1    2    0    0  0.21586208820E+03 -0.11967166247E+03 -0.10755592077E+03  0.26923228635E+03  0.00000000000E+00 0.  1.
<mgrwt>
<rscale>  0 0.83886706E+03</rscale>
<asrwt>0</asrwt>
<pdfrwt beam="1">  1        2 0.12809227E+00 0.83886706E+03</pdfrwt>
<pdfrwt beam="2">  1       -2 0.32506981E-01 0.83886706E+03</pdfrwt>
<totfact> 0.28889192E+02</totfact>
</mgrwt>
</event>
<event>
 6    1  0.2236204E-005  0.1558152E+04  0.7818608E-02  0.8846677E-01
         -2   -1    0    0    0  501 -0.00000000000E+00  0.00000000000E+00  0.45370255997E+03  0.45370255997E+03  0.00000000000E+00 0.  1.
          2   -1    0    0  501    0  0.00000000000E+00 -0.00000000000E+00 -0.13377922868E+04  0.13377922868E+04  0.00000000000E+00 0. -1.
         23    2    1    2    0    0  0.43028010982E+03  0.37675813234E+02 -0.11854316418E+04  0.12648380424E+04  0.89479922335E+02 0.  0.
         11    1    3    3    0    0  0.11846747905E+03 -0.18244185291E+02 -0.41091858536E+03  0.42804378010E+03  0.00000000000E+00 0. -1.
        -11    1    3    3    0    0  0.31181263078E+03  0.55919998525E+02 -0.77451305641E+03  0.83679426234E+03  0.00000000000E+00 0.  1.
         22    1    1    2    0    0 -0.43028010982E+03 -0.37675813234E+02  0.30134191495E+03  0.52665680430E+03  0.00000000000E+00 0.  1.
<mgrwt>
<rscale>  0 0.15581525E+04</rscale>
<asrwt>0</asrwt>
<pdfrwt beam="1">  1        2 0.20581420E+00 0.15581525E+04</pdfrwt>
<pdfrwt beam="2">  1       -2 0.69800395E-01 0.15581525E+04</pdfrwt>
<totfact> 0.28279240E+01</totfact>
</mgrwt>
</event>
<event>
 6    1  0.2236204E-005  0.2989647E+04  0.7818608E-02  0.8246693E-01
          2   -1    0    0  501    0  0.00000000000E+00  0.00000000000E+00  0.18227337183E+04  0.18227337183E+04  0.00000000000E+00 0. -1.
         -2   -1    0    0    0  501 -0.00000000000E+00 -0.00000000000E+00 -0.12259046338E+04  0.12259046338E+04  0.00000000000E+00 0.  1.
         23    2    1    2    0    0  0.83183479205E+03 -0.10948171926E+04  0.89326903989E+03  0.16420643392E+04  0.88723785826E+02 0.  0.
         13    1    3    3    0    0  0.14921449042E+03 -0.19675346280E+03  0.20225518400E+03  0.31919280808E+03  0.00000000000E+00 0.  1.
        -13    1    3    3    0    0  0.68262030163E+03 -0.89806372978E+03  0.69101385589E+03  0.13228715312E+04  0.00000000000E+00 0. -1.
         22    1    1    2    0    0 -0.83183479205E+03  0.10948171926E+04 -0.29643995547E+03  0.14065740128E+04  0.00000000000E+00 0.  1.
<mgrwt>
<rscale>  0 0.29896473E+04</rscale>
<asrwt>0</asrwt>
<pdfrwt beam="1">  1        2 0.28042057E+00 0.29896473E+04</pdfrwt>
<pdfrwt beam="2">  1       -2 0.18860071E+00 0.29896473E+04</pdfrwt>
<totfact> 0.11375818E+00</totfact>
</mgrwt>
</event>
<event>
 6    1  0.2236204E-005  0.2204383E+04  0.7818608E-02  0.8516606E-01
         -2   -1    0    0    0  501 -0.00000000000E+00  0.00000000000E+00  0.15323004441E+04  0.15323004441E+04  0.00000000000E+00 0.  1.
          2   -1    0    0  501    0  0.00000000000E+00 -0.00000000000E+00 -0.79281229748E+03  0.79281229748E+03  0.00000000000E+00 0. -1.
         23    2    1    2    0    0  0.89016958516E+03 -0.37481137581E+03  0.92625312890E+03  0.13413614436E+04  0.91761679242E+02 0.  0.
         13    1    3    3    0    0  0.45863810946E+03 -0.22893484715E+03  0.53420371290E+03  0.74036051121E+03  0.00000000000E+00 0. -1.
        -13    1    3    3    0    0  0.43153147570E+03 -0.14587652866E+03  0.39204941601E+03  0.60100093238E+03  0.00000000000E+00 0.  1.
         22    1    1    2    0    0 -0.89016958516E+03  0.37481137581E+03 -0.18676498224E+03  0.98375129803E+03  0.00000000000E+00 0. -1.
<mgrwt>
<rscale>  0 0.22043835E+04</rscale>
<asrwt>0</asrwt>
<pdfrwt beam="1">  1        2 0.12197112E+00 0.22043835E+04</pdfrwt>
<pdfrwt beam="2">  1       -2 0.23573853E+00 0.22043835E+04</pdfrwt>
<totfact> 0.25070748E+00</totfact>
</mgrwt>
</event>
<event>
 6    1  0.3259798E-005  0.3451980E+04  0.7818608E-02  0.8125265E-01
         -2   -1    0    0    0  501 -0.00000000000E+00  0.00000000000E+00  0.20867912247E+04  0.20867912247E+04  0.00000000000E+00 0.  1.
          2   -1    0    0  501    0  0.00000000000E+00 -0.00000000000E+00 -0.14275703170E+04  0.14275703170E+04  0.00000000000E+00 0. -1.
         23    2    1    2    0    0 -0.93869642085E+03 -0.10996875596E+04 -0.62758274060E+03  0.15788183806E+04  0.91343765096E+02 0.  0.
         13    1    3    3    0    0 -0.44142481410E+03 -0.56387577660E+03 -0.27337567017E+03  0.76651550211E+03  0.00000000000E+00 0. -1.
        -13    1    3    3    0    0 -0.49727160675E+03 -0.53581178298E+03 -0.35420707044E+03  0.81230287849E+03  0.00000000000E+00 0.  1.
         22    1    1    2    0    0  0.93869642085E+03  0.10996875596E+04  0.12868036483E+04  0.19355431611E+04  0.00000000000E+00 0.  1.
<mgrwt>
<rscale>  0 0.34519798E+04</rscale>
<asrwt>0</asrwt>
<pdfrwt beam="1">  1        2 0.21962620E+00 0.34519798E+04</pdfrwt>
<pdfrwt beam="2">  1       -2 0.32104480E+00 0.34519798E+04</pdfrwt>
<totfact> 0.27151077E-01</totfact>
</mgrwt>
</event>
<event>
 6    1  0.2236204E-005  0.1038132E+04  0.7818608E-02  0.9267683E-01
          2   -1    0    0  501    0  0.00000000000E+00  0.00000000000E+00  0.19699416378E+04  0.19699416378E+04  0.00000000000E+00 0.  1.
         -2   -1    0    0    0  501 -0.00000000000E+00 -0.00000000000E+00 -0.13677036303E+03  0.13677036303E+03  0.00000000000E+00 0. -1.
         23    2    1    2    0    0 -0.13910155562E+03 -0.34022835403E+03  0.19109860144E+03  0.42400369570E+03  0.90309926528E+02 0.  0.
         11    1    3    3    0    0 -0.90831670784E+02 -0.13173543365E+03  0.49907050588E+02  0.16761661789E+03  0.00000000000E+00 0.  1.
        -11    1    3    3    0    0 -0.48269884833E+02 -0.20849292039E+03  0.14119155085E+03  0.25638707780E+03  0.00000000000E+00 0. -1.
         22    1    1    2    0    0  0.13910155562E+03  0.34022835403E+03  0.16420726733E+04  0.16827083051E+04  0.00000000000E+00 0.  1.
<mgrwt>
<rscale>  0 0.10381322E+04</rscale>
<asrwt>0</asrwt>
<pdfrwt beam="1">  1        2 0.30306792E+00 0.10381322E+04</pdfrwt>
<pdfrwt beam="2">  1       -2 0.21041596E-01 0.10381322E+04</pdfrwt>
<totfact> 0.13555901E+02</totfact>
</mgrwt>
</event>
<event>
 6    1  0.2236204E-005  0.1669961E+04  0.7818608E-02  0.8778685E-01
         -2   -1    0    0    0  501 -0.00000000000E+00  0.00000000000E+00  0.68988992307E+03  0.68988992307E+03  0.00000000000E+00 0.  1.
          2   -1    0    0  501    0  0.00000000000E+00 -0.00000000000E+00 -0.10105849791E+04  0.10105849791E+04  0.00000000000E+00 0. -1.
         23    2    1    2    0    0  0.30644311071E+03  0.62514425855E+03 -0.62598357307E+03  0.94026848108E+03  0.86813931269E+02 0.  0.
         13    1    3    3    0    0  0.33994982352E+02  0.14308493077E+03 -0.15023907721E+03  0.21023971214E+03  0.00000000000E+00 0.  1.
        -13    1    3    3    0    0  0.27244812835E+03  0.48205932778E+03 -0.47574449585E+03  0.73002876894E+03  0.00000000000E+00 0. -1.
         22    1    1    2    0    0 -0.30644311071E+03 -0.62514425855E+03  0.30528851701E+03  0.76020642112E+03  0.00000000000E+00 0.  1.
<mgrwt>
<rscale>  0 0.16699609E+04</rscale>
<asrwt>0</asrwt>
<pdfrwt beam="1">  1        2 0.15547461E+00 0.16699609E+04</pdfrwt>
<pdfrwt beam="2">  1       -2 0.10613691E+00 0.16699609E+04</pdfrwt>
<totfact> 0.16943737E+01</totfact>
</mgrwt>
</event>
<event>
 6    1  0.2236204E-005  0.4048056E+04  0.7818608E-02  0.7994922E-01
         -2   -1    0    0    0  501 -0.00000000000E+00  0.00000000000E+00  0.12344186068E+04  0.12344186068E+04  0.00000000000E+00 0.  1.
          2   -1    0    0  501    0  0.00000000000E+00 -0.00000000000E+00 -0.33187194140E+04  0.33187194140E+04  0.00000000000E+00 0. -1.
         23    2    1    2    0    0  0.15609545172E+04 -0.44235867938E+03  0.31726855008E+03  0.16548979369E+04  0.75944999268E+02 0.  0.
         13    1    3    3    0    0  0.39300240697E+03 -0.12864570024E+03  0.51804318471E+02  0.41675447867E+03  0.00000000000E+00 0. -1.
        -13    1    3    3    0    0  0.11679521102E+04 -0.31371297914E+03  0.26546423161E+03  0.12381434583E+04  0.00000000000E+00 0.  1.
         22    1    1    2    0    0 -0.15609545172E+04  0.44235867938E+03 -0.24015693573E+04  0.28982400839E+04  0.00000000000E+00 0. -1.
<mgrwt>
<rscale>  0 0.40480558E+04</rscale>
<asrwt>0</asrwt>
<pdfrwt beam="1">  1        2 0.51057222E+00 0.40480558E+04</pdfrwt>
<pdfrwt beam="2">  1       -2 0.18991055E+00 0.40480558E+04</pdfrwt>
<totfact> 0.13182570E-01</totfact>
</mgrwt>
</event>
<event>
 6    1  0.2236204E-005  0.4635781E+04  0.7818608E-02  0.7887287E-01
         -2   -1    0    0    0  501 -0.00000000000E+00  0.00000000000E+00  0.15775156780E+04  0.15775156780E+04  0.00000000000E+00 0.  1.
          2   -1    0    0  501    0  0.00000000000E+00 -0.00000000000E+00 -0.34057446369E+04  0.34057446369E+04  0.00000000000E+00 0. -1.
         23    2    1    2    0    0  0.12107335458E+04 -0.15182347875E+04  0.44400590688E+03  0.19942865990E+04  0.95525936557E+02 0.  0.
         13    1    3    3    0    0  0.56010695159E+03 -0.77861893041E+03  0.22367712369E+03  0.98488511598E+03  0.00000000000E+00 0.  1.
        -13    1    3    3    0    0  0.65062659420E+03 -0.73961585714E+03  0.22032878318E+03  0.10094014830E+04  0.00000000000E+00 0. -1.
         22    1    1    2    0    0 -0.12107335458E+04  0.15182347875E+04 -0.22722348658E+04  0.29889737159E+04  0.00000000000E+00 0. -1.
<mgrwt>
<rscale>  0 0.46357807E+04</rscale>
<asrwt>0</asrwt>
<pdfrwt beam="1">  1        2 0.52396071E+00 0.46357807E+04</pdfrwt>
<pdfrwt beam="2">  1       -2 0.24269472E+00 0.46357807E+04</pdfrwt>
<totfact> 0.50395919E-02</totfact>
</mgrwt>
</event>
<event>
 6    1  0.2236204E-005  0.3118832E+04  0.7818608E-02  0.8210588E-01
         -2   -1    0    0    0  501 -0.00000000000E+00  0.00000000000E+00  0.15563466343E+04  0.15563466343E+04  0.00000000000E+00 0.  1.
          2   -1    0    0  501    0  0.00000000000E+00 -0.00000000000E+00 -0.15624919067E+04  0.15624919067E+04  0.00000000000E+00 0. -1.
         23    2    1    2    0    0 -0.34812194354E+03 -0.20562235080E+03 -0.15078189642E+04  0.15636879647E+04  0.90180837457E+02 0.  0.
         11    1    3    3    0    0 -0.23329131940E+03 -0.97407373153E+02 -0.82449617016E+03  0.86238446801E+03  0.00000000000E+00 0. -1.
        -11    1    3    3    0    0 -0.11483062414E+03 -0.10821497765E+03 -0.68332279401E+03  0.70130349667E+03  0.00000000000E+00 0.  1.
         22    1    1    2    0    0  0.34812194354E+03  0.20562235080E+03  0.15016736917E+04  0.15551505763E+04  0.00000000000E+00 0.  1.
<mgrwt>
<rscale>  0 0.31188325E+04</rscale>
<asrwt>0</asrwt>
<pdfrwt beam="1">  1        2 0.24038337E+00 0.31188325E+04</pdfrwt>
<pdfrwt beam="2">  1       -2 0.23943794E+00 0.31188325E+04</pdfrwt>
<totfact> 0.74098038E-01</totfact>
</mgrwt>
</event>
<event>
 6    1  0.2236204E-005  0.2558136E+04  0.7818608E-02  0.8382562E-01
          1   -1    0    0  501    0  0.00000000000E+00  0.00000000000E+00  0.21040914608E+04  0.21040914608E+04  0.00000000000E+00 0. -1.
         -1   -1    0    0    0  501 -0.00000000000E+00 -0.00000000000E+00 -0.77753969968E+03  0.77753969968E+03  0.00000000000E+00 0.  1.
         23    2    1    2    0    0 -0.36458830876E+03  0.70386619243E+03  0.17925614964E+04  0.19621110002E+04  0.90832852076E+02 0.  0.
         11    1    3    3    0    0 -0.61217207679E+01  0.29145025767E+02  0.11434157904E+03  0.11815627232E+03  0.00000000000E+00 0.  1.
        -11    1    3    3    0    0 -0.35846658799E+03  0.67472116666E+03  0.16782199174E+04  0.18439547279E+04  0.00000000000E+00 0. -1.
         22    1    1    2    0    0  0.36458830876E+03 -0.70386619243E+03 -0.46600973530E+03  0.91952016026E+03  0.00000000000E+00 0.  1.
<mgrwt>
<rscale>  0 0.25581358E+04</rscale>
<asrwt>0</asrwt>
<pdfrwt beam="1">  1        1 0.32370638E+00 0.25581358E+04</pdfrwt>
<pdfrwt beam="2">  1       -1 0.11962149E+00 0.25581358E+04</pdfrwt>
<totfact> 0.13961649E+00</totfact>
</mgrwt>
</event>
<event>
 6    1  0.2236204E-005  0.2589056E+04  0.7818608E-02  0.8371928E-01
          2   -1    0    0  501    0  0.00000000000E+00  0.00000000000E+00  0.84931166129E+03  0.84931166129E+03  0.00000000000E+00 0. -1.
         -2   -1    0    0    0  501 -0.00000000000E+00 -0.00000000000E+00 -0.19731300028E+04  0.19731300028E+04  0.00000000000E+00 0.  1.
         23    2    1    2    0    0 -0.62776524031E+02  0.88521421394E+03 -0.15876658332E+04  0.18210927777E+04  0.90282946950E+02 0.  0.
         11    1    3    3    0    0 -0.48464358461E+02  0.36154872806E+03 -0.57494186349E+03  0.68089971597E+03  0.00000000000E+00 0. -1.
        -11    1    3    3    0    0 -0.14312165570E+02  0.52366548587E+03 -0.10127239697E+04  0.11401930618E+04  0.00000000000E+00 0.  1.
         22    1    1    2    0    0  0.62776524031E+02 -0.88521421394E+03  0.46384749177E+03  0.10013488863E+04  0.00000000000E+00 0. -1.
<mgrwt>
<rscale>  0 0.25890557E+04</rscale>
<asrwt>0</asrwt>
<pdfrwt beam="1">  1        2 0.13066333E+00 0.25890557E+04</pdfrwt>
<pdfrwt beam="2">  1       -2 0.30355846E+00 0.25890557E+04</pdfrwt>
<totfact> 0.85043440E-01</totfact>
</mgrwt>
</event>
<event>
 6    1  0.2236204E-005  0.1391852E+04  0.7818608E-02  0.8959738E-01
          2   -1    0    0  501    0  0.00000000000E+00  0.00000000000E+00  0.47700976030E+04  0.47700976030E+04  0.00000000000E+00 0. -1.
         -2   -1    0    0    0  501 -0.00000000000E+00 -0.00000000000E+00 -0.10153105811E+03  0.10153105811E+03  0.00000000000E+00 0.  1.
         23    2    1    2    0    0  0.51276474059E+03 -0.37814048881E+03  0.13904302283E+04  0.15321533103E+04  0.90992516321E+02 0.  0.
         13    1    3    3    0    0  0.37568549365E+03 -0.28471251258E+03  0.11161680586E+04  0.12116236792E+04  0.00000000000E+00 0. -1.
        -13    1    3    3    0    0  0.13707924694E+03 -0.93427976232E+02  0.27426216967E+03  0.32052963107E+03  0.00000000000E+00 0.  1.
         22    1    1    2    0    0 -0.51276474059E+03  0.37814048881E+03  0.32781363165E+04  0.33394753507E+04  0.00000000000E+00 0. -1.
<mgrwt>
<rscale>  0 0.13918521E+04</rscale>
<asrwt>0</asrwt>
<pdfrwt beam="1">  1        2 0.73386100E+00 0.13918521E+04</pdfrwt>
<pdfrwt beam="2">  1       -2 0.15620166E-01 0.13918521E+04</pdfrwt>
<totfact> 0.21617777E+00</totfact>
</mgrwt>
</event>
<event>
 6    1  0.2236204E-005  0.3531707E+04  0.7818608E-02  0.8106317E-01
          2   -1    0    0  501    0  0.00000000000E+00  0.00000000000E+00  0.23259167385E+04  0.23259167385E+04  0.00000000000E+00 0. -1.
         -2   -1    0    0    0  501 -0.00000000000E+00 -0.00000000000E+00 -0.13406493530E+04  0.13406493530E+04  0.00000000000E+00 0.  1.
         23    2    1    2    0    0  0.94612649426E+03 -0.61619674798E+03  0.19009161681E+04  0.22128582569E+04  0.91682122543E+02 0.  0.
         13    1    3    3    0    0  0.81883088208E+03 -0.56849606148E+03  0.16666929660E+04  0.19420445999E+04  0.00000000000E+00 0.  1.
        -13    1    3    3    0    0  0.12729561218E+03 -0.47700686499E+02  0.23422320211E+03  0.27081365693E+03  0.00000000000E+00 0. -1.
         22    1    1    2    0    0 -0.94612649426E+03  0.61619674798E+03 -0.91564878256E+03  0.14537078346E+04  0.00000000000E+00 0.  1.
<mgrwt>
<rscale>  0 0.35317071E+04</rscale>
<asrwt>0</asrwt>
<pdfrwt beam="1">  1        2 0.35783334E+00 0.35317071E+04</pdfrwt>
<pdfrwt beam="2">  1       -2 0.20625375E+00 0.35317071E+04</pdfrwt>
<totfact> 0.43485064E-01</totfact>
</mgrwt>
</event>
<event>
 6    1  0.2236204E-005  0.1260671E+04  0.7818608E-02  0.9061348E-01
          2   -1    0    0  501    0  0.00000000000E+00  0.00000000000E+00  0.10452187611E+04  0.10452187611E+04  0.00000000000E+00 0. -1.
         -2   -1    0    0    0  501 -0.00000000000E+00 -0.00000000000E+00 -0.38013375045E+03  0.38013375045E+03  0.00000000000E+00 0.  1.
         23    2    1    2    0    0 -0.12868917538E+03 -0.54568727385E+03  0.16742385251E+02  0.56821561197E+03  0.90846956585E+02 0.  0.
         13    1    3    3    0    0 -0.64433808206E+02 -0.43686065622E+03  0.12433430521E+02  0.44176185755E+03  0.00000000000E+00 0.  1.
        -13    1    3    3    0    0 -0.64255367178E+02 -0.10882661763E+03  0.43089547305E+01  0.12645375442E+03  0.00000000000E+00 0. -1.
         22    1    1    2    0    0  0.12868917538E+03  0.54568727385E+03  0.64834262539E+03  0.85713689957E+03  0.00000000000E+00 0. -1.
<mgrwt>
<rscale>  0 0.12606711E+04</rscale>
<asrwt>0</asrwt>
<pdfrwt beam="1">  1        2 0.16080289E+00 0.12606711E+04</pdfrwt>
<pdfrwt beam="2">  1       -2 0.58482116E-01 0.12606711E+04</pdfrwt>
<totfact> 0.63337584E+01</totfact>
</mgrwt>
</event>
<event>
 6    1  0.2754387E-005  0.2325649E+04  0.7818608E-02  0.8467876E-01
          2   -1    0    0  501    0  0.00000000000E+00  0.00000000000E+00  0.19760495557E+04  0.19760495557E+04  0.00000000000E+00 0. -1.
         -2   -1    0    0    0  501 -0.00000000000E+00 -0.00000000000E+00 -0.68427470830E+03  0.68427470830E+03  0.00000000000E+00 0.  1.
         23    2    1    2    0    0 -0.70684836801E+03 -0.51221395004E+03  0.15225785247E+04  0.17574022943E+04  0.90662639038E+02 0.  0.
         11    1    3    3    0    0 -0.27837162066E+03 -0.22843929701E+03  0.70656406926E+03  0.79303723467E+03  0.00000000000E+00 0. -1.
        -11    1    3    3    0    0 -0.42847674735E+03 -0.28377465303E+03  0.81601445546E+03  0.96436505963E+03  0.00000000000E+00 0.  1.
         22    1    1    2    0    0  0.70684836801E+03  0.51221395004E+03 -0.23080367729E+03  0.90292196973E+03  0.00000000000E+00 0.  1.
<mgrwt>
<rscale>  0 0.23256489E+04</rscale>
<asrwt>0</asrwt>
<pdfrwt beam="1">  1        2 0.30400762E+00 0.23256489E+04</pdfrwt>
<pdfrwt beam="2">  1       -2 0.10527303E+00 0.23256489E+04</pdfrwt>
<totfact> 0.45530490E+00</totfact>
</mgrwt>
</event>
<event>
 6    1  0.2236204E-005  0.2423849E+04  0.7818608E-02  0.8430629E-01
         -2   -1    0    0    0  501 -0.00000000000E+00  0.00000000000E+00  0.80418999275E+03  0.80418999275E+03  0.00000000000E+00 0. -1.
          2   -1    0    0  501    0  0.00000000000E+00 -0.00000000000E+00 -0.18263849823E+04  0.18263849823E+04  0.00000000000E+00 0.  1.
         23    2    1    2    0    0  0.30616472134E+03  0.86392459698E+03 -0.13694267223E+04  0.16504359940E+04  0.92232731416E+02 0.  0.
         13    1    3    3    0    0  0.15448733021E+03  0.56260771403E+03 -0.84331303280E+03  0.10254611872E+04  0.00000000000E+00 0. -1.
        -13    1    3    3    0    0  0.15167739112E+03  0.30131688296E+03 -0.52611368948E+03  0.62497480684E+03  0.00000000000E+00 0.  1.
         22    1    1    2    0    0 -0.30616472134E+03 -0.86392459698E+03  0.34723173276E+03  0.98013898101E+03  0.00000000000E+00 0. -1.
<mgrwt>
<rscale>  0 0.24238486E+04</rscale>
<asrwt>0</asrwt>
<pdfrwt beam="1">  1        2 0.28098230E+00 0.24238486E+04</pdfrwt>
<pdfrwt beam="2">  1       -2 0.12372154E+00 0.24238486E+04</pdfrwt>
<totfact> 0.36841235E+00</totfact>
</mgrwt>
</event>
<event>
 6    1  0.2236204E-005  0.2484414E+04  0.7818608E-02  0.8408559E-01
          2   -1    0    0  501    0  0.00000000000E+00  0.00000000000E+00  0.35824870019E+04  0.35824870019E+04  0.00000000000E+00 0. -1.
         -2   -1    0    0    0  501 -0.00000000000E+00 -0.00000000000E+00 -0.43072824081E+03  0.43072824081E+03  0.00000000000E+00 0.  1.
         23    2    1    2    0    0 -0.74819087847E+01  0.60459829056E+03  0.33278566396E+04  0.33834489887E+04  0.86615087294E+02 0.  0.
         13    1    3    3    0    0  0.32712297433E+02  0.14678991381E+03  0.90011974674E+03  0.91259680674E+03  0.00000000000E+00 0. -1.
        -13    1    3    3    0    0 -0.40194206218E+02  0.45780837675E+03  0.24277368929E+04  0.24708521820E+04  0.00000000000E+00 0.  1.
         22    1    1    2    0    0  0.74819087847E+01 -0.60459829056E+03 -0.17609787851E+03  0.62976625403E+03  0.00000000000E+00 0.  1.
<mgrwt>
<rscale>  0 0.24844141E+04</rscale>
<asrwt>0</asrwt>
<pdfrwt beam="1">  1        2 0.55115183E+00 0.24844141E+04</pdfrwt>
<pdfrwt beam="2">  1       -2 0.66265886E-01 0.24844141E+04</pdfrwt>
<totfact> 0.13313101E+00</totfact>
</mgrwt>
</event>
<event>
 6    1  0.2236204E-005  0.1763486E+04  0.7818608E-02  0.8725962E-01
          2   -1    0    0  501    0  0.00000000000E+00  0.00000000000E+00  0.35934876750E+03  0.35934876750E+03  0.00000000000E+00 0. -1.
         -2   -1    0    0    0  501 -0.00000000000E+00 -0.00000000000E+00 -0.21635547567E+04  0.21635547567E+04  0.00000000000E+00 0.  1.
         23    2    1    2    0    0  0.64419992967E+03 -0.53533760932E+03 -0.12875784141E+04  0.15387876994E+04  0.91812341287E+02 0.  0.
         11    1    3    3    0    0  0.13060415486E+03 -0.15084523906E+03 -0.26734330299E+03  0.33359282527E+03  0.00000000000E+00 0.  1.
        -11    1    3    3    0    0  0.51359577481E+03 -0.38449237026E+03 -0.10202351111E+04  0.12051948741E+04  0.00000000000E+00 0. -1.
         22    1    1    2    0    0 -0.64419992967E+03  0.53533760932E+03 -0.51662757517E+03  0.98411582487E+03  0.00000000000E+00 0. -1.
<mgrwt>
<rscale>  0 0.17634860E+04</rscale>
<asrwt>0</asrwt>
<pdfrwt beam="1">  1        2 0.55284426E-01 0.17634860E+04</pdfrwt>
<pdfrwt beam="2">  1       -2 0.33285458E+00 0.17634860E+04</pdfrwt>
<totfact> 0.16983333E+00</totfact>
</mgrwt>
</event>
<event>
 6    1  0.2236204E-005  0.1344605E+04  0.7818608E-02  0.8994922E-01
         -2   -1    0    0    0  501 -0.00000000000E+00  0.00000000000E+00  0.34264142381E+03  0.34264142381E+03  0.00000000000E+00 0. -1.
          2   -1    0    0  501    0  0.00000000000E+00 -0.00000000000E+00 -0.13191359436E+04  0.13191359436E+04  0.00000000000E+00 0.  1.
         23    2    1    2    0    0  0.40983372440E+03  0.51631043534E+03 -0.63255824881E+03  0.91825043057E+03  0.92270080743E+02 0.  0.
         11    1    3    3    0    0  0.99731678984E+02  0.15300290910E+03 -0.22919635012E+03  0.29306529118E+03  0.00000000000E+00 0.  1.
        -11    1    3    3    0    0  0.31010204541E+03  0.36330752625E+03 -0.40336189869E+03  0.62518513939E+03  0.00000000000E+00 0. -1.
         22    1    1    2    0    0 -0.40983372440E+03 -0.51631043534E+03 -0.34393627096E+03  0.74352693683E+03  0.00000000000E+00 0.  1.
<mgrwt>
<rscale>  0 0.13446050E+04</rscale>
<asrwt>0</asrwt>
<pdfrwt beam="1">  1        2 0.20294399E+00 0.13446050E+04</pdfrwt>
<pdfrwt beam="2">  1       -2 0.52714065E-01 0.13446050E+04</pdfrwt>
<totfact> 0.53440058E+01</totfact>
</mgrwt>
</event>
<event>
 6    1  0.2236204E-005  0.2027124E+04  0.7818608E-02  0.8594044E-01
         -2   -1    0    0    0  501 -0.00000000000E+00  0.00000000000E+00  0.19471119923E+04  0.19471119923E+04  0.00000000000E+00 0.  1.
          2   -1    0    0  501    0  0.00000000000E+00 -0.00000000000E+00 -0.52760572898E+03  0.52760572898E+03  0.00000000000E+00 0. -1.
         23    2    1    2    0    0  0.17650694917E+03  0.84399241315E+03  0.13565153214E+04  0.16101682691E+04  0.95027053539E+02 0.  0.
         13    1    3    3    0    0  0.18725384632E+03  0.75745365747E+03  0.12227118517E+04  0.14504565896E+04  0.00000000000E+00 0.  1.
        -13    1    3    3    0    0 -0.10746897146E+02  0.86538755686E+02  0.13380346977E+03  0.15971167946E+03  0.00000000000E+00 0. -1.
         22    1    1    2    0    0 -0.17650694917E+03 -0.84399241315E+03  0.62990941903E+02  0.86454945221E+03  0.00000000000E+00 0.  1.
<mgrwt>
<rscale>  0 0.20271235E+04</rscale>
<asrwt>0</asrwt>
<pdfrwt beam="1">  1        2 0.81170113E-01 0.20271235E+04</pdfrwt>
<pdfrwt beam="2">  1       -2 0.29955569E+00 0.20271235E+04</pdfrwt>
<totfact> 0.17160805E+00</totfact>
</mgrwt>
</event>
<event>
 6    1  0.2236204E-005  0.7952345E+03  0.7818608E-02  0.9566941E-01
         -2   -1    0    0    0  501 -0.00000000000E+00  0.00000000000E+00  0.20797665001E+03  0.20797665001E+03  0.00000000000E+00 0.  1.
          2   -1    0    0  501    0  0.00000000000E+00 -0.00000000000E+00 -0.76017893325E+03  0.76017893325E+03  0.00000000000E+00 0. -1.
         23    2    1    2    0    0  0.64483427309E+02 -0.10653436554E+03 -0.73275274545E+03  0.74882443444E+03  0.91124992263E+02 0.  0.
         11    1    3    3    0    0  0.21008919432E+02 -0.33657680209E+02 -0.49119393949E+03  0.49279377059E+03  0.00000000000E+00 0. -1.
        -11    1    3    3    0    0  0.43474507878E+02 -0.72876685329E+02 -0.24155880596E+03  0.25603066386E+03  0.00000000000E+00 0.  1.
         22    1    1    2    0    0 -0.64483427309E+02  0.10653436554E+03  0.18055046221E+03  0.21933114882E+03  0.00000000000E+00 0.  1.
<mgrwt>
<rscale>  0 0.79523448E+03</rscale>
<asrwt>0</asrwt>
<pdfrwt beam="1">  1        2 0.11695060E+00 0.79523448E+03</pdfrwt>
<pdfrwt beam="2">  1       -2 0.31996408E-01 0.79523448E+03</pdfrwt>
<totfact> 0.33637861E+02</totfact>
</mgrwt>
</event>
<event>
 6    1  0.2236204E-005  0.2149638E+04  0.7818608E-02  0.8539687E-01
          2   -1    0    0  501    0  0.00000000000E+00  0.00000000000E+00  0.95489467871E+03  0.95489467871E+03  0.00000000000E+00 0. -1.
         -2   -1    0    0    0  501 -0.00000000000E+00 -0.00000000000E+00 -0.12098040626E+04  0.12098040626E+04  0.00000000000E+00 0.  1.
         23    2    1    2    0    0  0.40654097877E+03  0.17379139754E+03 -0.11121859872E+04  0.12001251610E+04  0.88677588462E+02 0.  0.
         11    1    3    3    0    0  0.28303086383E+03  0.10403238400E+03 -0.64753090418E+03  0.71430069206E+03  0.00000000000E+00 0. -1.
        -11    1    3    3    0    0  0.12351011494E+03  0.69759013546E+02 -0.46465508304E+03  0.48582446898E+03  0.00000000000E+00 0.  1.
         22    1    1    2    0    0 -0.40654097877E+03 -0.17379139754E+03  0.85727660329E+03  0.96457358031E+03  0.00000000000E+00 0. -1.
<mgrwt>
<rscale>  0 0.21496376E+04</rscale>
<asrwt>0</asrwt>
<pdfrwt beam="1">  1        2 0.14690687E+00 0.21496376E+04</pdfrwt>
<pdfrwt beam="2">  1       -2 0.18612370E+00 0.21496376E+04</pdfrwt>
<totfact> 0.40708927E+00</totfact>
</mgrwt>
</event>
<event>
 6    1  0.2236204E-005  0.3588372E+04  0.7818608E-02  0.8093160E-01
         -2   -1    0    0    0  501 -0.00000000000E+00  0.00000000000E+00  0.14175055020E+04  0.14175055020E+04  0.00000000000E+00 0.  1.
          2   -1    0    0  501    0  0.00000000000E+00 -0.00000000000E+00 -0.22709633970E+04  0.22709633970E+04  0.00000000000E+00 0. -1.
         23    2    1    2    0    0 -0.16384018344E+04 -0.33338829840E+03  0.23894310280E+03  0.16912587777E+04  0.88057471979E+02 0.  0.
         11    1    3    3    0    0 -0.39606676142E+03 -0.42797186121E+02  0.51067098885E+02  0.40163207943E+03  0.00000000000E+00 0. -1.
        -11    1    3    3    0    0 -0.12423350730E+04 -0.29059111228E+03  0.18787600392E+03  0.12896266983E+04  0.00000000000E+00 0.  1.
         22    1    1    2    0    0  0.16384018344E+04  0.33338829840E+03 -0.10924009979E+04  0.19972101213E+04  0.00000000000E+00 0. -1.
<mgrwt>
<rscale>  0 0.35883718E+04</rscale>
<asrwt>0</asrwt>
<pdfrwt beam="1">  1        2 0.34937898E+00 0.35883718E+04</pdfrwt>
<pdfrwt beam="2">  1       -2 0.21807777E+00 0.35883718E+04</pdfrwt>
<totfact> 0.39050079E-01</totfact>
</mgrwt>
</event>
<event>
 6    1  0.2236204E-005  0.1805257E+04  0.7818608E-02  0.8703509E-01
         -2   -1    0    0    0  501 -0.00000000000E+00  0.00000000000E+00  0.14032418037E+04  0.14032418037E+04  0.00000000000E+00 0. -1.
          2   -1    0    0  501    0  0.00000000000E+00 -0.00000000000E+00 -0.58061158935E+03  0.58061158935E+03  0.00000000000E+00 0.  1.
         23    2    1    2    0    0 -0.33030363592E+03  0.61386001587E+03 -0.21388402088E+03  0.73473915854E+03  0.90391624206E+02 0.  0.
         11    1    3    3    0    0 -0.23716443880E+03  0.37805616448E+03 -0.16927527124E+03  0.47731284498E+03  0.00000000000E+00 0.  1.
        -11    1    3    3    0    0 -0.93139197121E+02  0.23580385138E+03 -0.44608749642E+02  0.25742631356E+03  0.00000000000E+00 0. -1.
         22    1    1    2    0    0  0.33030363592E+03 -0.61386001587E+03  0.10365142352E+04  0.12491142345E+04  0.00000000000E+00 0. -1.
<mgrwt>
<rscale>  0 0.18052573E+04</rscale>
<asrwt>0</asrwt>
<pdfrwt beam="1">  1        2 0.89324860E-01 0.18052573E+04</pdfrwt>
<pdfrwt beam="2">  1       -2 0.21588335E+00 0.18052573E+04</pdfrwt>
<totfact> 0.51082985E+00</totfact>
</mgrwt>
</event>
<event>
 6    1  0.2236204E-005  0.1614482E+04  0.7818608E-02  0.8811700E-01
         -2   -1    0    0    0  501 -0.00000000000E+00  0.00000000000E+00  0.37996435242E+03  0.37996435242E+03  0.00000000000E+00 0.  1.
          2   -1    0    0  501    0  0.00000000000E+00 -0.00000000000E+00 -0.17149974565E+04  0.17149974565E+04  0.00000000000E+00 0. -1.
         23    2    1    2    0    0  0.50360465721E+03  0.20637020422E+02  0.14099580728E+03  0.53524873128E+03  0.11210641949E+03 0.  0.
         11    1    3    3    0    0  0.33673888942E+03  0.49328957093E+02  0.13408275740E+03  0.36579312663E+03  0.00000000000E+00 0. -1.
        -11    1    3    3    0    0  0.16686576778E+03 -0.28691936672E+02  0.69130498846E+01  0.16945560465E+03  0.00000000000E+00 0.  1.
         22    1    1    2    0    0 -0.50360465721E+03 -0.20637020422E+02 -0.14760289114E+04  0.15597130777E+04  0.00000000000E+00 0. -1.
<mgrwt>
<rscale>  0 0.16144818E+04</rscale>
<asrwt>0</asrwt>
<pdfrwt beam="1">  1        2 0.26384576E+00 0.16144818E+04</pdfrwt>
<pdfrwt beam="2">  1       -2 0.58456054E-01 0.16144818E+04</pdfrwt>
<totfact> 0.25213933E+01</totfact>
</mgrwt>
</event>
<event>
 6    1  0.2342834E-005  0.2246858E+04  0.7818608E-02  0.8499174E-01
         -2   -1    0    0    0  501 -0.00000000000E+00  0.00000000000E+00  0.88407378127E+03  0.88407378127E+03  0.00000000000E+00 0.  1.
          2   -1    0    0  501    0  0.00000000000E+00 -0.00000000000E+00 -0.14275875935E+04  0.14275875935E+04  0.00000000000E+00 0. -1.
         23    2    1    2    0    0 -0.76859755490E+03 -0.66565850582E+03 -0.75943046446E+03  0.12722079374E+04  0.89078381123E+02 0.  0.
         13    1    3    3    0    0 -0.53063279664E+03 -0.40438342533E+03 -0.48718321182E+03  0.82610205267E+03  0.00000000000E+00 0.  1.
        -13    1    3    3    0    0 -0.23796475826E+03 -0.26127508050E+03 -0.27224725264E+03  0.44610588477E+03  0.00000000000E+00 0. -1.
         22    1    1    2    0    0  0.76859755490E+03  0.66565850582E+03  0.21591665219E+03  0.10394534374E+04  0.00000000000E+00 0.  1.
<mgrwt>
<rscale>  0 0.22468580E+04</rscale>
<asrwt>0</asrwt>
<pdfrwt beam="1">  1        2 0.21962886E+00 0.22468580E+04</pdfrwt>
<pdfrwt beam="2">  1       -2 0.13601135E+00 0.22468580E+04</pdfrwt>
<totfact> 0.49187697E+00</totfact>
</mgrwt>
</event>
<event>
 6    1  0.2236204E-005  0.1105335E+04  0.7818608E-02  0.9200007E-01
         -1   -1    0    0    0  501 -0.00000000000E+00  0.00000000000E+00  0.18067077381E+03  0.18067077381E+03  0.00000000000E+00 0.  1.
          1   -1    0    0  501    0  0.00000000000E+00 -0.00000000000E+00 -0.16905969384E+04  0.16905969384E+04  0.00000000000E+00 0. -1.
         23    2    1    2    0    0 -0.17354162845E+03 -0.34700760770E+03 -0.10174431665E+03  0.41061474403E+03  0.87872552218E+02 0.  0.
         13    1    3    3    0    0 -0.52945725861E+02 -0.35753900796E+02 -0.12621075837E+02  0.65122061273E+02  0.00000000000E+00 0.  1.
        -13    1    3    3    0    0 -0.12059590259E+03 -0.31125370690E+03 -0.89123240811E+02  0.34549268275E+03  0.00000000000E+00 0. -1.
         22    1    1    2    0    0  0.17354162845E+03  0.34700760770E+03 -0.14081818479E+04  0.14606529682E+04  0.00000000000E+00 0. -1.
<mgrwt>
<rscale>  0 0.11053352E+04</rscale>
<asrwt>0</asrwt>
<pdfrwt beam="1">  1        1 0.26009183E+00 0.11053352E+04</pdfrwt>
<pdfrwt beam="2">  1       -1 0.27795505E-01 0.11053352E+04</pdfrwt>
<totfact> 0.56221448E+01</totfact>
</mgrwt>
</event>
<event>
 6    1  0.2236204E-005  0.3922774E+04  0.7818608E-02  0.8020309E-01
         -1   -1    0    0    0  501 -0.00000000000E+00  0.00000000000E+00  0.16266455023E+04  0.16266455023E+04  0.00000000000E+00 0.  1.
          1   -1    0    0  501    0  0.00000000000E+00 -0.00000000000E+00 -0.23650135642E+04  0.23650135642E+04  0.00000000000E+00 0. -1.
         23    2    1    2    0    0 -0.15923676564E+04 -0.71145400923E+03  0.54131740158E+03  0.18284678022E+04  0.92023985405E+02 0.  0.
         13    1    3    3    0    0 -0.37352863928E+03 -0.12575566419E+03  0.13080812118E+03  0.41526966661E+03  0.00000000000E+00 0. -1.
        -13    1    3    3    0    0 -0.12188390171E+04 -0.58569834504E+03  0.41050928040E+03  0.14131981356E+04  0.00000000000E+00 0.  1.
         22    1    1    2    0    0  0.15923676564E+04  0.71145400923E+03 -0.12796854636E+04  0.21631912643E+04  0.00000000000E+00 0.  1.
<mgrwt>
<rscale>  0 0.39227739E+04</rscale>
<asrwt>0</asrwt>
<pdfrwt beam="1">  1        1 0.36384824E+00 0.39227739E+04</pdfrwt>
<pdfrwt beam="2">  1       -1 0.25025316E+00 0.39227739E+04</pdfrwt>
<totfact> 0.91867538E-02</totfact>
</mgrwt>
</event>
<event>
 6    1  0.2236204E-005  0.1149312E+04  0.7818608E-02  0.9158418E-01
         -2   -1    0    0    0  501 -0.00000000000E+00  0.00000000000E+00  0.62381862595E+03  0.62381862595E+03  0.00000000000E+00 0.  1.
          2   -1    0    0  501    0  0.00000000000E+00 -0.00000000000E+00 -0.52936807421E+03  0.52936807421E+03  0.00000000000E+00 0. -1.
         23    2    1    2    0    0  0.23384968447E+03 -0.49533578903E+03  0.20859837812E+03  0.59365748280E+03  0.94195035468E+02 0.  0.
         13    1    3    3    0    0  0.19079580860E+03 -0.30567444725E+03  0.15220259126E+03  0.39115922214E+03  0.00000000000E+00 0.  1.
        -13    1    3    3    0    0  0.43053875870E+02 -0.18966134178E+03  0.56395786865E+02  0.20249826065E+03  0.00000000000E+00 0. -1.
         22    1    1    2    0    0 -0.23384968447E+03  0.49533578903E+03 -0.11414782638E+03  0.55952921736E+03  0.00000000000E+00 0. -1.
<mgrwt>
<rscale>  0 0.11493123E+04</rscale>
<asrwt>0</asrwt>
<pdfrwt beam="1">  1        2 0.81441243E-01 0.11493123E+04</pdfrwt>
<pdfrwt beam="2">  1       -2 0.95972096E-01 0.11493123E+04</pdfrwt>
<totfact> 0.51905376E+01</totfact>
</mgrwt>
</event>
<event>
 6    1  0.2236204E-005  0.1393817E+04  0.7818608E-02  0.8958306E-01
          2   -1    0    0  501    0  0.00000000000E+00  0.00000000000E+00  0.16885940232E+04  0.16885940232E+04  0.00000000000E+00 0. -1.
         -2   -1    0    0    0  501 -0.00000000000E+00 -0.00000000000E+00 -0.28762487973E+03  0.28762487973E+03  0.00000000000E+00 0.  1.
         23    2    1    2    0    0 -0.18257266977E+03 -0.34776044929E+03 -0.10758783514E+03  0.41736859981E+03  0.91385425537E+02 0.  0.
         11    1    3    3    0    0 -0.18331779475E+03 -0.29290138636E+03 -0.75093715062E+02  0.35360387730E+03  0.00000000000E+00 0.  1.
        -11    1    3    3    0    0  0.74512497753E+00 -0.54859062928E+02 -0.32494120075E+02  0.63764722504E+02  0.00000000000E+00 0. -1.
         22    1    1    2    0    0  0.18257266977E+03  0.34776044929E+03  0.15085569786E+04  0.15588503032E+04  0.00000000000E+00 0. -1.
<mgrwt>
<rscale>  0 0.13938173E+04</rscale>
<asrwt>0</asrwt>
<pdfrwt beam="1">  1        2 0.25978369E+00 0.13938173E+04</pdfrwt>
<pdfrwt beam="2">  1       -2 0.44249982E-01 0.13938173E+04</pdfrwt>
<totfact> 0.46924912E+01</totfact>
</mgrwt>
</event>
<event>
 6    1  0.2236204E-005  0.2376393E+04  0.7818608E-02  0.8448395E-01
         -2   -1    0    0    0  501 -0.00000000000E+00  0.00000000000E+00  0.42685568502E+03  0.42685568502E+03  0.00000000000E+00 0.  1.
          2   -1    0    0  501    0  0.00000000000E+00 -0.00000000000E+00 -0.33074674594E+04  0.33074674594E+04  0.00000000000E+00 0. -1.
         23    2    1    2    0    0 -0.11603912622E+04  0.97076596786E+02 -0.18026189094E+04  0.21475023089E+04  0.79996796781E+02 0.  0.
         11    1    3    3    0    0 -0.15567007510E+03  0.36729847200E+01 -0.19654846987E+03  0.25075478880E+03  0.00000000000E+00 0. -1.
        -11    1    3    3    0    0 -0.10047211871E+04  0.93403612066E+02 -0.16060704395E+04  0.18967475201E+04  0.00000000000E+00 0.  1.
         22    1    1    2    0    0  0.11603912622E+04 -0.97076596786E+02 -0.10779928650E+04  0.15868208355E+04  0.00000000000E+00 0. -1.
<mgrwt>
<rscale>  0 0.23763933E+04</rscale>
<asrwt>0</asrwt>
<pdfrwt beam="1">  1        2 0.50884116E+00 0.23763933E+04</pdfrwt>
<pdfrwt beam="2">  1       -2 0.65670104E-01 0.23763933E+04</pdfrwt>
<totfact> 0.21214743E+00</totfact>
</mgrwt>
</event>
<event>
 6    1  0.2236204E-005  0.4859073E+04  0.7818608E-02  0.7850622E-01
          2   -1    0    0  501    0  0.00000000000E+00  0.00000000000E+00  0.31038905270E+04  0.31038905270E+04  0.00000000000E+00 0. -1.
         -2   -1    0    0    0  501 -0.00000000000E+00 -0.00000000000E+00 -0.19016932866E+04  0.19016932866E+04  0.00000000000E+00 0.  1.
         23    2    1    2    0    0  0.15739956998E+04  0.14013870788E+04 -0.64219993065E+03  0.22050215251E+04  0.91383628159E+02 0.  0.
         13    1    3    3    0    0  0.61851727397E+03  0.58453043798E+03 -0.29804451497E+03  0.90170393369E+03  0.00000000000E+00 0.  1.
        -13    1    3    3    0    0  0.95547842579E+03  0.81685664086E+03 -0.34415541568E+03  0.13033175914E+04  0.00000000000E+00 0. -1.
         22    1    1    2    0    0 -0.15739956998E+04 -0.14013870788E+04  0.18443971711E+04  0.28005622886E+04  0.00000000000E+00 0. -1.
<mgrwt>
<rscale>  0 0.48590731E+04</rscale>
<asrwt>0</asrwt>
<pdfrwt beam="1">  1        2 0.47752162E+00 0.48590731E+04</pdfrwt>
<pdfrwt beam="2">  1       -2 0.29256820E+00 0.48590731E+04</pdfrwt>
<totfact> 0.38846600E-02</totfact>
</mgrwt>
</event>
<event>
 6    1  0.2236204E-005  0.1462961E+04  0.7818608E-02  0.8909464E-01
          2   -1    0    0  501    0  0.00000000000E+00  0.00000000000E+00  0.23893970751E+04  0.23893970751E+04  0.00000000000E+00 0. -1.
         -2   -1    0    0    0  501 -0.00000000000E+00 -0.00000000000E+00 -0.22393247044E+03  0.22393247044E+03  0.00000000000E+00 0.  1.
         23    2    1    2    0    0 -0.49430531707E+03  0.12412997205E+03  0.15705987500E+03  0.54126884310E+03  0.92510322285E+02 0.  0.
         11    1    3    3    0    0 -0.17342171504E+03  0.68200996370E+02  0.96900766375E+02  0.21003862901E+03  0.00000000000E+00 0. -1.
        -11    1    3    3    0    0 -0.32088360204E+03  0.55928975675E+02  0.60159108623E+02  0.33123021409E+03  0.00000000000E+00 0.  1.
         22    1    1    2    0    0  0.49430531707E+03 -0.12412997205E+03  0.20084047296E+04  0.20720607024E+04  0.00000000000E+00 0. -1.
<mgrwt>
<rscale>  0 0.14629608E+04</rscale>
<asrwt>0</asrwt>
<pdfrwt beam="1">  1        2 0.36759953E+00 0.14629608E+04</pdfrwt>
<pdfrwt beam="2">  1       -2 0.34451151E-01 0.14629608E+04</pdfrwt>
<totfact> 0.30913127E+01</totfact>
</mgrwt>
</event>
<event>
 6    1  0.2236204E-005  0.1073660E+04  0.7818608E-02  0.9231252E-01
          2   -1    0    0  501    0  0.00000000000E+00  0.00000000000E+00  0.13391835611E+04  0.13391835611E+04  0.00000000000E+00 0. -1.
         -2   -1    0    0    0  501 -0.00000000000E+00 -0.00000000000E+00 -0.21519562092E+03  0.21519562092E+03  0.00000000000E+00 0.  1.
         23    2    1    2    0    0  0.31536461943E+03 -0.59767595377E+02 -0.50645302667E+02  0.33668042459E+03  0.88100811403E+02 0.  0.
         13    1    3    3    0    0  0.17719373400E+03 -0.20263452079E+01  0.40562560353E+01  0.17725173810E+03  0.00000000000E+00 0. -1.
        -13    1    3    3    0    0  0.13817088543E+03 -0.57741250169E+02 -0.54701558703E+02  0.15942868649E+03  0.00000000000E+00 0.  1.
         22    1    1    2    0    0 -0.31536461943E+03  0.59767595377E+02  0.11746332428E+04  0.12176987574E+04  0.00000000000E+00 0. -1.
<mgrwt>
<rscale>  0 0.10736600E+04</rscale>
<asrwt>0</asrwt>
<pdfrwt beam="1">  1        2 0.20602824E+00 0.10736600E+04</pdfrwt>
<pdfrwt beam="2">  1       -2 0.33107019E-01 0.10736600E+04</pdfrwt>
<totfact> 0.13272033E+02</totfact>
</mgrwt>
</event>
<event>
 6    1  0.2236204E-005  0.1331609E+04  0.7818608E-02  0.9004868E-01
         -2   -1    0    0    0  501 -0.00000000000E+00  0.00000000000E+00  0.48285719583E+03  0.48285719583E+03  0.00000000000E+00 0.  1.
          2   -1    0    0  501    0  0.00000000000E+00 -0.00000000000E+00 -0.91806731292E+03  0.91806731292E+03  0.00000000000E+00 0. -1.
         23    2    1    2    0    0  0.24664038274E+03 -0.58702147099E+03 -0.26751097513E+02  0.64444287878E+03  0.95735662092E+02 0.  0.
         13    1    3    3    0    0  0.10908683714E+02 -0.67437778263E+02 -0.28139727829E+02  0.73882999395E+02  0.00000000000E+00 0. -1.
        -13    1    3    3    0    0  0.23573169903E+03 -0.51958369273E+03  0.13886303166E+01  0.57055987939E+03  0.00000000000E+00 0.  1.
         22    1    1    2    0    0 -0.24664038274E+03  0.58702147099E+03 -0.40845901958E+03  0.75648162997E+03  0.00000000000E+00 0. -1.
<mgrwt>
<rscale>  0 0.13316087E+04</rscale>
<asrwt>0</asrwt>
<pdfrwt beam="1">  1        2 0.14124112E+00 0.13316087E+04</pdfrwt>
<pdfrwt beam="2">  1       -2 0.74285723E-01 0.13316087E+04</pdfrwt>
<totfact> 0.45495482E+01</totfact>
</mgrwt>
</event>
<event>
 6    1  0.2236204E-005  0.1486791E+04  0.7818608E-02  0.8893285E-01
          2   -1    0    0  501    0  0.00000000000E+00  0.00000000000E+00  0.41206680738E+03  0.41206680738E+03  0.00000000000E+00 0. -1.
         -2   -1    0    0    0  501 -0.00000000000E+00 -0.00000000000E+00 -0.13411340335E+04  0.13411340335E+04  0.00000000000E+00 0.  1.
         23    2    1    2    0    0  0.34704571809E+03  0.56336804023E+03 -0.85862296464E+03  0.10877786643E+04  0.90580063065E+02 0.  0.
         13    1    3    3    0    0  0.17614574537E+03  0.36564262174E+03 -0.54550074227E+03  0.67992125298E+03  0.00000000000E+00 0.  1.
        -13    1    3    3    0    0  0.17089997272E+03  0.19772541849E+03 -0.31312222237E+03  0.40785741128E+03  0.00000000000E+00 0. -1.
         22    1    1    2    0    0 -0.34704571809E+03 -0.56336804023E+03 -0.70444261524E+02  0.66542217665E+03  0.00000000000E+00 0. -1.
<mgrwt>
<rscale>  0 0.14867909E+04</rscale>
<asrwt>0</asrwt>
<pdfrwt beam="1">  1        2 0.63394893E-01 0.14867909E+04</pdfrwt>
<pdfrwt beam="2">  1       -2 0.20632831E+00 0.14867909E+04</pdfrwt>
<totfact> 0.89848709E+00</totfact>
</mgrwt>
</event>
<event>
 6    1  0.2683334E-005  0.2655227E+04  0.7818608E-02  0.8349680E-01
         -2   -1    0    0    0  501 -0.00000000000E+00  0.00000000000E+00  0.10329265084E+04  0.10329265084E+04  0.00000000000E+00 0.  1.
          2   -1    0    0  501    0  0.00000000000E+00 -0.00000000000E+00 -0.17063722541E+04  0.17063722541E+04  0.00000000000E+00 0. -1.
         23    2    1    2    0    0 -0.16960085594E+03 -0.23731302232E+03  0.99752376739E+03  0.10430614457E+04  0.88552765054E+02 0.  0.
         13    1    3    3    0    0 -0.13563560017E+03 -0.16475816328E+03  0.58215347139E+03  0.62003623495E+03  0.00000000000E+00 0.  1.
        -13    1    3    3    0    0 -0.33965255767E+02 -0.72554859038E+02  0.41537029600E+03  0.42302521080E+03  0.00000000000E+00 0. -1.
         22    1    1    2    0    0  0.16960085594E+03  0.23731302232E+03 -0.16709695131E+04  0.16962373167E+04  0.00000000000E+00 0. -1.
<mgrwt>
<rscale>  0 0.26552266E+04</rscale>
<asrwt>0</asrwt>
<pdfrwt beam="1">  1        2 0.26251881E+00 0.26552266E+04</pdfrwt>
<pdfrwt beam="2">  1       -2 0.15891177E+00 0.26552266E+04</pdfrwt>
<totfact> 0.21982948E+00</totfact>
</mgrwt>
</event>
<event>
 6    1  0.2236204E-005  0.1811963E+04  0.7818608E-02  0.8699963E-01
         -1   -1    0    0    0  501 -0.00000000000E+00  0.00000000000E+00  0.97077614683E+03  0.97077614683E+03  0.00000000000E+00 0.  1.
          1   -1    0    0  501    0  0.00000000000E+00 -0.00000000000E+00 -0.84551157938E+03  0.84551157938E+03  0.00000000000E+00 0. -1.
         23    2    1    2    0    0 -0.78437301653E+03 -0.33679790622E+03  0.35980582540E+03  0.93102874694E+03  0.93168862555E+02 0.  0.
         11    1    3    3    0    0 -0.27934269282E+03 -0.16728754051E+03  0.14981283546E+03  0.35841504839E+03  0.00000000000E+00 0.  1.
        -11    1    3    3    0    0 -0.50503032371E+03 -0.16951036570E+03  0.20999298993E+03  0.57261369855E+03  0.00000000000E+00 0. -1.
         22    1    1    2    0    0  0.78437301653E+03  0.33679790622E+03 -0.23454125794E+03  0.88525897927E+03  0.00000000000E+00 0. -1.
<mgrwt>
<rscale>  0 0.18119630E+04</rscale>
<asrwt>0</asrwt>
<pdfrwt beam="1">  1        1 0.13007871E+00 0.18119630E+04</pdfrwt>
<pdfrwt beam="2">  1       -1 0.14935018E+00 0.18119630E+04</pdfrwt>
<totfact> 0.67236668E+00</totfact>
</mgrwt>
</event>
<event>
 6    1  0.2236204E-005  0.3455007E+04  0.7818608E-02  0.8124536E-01
         -2   -1    0    0    0  501 -0.00000000000E+00  0.00000000000E+00  0.15538603476E+04  0.15538603476E+04  0.00000000000E+00 0.  1.
          2   -1    0    0  501    0  0.00000000000E+00 -0.00000000000E+00 -0.19205510482E+04  0.19205510482E+04  0.00000000000E+00 0. -1.
         23    2    1    2    0    0 -0.11083225992E+04  0.52728411712E+03  0.10374039616E+04  0.16095013861E+04  0.88770536764E+02 0.  0.
         11    1    3    3    0    0 -0.44018912458E+03  0.23765060710E+03  0.46906321149E+03  0.68575839246E+03  0.00000000000E+00 0. -1.
        -11    1    3    3    0    0 -0.66813347462E+03  0.28963351001E+03  0.56834075008E+03  0.92374299360E+03  0.00000000000E+00 0.  1.
         22    1    1    2    0    0  0.11083225992E+04 -0.52728411712E+03 -0.14040946622E+04  0.18649100098E+04  0.00000000000E+00 0. -1.
<mgrwt>
<rscale>  0 0.34550069E+04</rscale>
<asrwt>0</asrwt>
<pdfrwt beam="1">  1        2 0.29546939E+00 0.34550069E+04</pdfrwt>
<pdfrwt beam="2">  1       -2 0.23905544E+00 0.34550069E+04</pdfrwt>
<totfact> 0.45803368E-01</totfact>
</mgrwt>
</event>
<event>
 6    1  0.2236204E-005  0.4920570E+04  0.7818608E-02  0.7840878E-01
         -2   -1    0    0    0  501 -0.00000000000E+00  0.00000000000E+00  0.21077965293E+04  0.21077965293E+04  0.00000000000E+00 0.  1.
          2   -1    0    0  501    0  0.00000000000E+00 -0.00000000000E+00 -0.28717209595E+04  0.28717209595E+04  0.00000000000E+00 0. -1.
         23    2    1    2    0    0  0.18772986308E+04  0.11620222998E+04 -0.14785811021E+04  0.26588968535E+04  0.94786222490E+02 0.  0.
         13    1    3    3    0    0  0.46497766572E+03  0.24192416978E+03 -0.33860978670E+03  0.62400971242E+03  0.00000000000E+00 0.  1.
        -13    1    3    3    0    0  0.14123209650E+04  0.92009813001E+03 -0.11399713154E+04  0.20348871411E+04  0.00000000000E+00 0. -1.
         22    1    1    2    0    0 -0.18772986308E+04 -0.11620222998E+04  0.71465667191E+03  0.23206206353E+04  0.00000000000E+00 0.  1.
<mgrwt>
<rscale>  0 0.49205705E+04</rscale>
<asrwt>0</asrwt>
<pdfrwt beam="1">  1        2 0.44180322E+00 0.49205705E+04</pdfrwt>
<pdfrwt beam="2">  1       -2 0.32427639E+00 0.49205705E+04</pdfrwt>
<totfact> 0.34503572E-02</totfact>
</mgrwt>
</event>
<event>
 6    1  0.2236204E-005  0.4725132E+04  0.7818608E-02  0.7872366E-01
          2   -1    0    0  501    0  0.00000000000E+00  0.00000000000E+00  0.18345791480E+04  0.18345791480E+04  0.00000000000E+00 0. -1.
         -2   -1    0    0    0  501 -0.00000000000E+00 -0.00000000000E+00 -0.30425056016E+04  0.30425056016E+04  0.00000000000E+00 0.  1.
         23    2    1    2    0    0 -0.12998190825E+04 -0.95339242015E+03 -0.23856986731E+04  0.28806794413E+04  0.90934759058E+02 0.  0.
         11    1    3    3    0    0 -0.10866279967E+04 -0.75977964838E+03 -0.19907404690E+04  0.23918764877E+04  0.00000000000E+00 0. -1.
        -11    1    3    3    0    0 -0.21319108586E+03 -0.19361277177E+03 -0.39495820406E+03  0.48880295359E+03  0.00000000000E+00 0.  1.
         22    1    1    2    0    0  0.12998190825E+04  0.95339242015E+03  0.11777722194E+04  0.19964053083E+04  0.00000000000E+00 0. -1.
<mgrwt>
<rscale>  0 0.47251317E+04</rscale>
<asrwt>0</asrwt>
<pdfrwt beam="1">  1        2 0.28224295E+00 0.47251317E+04</pdfrwt>
<pdfrwt beam="2">  1       -2 0.46807778E+00 0.47251317E+04</pdfrwt>
<totfact> 0.16261223E-02</totfact>
</mgrwt>
</event>
<event>
 6    1  0.2236204E-005  0.3344289E+04  0.7818608E-02  0.8151717E-01
          1   -1    0    0  501    0  0.00000000000E+00  0.00000000000E+00  0.18856823614E+04  0.18856823614E+04  0.00000000000E+00 0. -1.
         -1   -1    0    0    0  501 -0.00000000000E+00 -0.00000000000E+00 -0.14827882746E+04  0.14827882746E+04  0.00000000000E+00 0.  1.
         23    2    1    2    0    0  0.46696290257E+03  0.60653384545E+02  0.18163338162E+04  0.18786568711E+04  0.92465789675E+02 0.  0.
         11    1    3    3    0    0  0.39640136815E+03  0.47832622591E+02  0.16480769458E+04  0.16957534089E+04  0.00000000000E+00 0.  1.
        -11    1    3    3    0    0  0.70561534420E+02  0.12820761954E+02  0.16825687035E+03  0.18290346224E+03  0.00000000000E+00 0. -1.
         22    1    1    2    0    0 -0.46696290257E+03 -0.60653384545E+02 -0.14134397294E+04  0.14898137649E+04  0.00000000000E+00 0.  1.
<mgrwt>
<rscale>  0 0.33442893E+04</rscale>
<asrwt>0</asrwt>
<pdfrwt beam="1">  1        1 0.29010498E+00 0.33442893E+04</pdfrwt>
<pdfrwt beam="2">  1       -1 0.22812127E+00 0.33442893E+04</pdfrwt>
<totfact> 0.28610322E-01</totfact>
</mgrwt>
</event>
<event>
 6    1  0.2236204E-005  0.1308059E+04  0.7818608E-02  0.9023198E-01
          2   -1    0    0  501    0  0.00000000000E+00  0.00000000000E+00  0.15615668316E+04  0.15615668316E+04  0.00000000000E+00 0. -1.
         -2   -1    0    0    0  501 -0.00000000000E+00 -0.00000000000E+00 -0.27392668278E+03  0.27392668278E+03  0.00000000000E+00 0.  1.
         23    2    1    2    0    0 -0.14194179460E+03  0.13041476719E+02  0.15380590945E+04  0.15473491035E+04  0.91355988956E+02 0.  0.
         11    1    3    3    0    0 -0.49959715895E+02  0.48229078668E+02  0.73528109073E+03  0.73855284146E+03  0.00000000000E+00 0. -1.
        -11    1    3    3    0    0 -0.91982078710E+02 -0.35187601949E+02  0.80277800380E+03  0.80879626206E+03  0.00000000000E+00 0.  1.
         22    1    1    2    0    0  0.14194179460E+03 -0.13041476719E+02 -0.25041894568E+03  0.28814441089E+03  0.00000000000E+00 0.  1.
<mgrwt>
<rscale>  0 0.13080594E+04</rscale>
<asrwt>0</asrwt>
<pdfrwt beam="1">  1        2 0.24024104E+00 0.13080594E+04</pdfrwt>
<pdfrwt beam="2">  1       -2 0.42142568E-01 0.13080594E+04</pdfrwt>
<totfact> 0.61247223E+01</totfact>
</mgrwt>
</event>
<event>
 6    1  0.2236204E-005  0.1816906E+04  0.7818608E-02  0.8697360E-01
         -2   -1    0    0    0  501 -0.00000000000E+00  0.00000000000E+00  0.45307596250E+03  0.45307596250E+03  0.00000000000E+00 0.  1.
          2   -1    0    0  501    0  0.00000000000E+00 -0.00000000000E+00 -0.18215208023E+04  0.18215208023E+04  0.00000000000E+00 0. -1.
         23    2    1    2    0    0 -0.55344270218E+03 -0.65846749968E+03 -0.32918875308E+03  0.92554840149E+03  0.91631520863E+02 0.  0.
         11    1    3    3    0    0 -0.17269815879E+03 -0.17095541349E+03 -0.13061916934E+03  0.27588362556E+03  0.00000000000E+00 0. -1.
        -11    1    3    3    0    0 -0.38074454340E+03 -0.48751208618E+03 -0.19856958373E+03  0.64966477593E+03  0.00000000000E+00 0.  1.
         22    1    1    2    0    0  0.55344270218E+03  0.65846749968E+03 -0.10392560867E+04  0.13490483633E+04  0.00000000000E+00 0.  1.
<mgrwt>
<rscale>  0 0.18169065E+04</rscale>
<asrwt>0</asrwt>
<pdfrwt beam="1">  1        2 0.28023397E+00 0.18169065E+04</pdfrwt>
<pdfrwt beam="2">  1       -2 0.69703995E-01 0.18169065E+04</pdfrwt>
<totfact> 0.14847647E+01</totfact>
</mgrwt>
</event>
<event>
 6    1  0.2236204E-005  0.2721642E+04  0.7818608E-02  0.8328017E-01
         -2   -1    0    0    0  501 -0.00000000000E+00  0.00000000000E+00  0.64050799816E+03  0.64050799816E+03  0.00000000000E+00 0.  1.
          2   -1    0    0  501    0  0.00000000000E+00 -0.00000000000E+00 -0.28911943912E+04  0.28911943912E+04  0.00000000000E+00 0. -1.
         23    2    1    2    0    0  0.12931335274E+04 -0.27007129654E+02 -0.58376466428E+03  0.14218323094E+04  0.88894476556E+02 0.  0.
         13    1    3    3    0    0  0.10281704132E+04 -0.29606045730E+02 -0.42505023695E+03  0.11129593975E+04  0.00000000000E+00 0. -1.
        -13    1    3    3    0    0  0.26496311419E+03  0.25989160758E+01 -0.15871442732E+03  0.30887291187E+03  0.00000000000E+00 0.  1.
         22    1    1    2    0    0 -0.12931335274E+04  0.27007129654E+02 -0.16669217287E+04  0.21098700800E+04  0.00000000000E+00 0. -1.
<mgrwt>
<rscale>  0 0.27216415E+04</rscale>
<asrwt>0</asrwt>
<pdfrwt beam="1">  1        2 0.44479915E+00 0.27216415E+04</pdfrwt>
<pdfrwt beam="2">  1       -2 0.98539690E-01 0.27216415E+04</pdfrwt>
<totfact> 0.15231494E+00</totfact>
</mgrwt>
</event>
<event>
 6    1  0.2236204E-005  0.1732945E+04  0.7818608E-02  0.8742795E-01
          2   -1    0    0  501    0  0.00000000000E+00  0.00000000000E+00  0.21757190862E+04  0.21757190862E+04  0.00000000000E+00 0. -1.
         -2   -1    0    0    0  501 -0.00000000000E+00 -0.00000000000E+00 -0.34506958031E+03  0.34506958031E+03  0.00000000000E+00 0.  1.
         23    2    1    2    0    0 -0.37914244222E+03 -0.36127937385E+03  0.19175472646E+04  0.19899186279E+04  0.92286815023E+02 0.  0.
         11    1    3    3    0    0 -0.21748473015E+03 -0.24367009722E+03  0.13204574915E+04  0.13602509735E+04  0.00000000000E+00 0.  1.
        -11    1    3    3    0    0 -0.16165771207E+03 -0.11760927663E+03  0.59708977310E+03  0.62966765437E+03  0.00000000000E+00 0. -1.
         22    1    1    2    0    0  0.37914244222E+03  0.36127937385E+03 -0.86897758686E+02  0.53087003864E+03  0.00000000000E+00 0.  1.
<mgrwt>
<rscale>  0 0.17329449E+04</rscale>
<asrwt>0</asrwt>
<pdfrwt beam="1">  1        2 0.33472600E+00 0.17329449E+04</pdfrwt>
<pdfrwt beam="2">  1       -2 0.53087629E-01 0.17329449E+04</pdfrwt>
<totfact> 0.16927886E+01</totfact>
</mgrwt>
</event>
<event>
 6    1  0.2236204E-005  0.5340053E+03  0.7818608E-02  0.1005265E+00
          2   -1    0    0  501    0  0.00000000000E+00  0.00000000000E+00  0.13708720890E+04  0.13708720890E+04  0.00000000000E+00 0. -1.
         -2   -1    0    0    0  501 -0.00000000000E+00 -0.00000000000E+00 -0.52003688269E+02  0.52003688269E+02  0.00000000000E+00 0.  1.
         23    2    1    2    0    0  0.21345145310E+03 -0.14309715525E+03  0.76675013028E+03  0.81388242489E+03  0.91981088251E+02 0.  0.
         11    1    3    3    0    0  0.13542807617E+03 -0.36108790861E+02  0.41537803507E+03  0.43838740927E+03  0.00000000000E+00 0. -1.
        -11    1    3    3    0    0  0.78023376929E+02 -0.10698836439E+03  0.35137209521E+03  0.37549501562E+03  0.00000000000E+00 0.  1.
         22    1    1    2    0    0 -0.21345145310E+03  0.14309715525E+03  0.55211827046E+03  0.60899335238E+03  0.00000000000E+00 0. -1.
<mgrwt>
<rscale>  0 0.53400526E+03</rscale>
<asrwt>0</asrwt>
<pdfrwt beam="1">  1        2 0.21090337E+00 0.53400526E+03</pdfrwt>
<pdfrwt beam="2">  1       -2 0.80005684E-02 0.53400526E+03</pdfrwt>
<totfact> 0.15033712E+03</totfact>
</mgrwt>
</event>
<event>
 6    1  0.2236204E-005  0.1512450E+04  0.7818608E-02  0.8876216E-01
         -2   -1    0    0    0  501 -0.00000000000E+00  0.00000000000E+00  0.37691637063E+03  0.37691637063E+03  0.00000000000E+00 0. -1.
          2   -1    0    0  501    0  0.00000000000E+00 -0.00000000000E+00 -0.15172505141E+04  0.15172505141E+04  0.00000000000E+00 0.  1.
         23    2    1    2    0    0  0.17467830502E+03 -0.36719656232E+03 -0.13666439748E+04  0.14288046974E+04  0.91767551914E+02 0.  0.
         11    1    3    3    0    0  0.14174023892E+03 -0.22677799561E+03 -0.77535354430E+03  0.82017783028E+03  0.00000000000E+00 0.  1.
        -11    1    3    3    0    0  0.32938066100E+02 -0.14041856671E+03 -0.59129043055E+03  0.60862686708E+03  0.00000000000E+00 0. -1.
         22    1    1    2    0    0 -0.17467830502E+03  0.36719656232E+03  0.22630983141E+03  0.46536218735E+03  0.00000000000E+00 0. -1.
<mgrwt>
<rscale>  0 0.15124504E+04</rscale>
<asrwt>0</asrwt>
<pdfrwt beam="1">  1        2 0.23342316E+00 0.15124504E+04</pdfrwt>
<pdfrwt beam="2">  1       -2 0.57987133E-01 0.15124504E+04</pdfrwt>
<totfact> 0.33342835E+01</totfact>
</mgrwt>
</event>
<event>
 6    1  0.2236204E-005  0.1733270E+04  0.7818608E-02  0.8742614E-01
         -1   -1    0    0    0  501 -0.00000000000E+00  0.00000000000E+00  0.36474633367E+03  0.36474633367E+03  0.00000000000E+00 0.  1.
          1   -1    0    0  501    0  0.00000000000E+00 -0.00000000000E+00 -0.20591185258E+04  0.20591185258E+04  0.00000000000E+00 0. -1.
         23    2    1    2    0    0  0.24023842892E+03 -0.76863836797E+03 -0.41089455452E+03  0.90866378711E+03  0.91192651166E+02 0.  0.
         11    1    3    3    0    0  0.32688353469E+02 -0.91124253439E+02 -0.18108598135E+02  0.98488980824E+02  0.00000000000E+00 0.  1.
        -11    1    3    3    0    0  0.20755007545E+03 -0.67751411453E+03 -0.39278595639E+03  0.81017480628E+03  0.00000000000E+00 0. -1.
         22    1    1    2    0    0 -0.24023842892E+03  0.76863836797E+03 -0.12834776377E+04  0.15152010724E+04  0.00000000000E+00 0.  1.
<mgrwt>
<rscale>  0 0.17332697E+04</rscale>
<asrwt>0</asrwt>
<pdfrwt beam="1">  1        1 0.31678746E+00 0.17332697E+04</pdfrwt>
<pdfrwt beam="2">  1       -1 0.56114821E-01 0.17332697E+04</pdfrwt>
<totfact> 0.82862317E+00</totfact>
</mgrwt>
</event>
<event>
 6    1  0.2236204E-005  0.3358297E+04  0.7818608E-02  0.8148218E-01
          2   -1    0    0  501    0  0.00000000000E+00  0.00000000000E+00  0.20197838240E+04  0.20197838240E+04  0.00000000000E+00 0. -1.
         -2   -1    0    0    0  501 -0.00000000000E+00 -0.00000000000E+00 -0.13959612846E+04  0.13959612846E+04  0.00000000000E+00 0.  1.
         23    2    1    2    0    0  0.10937181052E+03 -0.79757103505E+03 -0.11852353174E+04  0.14356511517E+04  0.90717820563E+02 0.  0.
         13    1    3    3    0    0  0.11221050072E+03 -0.49834591911E+03 -0.75643832116E+03  0.91276436460E+03  0.00000000000E+00 0. -1.
        -13    1    3    3    0    0 -0.28386902002E+01 -0.29922511594E+03 -0.42879699623E+03  0.52288678713E+03  0.00000000000E+00 0.  1.
         22    1    1    2    0    0 -0.10937181052E+03  0.79757103505E+03  0.18090578568E+04  0.19800939569E+04  0.00000000000E+00 0. -1.
<mgrwt>
<rscale>  0 0.33582972E+04</rscale>
<asrwt>0</asrwt>
<pdfrwt beam="1">  1        2 0.31073597E+00 0.33582972E+04</pdfrwt>
<pdfrwt beam="2">  1       -2 0.21476328E+00 0.33582972E+04</pdfrwt>
<totfact> 0.57790648E-01</totfact>
</mgrwt>
</event>
<event>
 6    1  0.2236204E-005  0.8538319E+03  0.7818608E-02  0.9485208E-01
         -2   -1    0    0    0  501 -0.00000000000E+00  0.00000000000E+00  0.16240461614E+03  0.16240461614E+03  0.00000000000E+00 0. -1.
          2   -1    0    0  501    0  0.00000000000E+00 -0.00000000000E+00 -0.11222416385E+04  0.11222416385E+04  0.00000000000E+00 0.  1.
         23    2    1    2    0    0  0.74141688408E+02 -0.67212965344E+02 -0.11021955492E+04  0.11106332584E+04  0.93041031170E+02 0.  0.
         13    1    3    3    0    0  0.92522068270E+02 -0.72360950473E+02 -0.93306248490E+03  0.94042652079E+03  0.00000000000E+00 0.  1.
        -13    1    3    3    0    0 -0.18380379862E+02  0.51479851284E+01 -0.16913306425E+03  0.17020673764E+03  0.00000000000E+00 0. -1.
         22    1    1    2    0    0 -0.74141688408E+02  0.67212965344E+02  0.14235852684E+03  0.17401299617E+03  0.00000000000E+00 0. -1.
<mgrwt>
<rscale>  0 0.85383189E+03</rscale>
<asrwt>0</asrwt>
<pdfrwt beam="1">  1        2 0.17265257E+00 0.85383189E+03</pdfrwt>
<pdfrwt beam="2">  1       -2 0.24985325E-01 0.85383189E+03</pdfrwt>
<totfact> 0.30393256E+02</totfact>
</mgrwt>
</event>
<event>
 6    1  0.2236204E-005  0.1345729E+04  0.7818608E-02  0.8994068E-01
         -2   -1    0    0    0  501 -0.00000000000E+00  0.00000000000E+00  0.43901823103E+03  0.43901823103E+03  0.00000000000E+00 0. -1.
          2   -1    0    0  501    0  0.00000000000E+00 -0.00000000000E+00 -0.10312701413E+04  0.10312701413E+04  0.00000000000E+00 0.  1.
         23    2    1    2    0    0  0.41212539037E+02 -0.50091623095E+03  0.18904323307E+03  0.54129017815E+03  0.68133466057E+02 0.  0.
         11    1    3    3    0    0  0.13590534290E+02 -0.43397937263E+03  0.17109767226E+03  0.46668748852E+03  0.00000000000E+00 0. -1.
        -11    1    3    3    0    0  0.27622004747E+02 -0.66936858319E+02  0.17945560812E+02  0.74602689635E+02  0.00000000000E+00 0.  1.
         22    1    1    2    0    0 -0.41212539037E+02  0.50091623095E+03 -0.78129514336E+03  0.92899819421E+03  0.00000000000E+00 0.  1.
<mgrwt>
<rscale>  0 0.13457286E+04</rscale>
<asrwt>0</asrwt>
<pdfrwt beam="1">  1        2 0.15865694E+00 0.13457286E+04</pdfrwt>
<pdfrwt beam="2">  1       -2 0.67541267E-01 0.13457286E+04</pdfrwt>
<totfact> 0.47240154E+01</totfact>
</mgrwt>
</event>
<event>
 6    1  0.2236204E-005  0.2940984E+04  0.7818608E-02  0.8260787E-01
         -2   -1    0    0    0  501 -0.00000000000E+00  0.00000000000E+00  0.19171297732E+04  0.19171297732E+04  0.00000000000E+00 0. -1.
          2   -1    0    0  501    0  0.00000000000E+00 -0.00000000000E+00 -0.11279082991E+04  0.11279082991E+04  0.00000000000E+00 0.  1.
         23    2    1    2    0    0 -0.10047452184E+03  0.99794826672E+03  0.15063405291E+04  0.18120516119E+04  0.92050975098E+02 0.  0.
         13    1    3    3    0    0 -0.41193920743E+02  0.49128705668E+03  0.82188798467E+03  0.95841523908E+03  0.00000000000E+00 0. -1.
        -13    1    3    3    0    0 -0.59280601099E+02  0.50666121004E+03  0.68445254442E+03  0.85363637281E+03  0.00000000000E+00 0.  1.
         22    1    1    2    0    0  0.10047452184E+03 -0.99794826672E+03 -0.71711905503E+03  0.12329864605E+04  0.00000000000E+00 0.  1.
<mgrwt>
<rscale>  0 0.29409839E+04</rscale>
<asrwt>0</asrwt>
<pdfrwt beam="1">  1        2 0.17352435E+00 0.29409839E+04</pdfrwt>
<pdfrwt beam="2">  1       -2 0.29494304E+00 0.29409839E+04</pdfrwt>
<totfact> 0.61478889E-01</totfact>
</mgrwt>
</event>
<event>
 6    1  0.2236204E-005  0.2136125E+04  0.7818608E-02  0.8545495E-01
         -2   -1    0    0    0  501 -0.00000000000E+00  0.00000000000E+00  0.31577787520E+03  0.31577787520E+03  0.00000000000E+00 0.  1.
          2   -1    0    0  501    0  0.00000000000E+00 -0.00000000000E+00 -0.36125320180E+04  0.36125320180E+04  0.00000000000E+00 0. -1.
         23    2    1    2    0    0  0.78407812603E+03  0.10769772136E+03 -0.29651195160E+04  0.30701963619E+04  0.88287313265E+02 0.  0.
         13    1    3    3    0    0  0.55744386868E+03  0.39319974478E+02 -0.21443572697E+04  0.22159778490E+04  0.00000000000E+00 0. -1.
        -13    1    3    3    0    0  0.22663425735E+03  0.68377746878E+02 -0.82076224623E+03  0.85421851286E+03  0.00000000000E+00 0.  1.
         22    1    1    2    0    0 -0.78407812603E+03 -0.10769772136E+03 -0.33163462685E+03  0.85811353132E+03  0.00000000000E+00 0.  1.
<mgrwt>
<rscale>  0 0.21361252E+04</rscale>
<asrwt>0</asrwt>
<pdfrwt beam="1">  1        2 0.55577415E+00 0.21361252E+04</pdfrwt>
<pdfrwt beam="2">  1       -2 0.48581213E-01 0.21361252E+04</pdfrwt>
<totfact> 0.25055599E+00</totfact>
</mgrwt>
</event>
<event>
 6    1  0.2236204E-005  0.2421374E+04  0.7818608E-02  0.8431545E-01
          2   -1    0    0  501    0  0.00000000000E+00  0.00000000000E+00  0.15879587718E+04  0.15879587718E+04  0.00000000000E+00 0. -1.
         -2   -1    0    0    0  501 -0.00000000000E+00 -0.00000000000E+00 -0.92304864259E+03  0.92304864259E+03  0.00000000000E+00 0.  1.
         23    2    1    2    0    0 -0.85300890395E+02  0.69436254021E+03 -0.68949550693E+03  0.98659598489E+03  0.92477046729E+02 0.  0.
         13    1    3    3    0    0 -0.16088342900E+02  0.48286809170E+03 -0.47267337112E+03  0.67589980361E+03  0.00000000000E+00 0. -1.
        -13    1    3    3    0    0 -0.69212547495E+02  0.21149444851E+03 -0.21682213582E+03  0.31069618128E+03  0.00000000000E+00 0.  1.
         22    1    1    2    0    0  0.85300890395E+02 -0.69436254021E+03  0.13544056362E+04  0.15244114295E+04  0.00000000000E+00 0. -1.
<mgrwt>
<rscale>  0 0.24213741E+04</rscale>
<asrwt>0</asrwt>
<pdfrwt beam="1">  1        2 0.24430135E+00 0.24213741E+04</pdfrwt>
<pdfrwt beam="2">  1       -2 0.14200748E+00 0.24213741E+04</pdfrwt>
<totfact> 0.35192589E+00</totfact>
</mgrwt>
</event>
<event>
 6    1  0.2236204E-005  0.2126813E+04  0.7818608E-02  0.8549523E-01
          2   -1    0    0  501    0  0.00000000000E+00  0.00000000000E+00  0.24613304310E+04  0.24613304310E+04  0.00000000000E+00 0. -1.
         -2   -1    0    0    0  501 -0.00000000000E+00 -0.00000000000E+00 -0.45943977406E+03  0.45943977406E+03  0.00000000000E+00 0.  1.
         23    2    1    2    0    0  0.30748855746E+03 -0.96918995084E+03  0.14223952464E+04  0.17504312351E+04  0.83203953946E+02 0.  0.
         13    1    3    3    0    0  0.18432155664E+02 -0.95116861955E+02  0.17587365816E+03  0.20079468475E+03  0.00000000000E+00 0. -1.
        -13    1    3    3    0    0  0.28905640180E+03 -0.87407308888E+03  0.12465215883E+04  0.15496365503E+04  0.00000000000E+00 0.  1.
         22    1    1    2    0    0 -0.30748855746E+03  0.96918995084E+03  0.57949541050E+03  0.11703389699E+04  0.00000000000E+00 0. -1.
<mgrwt>
<rscale>  0 0.21268127E+04</rscale>
<asrwt>0</asrwt>
<pdfrwt beam="1">  1        2 0.37866621E+00 0.21268127E+04</pdfrwt>
<pdfrwt beam="2">  1       -2 0.70683044E-01 0.21268127E+04</pdfrwt>
<totfact> 0.61344802E+00</totfact>
</mgrwt>
</event>
<event>
 6    1  0.2236204E-005  0.1022993E+04  0.7818608E-02  0.9283680E-01
         -2   -1    0    0    0  501 -0.00000000000E+00  0.00000000000E+00  0.21399701640E+03  0.21399701640E+03  0.00000000000E+00 0.  1.
          2   -1    0    0  501    0  0.00000000000E+00 -0.00000000000E+00 -0.12225808527E+04  0.12225808527E+04  0.00000000000E+00 0. -1.
         23    2    1    2    0    0  0.48223255776E+03  0.14639134384E+03 -0.59008991284E+03  0.78150853743E+03  0.92578742276E+02 0.  0.
         11    1    3    3    0    0  0.14870048264E+03  0.83491882460E+02 -0.16224986826E+03  0.23538850381E+03  0.00000000000E+00 0. -1.
        -11    1    3    3    0    0  0.33353207512E+03  0.62899461384E+02 -0.42784004458E+03  0.54612003362E+03  0.00000000000E+00 0.  1.
         22    1    1    2    0    0 -0.48223255776E+03 -0.14639134384E+03 -0.41849392347E+03  0.65506933167E+03  0.00000000000E+00 0.  1.
<mgrwt>
<rscale>  0 0.10229930E+04</rscale>
<asrwt>0</asrwt>
<pdfrwt beam="1">  1        2 0.18808936E+00 0.10229930E+04</pdfrwt>
<pdfrwt beam="2">  1       -2 0.32922618E-01 0.10229930E+04</pdfrwt>
<totfact> 0.15741973E+02</totfact>
</mgrwt>
</event>
<event>
 6    1  0.2236204E-005  0.4490660E+04  0.7818608E-02  0.7912274E-01
         -2   -1    0    0    0  501 -0.00000000000E+00  0.00000000000E+00  0.38063691321E+04  0.38063691321E+04  0.00000000000E+00 0.  1.
          2   -1    0    0  501    0  0.00000000000E+00 -0.00000000000E+00 -0.13244922319E+04  0.13244922319E+04  0.00000000000E+00 0. -1.
         23    2    1    2    0    0 -0.11489432713E+04 -0.12153759237E+04 -0.46850422906E+03  0.17394076810E+04  0.93987187054E+02 0.  0.
         13    1    3    3    0    0 -0.49489793826E+03 -0.51315442785E+03 -0.15210868500E+03  0.72896398277E+03  0.00000000000E+00 0.  1.
        -13    1    3    3    0    0 -0.65404533307E+03 -0.70222149587E+03 -0.31639554406E+03  0.10104436982E+04  0.00000000000E+00 0. -1.
         22    1    1    2    0    0  0.11489432713E+04  0.12153759237E+04  0.29503811292E+04  0.33914536831E+04  0.00000000000E+00 0.  1.
<mgrwt>
<rscale>  0 0.44906598E+04</rscale>
<asrwt>0</asrwt>
<pdfrwt beam="1">  1        2 0.20376804E+00 0.44906598E+04</pdfrwt>
<pdfrwt beam="2">  1       -2 0.58559525E+00 0.44906598E+04</pdfrwt>
<totfact> 0.70866946E-03</totfact>
</mgrwt>
</event>
<event>
 6    1  0.2236204E-005  0.1242909E+04  0.7818608E-02  0.9076106E-01
         -2   -1    0    0    0  501 -0.00000000000E+00  0.00000000000E+00  0.16706152423E+03  0.16706152423E+03  0.00000000000E+00 0.  1.
          2   -1    0    0  501    0  0.00000000000E+00 -0.00000000000E+00 -0.23117583851E+04  0.23117583851E+04  0.00000000000E+00 0. -1.
         23    2    1    2    0    0  0.46328086258E+03  0.21360770694E+03 -0.38094947582E+03  0.64277463528E+03  0.88200445200E+02 0.  0.
         13    1    3    3    0    0  0.27458785346E+03  0.16420616317E+03 -0.20419766677E+03  0.37955084034E+03  0.00000000000E+00 0.  1.
        -13    1    3    3    0    0  0.18869300912E+03  0.49401543769E+02 -0.17675180905E+03  0.26322379494E+03  0.00000000000E+00 0. -1.
         22    1    1    2    0    0 -0.46328086258E+03 -0.21360770694E+03 -0.17637473850E+04  0.18360452740E+04  0.00000000000E+00 0. -1.
<mgrwt>
<rscale>  0 0.12429093E+04</rscale>
<asrwt>0</asrwt>
<pdfrwt beam="1">  1        2 0.35565513E+00 0.12429093E+04</pdfrwt>
<pdfrwt beam="2">  1       -2 0.25701773E-01 0.12429093E+04</pdfrwt>
<totfact> 0.60138428E+01</totfact>
</mgrwt>
</event>
<event>
 6    1  0.2236204E-005  0.4077725E+04  0.7818608E-02  0.7989048E-01
         -2   -1    0    0    0  501 -0.00000000000E+00  0.00000000000E+00  0.19620771092E+04  0.19620771092E+04  0.00000000000E+00 0.  1.
          2   -1    0    0  501    0  0.00000000000E+00 -0.00000000000E+00 -0.21186532536E+04  0.21186532536E+04  0.00000000000E+00 0. -1.
         23    2    1    2    0    0 -0.40097831056E+03  0.17869028085E+04  0.81615063569E+03  0.20070855906E+04  0.92116531726E+02 0.  0.
         11    1    3    3    0    0 -0.21829278836E+03  0.95736542180E+03  0.38738404244E+03  0.10555883140E+04  0.00000000000E+00 0. -1.
        -11    1    3    3    0    0 -0.18268552220E+03  0.82953738666E+03  0.42876659325E+03  0.95149727659E+03  0.00000000000E+00 0.  1.
         22    1    1    2    0    0  0.40097831056E+03 -0.17869028085E+04 -0.97272678007E+03  0.20736447722E+04  0.00000000000E+00 0. -1.
<mgrwt>
<rscale>  0 0.40777254E+04</rscale>
<asrwt>0</asrwt>
<pdfrwt beam="1">  1        2 0.32594665E+00 0.40777254E+04</pdfrwt>
<pdfrwt beam="2">  1       -2 0.30185802E+00 0.40777254E+04</pdfrwt>
<totfact> 0.13923972E-01</totfact>
</mgrwt>
</event>
<event>
 6    1  0.2236204E-005  0.2948468E+04  0.7818608E-02  0.8258601E-01
          2   -1    0    0  501    0  0.00000000000E+00  0.00000000000E+00  0.95279704348E+03  0.95279704348E+03  0.00000000000E+00 0. -1.
         -2   -1    0    0    0  501 -0.00000000000E+00 -0.00000000000E+00 -0.22810375786E+04  0.22810375786E+04  0.00000000000E+00 0.  1.
         23    2    1    2    0    0 -0.22889957594E+03 -0.68709201669E+02 -0.22586933389E+04  0.22731794340E+04  0.92375156211E+02 0.  0.
         11    1    3    3    0    0 -0.12241829489E+03 -0.34599269769E+02 -0.16013058578E+04  0.16063510820E+04  0.00000000000E+00 0.  1.
        -11    1    3    3    0    0 -0.10648128105E+03 -0.34109931900E+02 -0.65738748109E+03  0.66682835195E+03  0.00000000000E+00 0. -1.
         22    1    1    2    0    0  0.22889957594E+03  0.68709201669E+02  0.93045280382E+03  0.96065518809E+03  0.00000000000E+00 0. -1.
<mgrwt>
<rscale>  0 0.29484680E+04</rscale>
<asrwt>0</asrwt>
<pdfrwt beam="1">  1        2 0.14658416E+00 0.29484680E+04</pdfrwt>
<pdfrwt beam="2">  1       -2 0.35092886E+00 0.29484680E+04</pdfrwt>
<totfact> 0.35665374E-01</totfact>
</mgrwt>
</event>
<event>
 6    1  0.2236204E-005  0.3469029E+04  0.7818608E-02  0.8121169E-01
         -2   -1    0    0    0  501 -0.00000000000E+00  0.00000000000E+00  0.17133255926E+04  0.17133255926E+04  0.00000000000E+00 0.  1.
          2   -1    0    0  501    0  0.00000000000E+00 -0.00000000000E+00 -0.17559650581E+04  0.17559650581E+04  0.00000000000E+00 0. -1.
         23    2    1    2    0    0  0.45787912796E+03  0.71191944783E+02 -0.16917396246E+04  0.17563245320E+04  0.89282223654E+02 0.  0.
         11    1    3    3    0    0  0.28529216307E+03  0.58160202292E+01 -0.11046369263E+04  0.11408979724E+04  0.00000000000E+00 0. -1.
        -11    1    3    3    0    0  0.17258696489E+03  0.65375924554E+02 -0.58710269834E+03  0.61542655968E+03  0.00000000000E+00 0.  1.
         22    1    1    2    0    0 -0.45787912796E+03 -0.71191944783E+02  0.16491001592E+04  0.17129661187E+04  0.00000000000E+00 0.  1.
<mgrwt>
<rscale>  0 0.34690286E+04</rscale>
<asrwt>0</asrwt>
<pdfrwt beam="1">  1        2 0.27014847E+00 0.34690286E+04</pdfrwt>
<pdfrwt beam="2">  1       -2 0.26358855E+00 0.34690286E+04</pdfrwt>
<totfact> 0.39890216E-01</totfact>
</mgrwt>
</event>
<event>
 6    1  0.2236204E-005  0.3306615E+04  0.7818608E-02  0.8161214E-01
          2   -1    0    0  501    0  0.00000000000E+00  0.00000000000E+00  0.31600693673E+04  0.31600693673E+04  0.00000000000E+00 0. -1.
         -2   -1    0    0    0  501 -0.00000000000E+00 -0.00000000000E+00 -0.86498914322E+03  0.86498914322E+03  0.00000000000E+00 0.  1.
         23    2    1    2    0    0  0.39419393696E+03  0.53842490988E+03 -0.69118864594E+03  0.96514151695E+03  0.92011738118E+02 0.  0.
         11    1    3    3    0    0  0.28139347438E+03  0.35769058735E+03 -0.41156513791E+03  0.61360468255E+03  0.00000000000E+00 0. -1.
        -11    1    3    3    0    0  0.11280046258E+03  0.18073432253E+03 -0.27962350803E+03  0.35153683441E+03  0.00000000000E+00 0.  1.
         22    1    1    2    0    0 -0.39419393696E+03 -0.53842490988E+03  0.29862688700E+04  0.30599169936E+04  0.00000000000E+00 0. -1.
<mgrwt>
<rscale>  0 0.33066150E+04</rscale>
<asrwt>0</asrwt>
<pdfrwt beam="1">  1        2 0.48616451E+00 0.33066150E+04</pdfrwt>
<pdfrwt beam="2">  1       -2 0.13307525E+00 0.33066150E+04</pdfrwt>
<totfact> 0.46985651E-01</totfact>
</mgrwt>
</event>
<event>
 6    1  0.2236204E-005  0.3232934E+04  0.7818608E-02  0.8180173E-01
          2   -1    0    0  501    0  0.00000000000E+00  0.00000000000E+00  0.42877027020E+04  0.42877027020E+04  0.00000000000E+00 0. -1.
         -2   -1    0    0    0  501 -0.00000000000E+00 -0.00000000000E+00 -0.60940930273E+03  0.60940930273E+03  0.00000000000E+00 0.  1.
         23    2    1    2    0    0  0.95904799975E+02  0.38286758472E+02  0.42822076140E+04  0.42844326552E+04  0.91637988274E+02 0.  0.
         11    1    3    3    0    0  0.63660567615E+02  0.68395205606E+02  0.30747741754E+04  0.30761935573E+04  0.00000000000E+00 0. -1.
        -11    1    3    3    0    0  0.32244232360E+02 -0.30108447134E+02  0.12074334386E+04  0.12082390979E+04  0.00000000000E+00 0.  1.
         22    1    1    2    0    0 -0.95904799975E+02 -0.38286758472E+02 -0.60391421476E+03  0.61267934952E+03  0.00000000000E+00 0.  1.
<mgrwt>
<rscale>  0 0.32329342E+04</rscale>
<asrwt>0</asrwt>
<pdfrwt beam="1">  1        2 0.65964655E+00 0.32329342E+04</pdfrwt>
<pdfrwt beam="2">  1       -2 0.93755280E-01 0.32329342E+04</pdfrwt>
<totfact> 0.15667137E-01</totfact>
</mgrwt>
</event>
<event>
 6    1  0.2236204E-005  0.1530497E+04  0.7818608E-02  0.8864422E-01
         -2   -1    0    0    0  501 -0.00000000000E+00  0.00000000000E+00  0.35934606162E+03  0.35934606162E+03  0.00000000000E+00 0.  1.
          2   -1    0    0  501    0  0.00000000000E+00 -0.00000000000E+00 -0.16296420569E+04  0.16296420569E+04  0.00000000000E+00 0. -1.
         23    2    1    2    0    0  0.64616641146E+03 -0.21435137993E+03 -0.19104490179E+03  0.71295502014E+03  0.91264236496E+02 0.  0.
         11    1    3    3    0    0  0.55294966997E+03 -0.21602267186E+03 -0.16466654326E+03  0.61606347298E+03  0.00000000000E+00 0.  1.
        -11    1    3    3    0    0  0.93216741490E+02  0.16712919332E+01 -0.26378358533E+02  0.96891547152E+02  0.00000000000E+00 0. -1.
         22    1    1    2    0    0 -0.64616641146E+03  0.21435137993E+03 -0.10792510935E+04  0.12760330984E+04  0.00000000000E+00 0.  1.
<mgrwt>
<rscale>  0 0.15304972E+04</rscale>
<asrwt>0</asrwt>
<pdfrwt beam="1">  1        2 0.25071416E+00 0.15304972E+04</pdfrwt>
<pdfrwt beam="2">  1       -2 0.55284010E-01 0.15304972E+04</pdfrwt>
<totfact> 0.31822293E+01</totfact>
</mgrwt>
</event>
<event>
 6    1  0.2236204E-005  0.1402687E+04  0.7818608E-02  0.8951876E-01
          1   -1    0    0  501    0  0.00000000000E+00  0.00000000000E+00  0.13123117347E+04  0.13123117347E+04  0.00000000000E+00 0. -1.
         -1   -1    0    0    0  501 -0.00000000000E+00 -0.00000000000E+00 -0.37482177329E+03  0.37482177329E+03  0.00000000000E+00 0.  1.
         23    2    1    2    0    0  0.29078691185E+03  0.76630913342E+02  0.12287636662E+04  0.12684812703E+04  0.93569550103E+02 0.  0.
         11    1    3    3    0    0  0.25593657361E+03  0.96231381528E+02  0.11093909895E+04  0.11425902048E+04  0.00000000000E+00 0.  1.
        -11    1    3    3    0    0  0.34850338235E+02 -0.19600468186E+02  0.11937267672E+03  0.12589106551E+03  0.00000000000E+00 0. -1.
         22    1    1    2    0    0 -0.29078691185E+03 -0.76630913342E+02 -0.29127370482E+03  0.41865223767E+03  0.00000000000E+00 0.  1.
<mgrwt>
<rscale>  0 0.14026874E+04</rscale>
<asrwt>0</asrwt>
<pdfrwt beam="1">  1        1 0.20189411E+00 0.14026874E+04</pdfrwt>
<pdfrwt beam="2">  1       -1 0.57664889E-01 0.14026874E+04</pdfrwt>
<totfact> 0.26320005E+01</totfact>
</mgrwt>
</event>
<event>
 6    1  0.2236204E-005  0.1859786E+04  0.7818608E-02  0.8675137E-01
         -2   -1    0    0    0  501 -0.00000000000E+00  0.00000000000E+00  0.37390565701E+03  0.37390565701E+03  0.00000000000E+00 0. -1.
          2   -1    0    0  501    0  0.00000000000E+00 -0.00000000000E+00 -0.23126175859E+04  0.23126175859E+04  0.00000000000E+00 0.  1.
         23    2    1    2    0    0  0.83998469594E+03 -0.38219626974E+03 -0.83442086419E+03  0.12473891166E+04  0.89850718080E+02 0.  0.
         13    1    3    3    0    0  0.80208521162E+03 -0.34570893657E+03 -0.77139675199E+03  0.11652932268E+04  0.00000000000E+00 0. -1.
        -13    1    3    3    0    0  0.37899484313E+02 -0.36487333177E+02 -0.63024112198E+02  0.82095889738E+02  0.00000000000E+00 0.  1.
         22    1    1    2    0    0 -0.83998469594E+03  0.38219626974E+03 -0.11042910647E+04  0.14391341263E+04  0.00000000000E+00 0.  1.
<mgrwt>
<rscale>  0 0.18597858E+04</rscale>
<asrwt>0</asrwt>
<pdfrwt beam="1">  1        2 0.35578732E+00 0.18597858E+04</pdfrwt>
<pdfrwt beam="2">  1       -2 0.57523948E-01 0.18597858E+04</pdfrwt>
<totfact> 0.11864838E+01</totfact>
</mgrwt>
</event>
<event>
 6    1  0.2236204E-005  0.2759432E+04  0.7818608E-02  0.8315975E-01
          2   -1    0    0  501    0  0.00000000000E+00  0.00000000000E+00  0.28156374421E+04  0.28156374421E+04  0.00000000000E+00 0. -1.
         -2   -1    0    0    0  501 -0.00000000000E+00 -0.00000000000E+00 -0.67608716573E+03  0.67608716573E+03  0.00000000000E+00 0.  1.
         23    2    1    2    0    0 -0.10877656620E+03  0.14051132815E+03  0.28003370170E+04  0.28074623107E+04  0.91550217411E+02 0.  0.
         11    1    3    3    0    0 -0.27965514551E+02  0.10495957446E+03  0.17809558639E+04  0.17842652189E+04  0.00000000000E+00 0.  1.
        -11    1    3    3    0    0 -0.80811051650E+02  0.35551753689E+02  0.10193811532E+04  0.10231970918E+04  0.00000000000E+00 0. -1.
         22    1    1    2    0    0  0.10877656620E+03 -0.14051132815E+03 -0.66078674065E+03  0.68426229716E+03  0.00000000000E+00 0.  1.
<mgrwt>
<rscale>  0 0.27594321E+04</rscale>
<asrwt>0</asrwt>
<pdfrwt beam="1">  1        2 0.43317498E+00 0.27594321E+04</pdfrwt>
<pdfrwt beam="2">  1       -2 0.10401341E+00 0.27594321E+04</pdfrwt>
<totfact> 0.14847163E+00</totfact>
</mgrwt>
</event>
<event>
 6    1  0.2236204E-005  0.2754367E+04  0.7818608E-02  0.8317577E-01
          2   -1    0    0  501    0  0.00000000000E+00  0.00000000000E+00  0.16514356063E+04  0.16514356063E+04  0.00000000000E+00 0. -1.
         -2   -1    0    0    0  501 -0.00000000000E+00 -0.00000000000E+00 -0.11484760195E+04  0.11484760195E+04  0.00000000000E+00 0.  1.
         23    2    1    2    0    0 -0.11865410003E+04  0.58968258256E+03  0.62760276428E+03  0.14690694054E+04  0.93137503964E+02 0.  0.
         13    1    3    3    0    0 -0.40037365057E+03  0.24263532803E+03  0.19793741407E+03  0.50828159751E+03  0.00000000000E+00 0. -1.
        -13    1    3    3    0    0 -0.78616734976E+03  0.34704725453E+03  0.42966535021E+03  0.96078780793E+03  0.00000000000E+00 0.  1.
         22    1    1    2    0    0  0.11865410003E+04 -0.58968258256E+03 -0.12464317748E+03  0.13308422203E+04  0.00000000000E+00 0. -1.
<mgrwt>
<rscale>  0 0.27543669E+04</rscale>
<asrwt>0</asrwt>
<pdfrwt beam="1">  1        2 0.25406702E+00 0.27543669E+04</pdfrwt>
<pdfrwt beam="2">  1       -2 0.17668862E+00 0.27543669E+04</pdfrwt>
<totfact> 0.17432839E+00</totfact>
</mgrwt>
</event>
<event>
 6    1  0.2236204E-005  0.1644333E+04  0.7818608E-02  0.8793766E-01
         -2   -1    0    0    0  501 -0.00000000000E+00  0.00000000000E+00  0.64985722943E+03  0.64985722943E+03  0.00000000000E+00 0.  1.
          2   -1    0    0  501    0  0.00000000000E+00 -0.00000000000E+00 -0.10401634297E+04  0.10401634297E+04  0.00000000000E+00 0. -1.
         23    2    1    2    0    0 -0.30712380681E+03  0.31866714739E+03  0.51331646403E+03  0.68383593306E+03  0.90906587063E+02 0.  0.
         11    1    3    3    0    0 -0.13518252295E+03  0.20251922994E+03  0.25642969957E+03  0.35361637946E+03  0.00000000000E+00 0. -1.
        -11    1    3    3    0    0 -0.17194128386E+03  0.11614791746E+03  0.25688676446E+03  0.33021955360E+03  0.00000000000E+00 0.  1.
         22    1    1    2    0    0  0.30712380681E+03 -0.31866714739E+03 -0.90362266427E+03  0.10061847260E+04  0.00000000000E+00 0. -1.
<mgrwt>
<rscale>  0 0.16443330E+04</rscale>
<asrwt>0</asrwt>
<pdfrwt beam="1">  1        2 0.16002514E+00 0.16443330E+04</pdfrwt>
<pdfrwt beam="2">  1       -2 0.99978036E-01 0.16443330E+04</pdfrwt>
<totfact> 0.18757988E+01</totfact>
</mgrwt>
</event>
<event>
 6    1  0.2236204E-005  0.7584817E+04  0.7818608E-02  0.7519956E-01
         -2   -1    0    0    0  501 -0.00000000000E+00  0.00000000000E+00  0.37181170018E+04  0.37181170018E+04  0.00000000000E+00 0.  1.
          2   -1    0    0  501    0  0.00000000000E+00 -0.00000000000E+00 -0.38681845498E+04  0.38681845498E+04  0.00000000000E+00 0. -1.
         23    2    1    2    0    0 -0.22425656212E+04 -0.29053698681E+04 -0.10281624311E+04  0.38125335063E+04  0.89549518523E+02 0.  0.
         11    1    3    3    0    0 -0.56534734480E+03 -0.79633670863E+03 -0.28017390113E+03  0.10160055062E+04  0.00000000000E+00 0. -1.
        -11    1    3    3    0    0 -0.16772182764E+04 -0.21090331595E+04 -0.74798852995E+03  0.27965280001E+04  0.00000000000E+00 0.  1.
         22    1    1    2    0    0  0.22425656212E+04  0.29053698681E+04  0.87809488302E+03  0.37737680453E+04  0.00000000000E+00 0.  1.
<mgrwt>
<rscale>  0 0.75848171E+04</rscale>
<asrwt>0</asrwt>
<pdfrwt beam="1">  1        2 0.59510532E+00 0.75848171E+04</pdfrwt>
<pdfrwt beam="2">  1       -2 0.57201800E+00 0.75848171E+04</pdfrwt>
<totfact> 0.17797353E-04</totfact>
</mgrwt>
</event>
<event>
 6    1  0.2236204E-005  0.2877742E+04  0.7818608E-02  0.8279531E-01
          2   -1    0    0  501    0  0.00000000000E+00  0.00000000000E+00  0.14192200187E+04  0.14192200187E+04  0.00000000000E+00 0. -1.
         -2   -1    0    0    0  501 -0.00000000000E+00 -0.00000000000E+00 -0.14587944935E+04  0.14587944935E+04  0.00000000000E+00 0.  1.
         23    2    1    2    0    0  0.85003299174E+02  0.14253027723E+04 -0.18585887458E+03  0.14427052496E+04  0.90229497160E+02 0.  0.
         13    1    3    3    0    0  0.19242421579E+01  0.34389728698E+03 -0.79015695382E+02  0.35286332597E+03  0.00000000000E+00 0.  1.
        -13    1    3    3    0    0  0.83079057016E+02  0.10814054854E+04 -0.10684317919E+03  0.10898419236E+04  0.00000000000E+00 0. -1.
         22    1    1    2    0    0 -0.85003299174E+02 -0.14253027723E+04  0.14628439973E+03  0.14353092626E+04  0.00000000000E+00 0.  1.
<mgrwt>
<rscale>  0 0.28777424E+04</rscale>
<asrwt>0</asrwt>
<pdfrwt beam="1">  1        2 0.21834154E+00 0.28777424E+04</pdfrwt>
<pdfrwt beam="2">  1       -2 0.22442992E+00 0.28777424E+04</pdfrwt>
<totfact> 0.11304959E+00</totfact>
</mgrwt>
</event>
<event>
 6    1  0.2236204E-005  0.3865506E+04  0.7818608E-02  0.8032242E-01
         -2   -1    0    0    0  501 -0.00000000000E+00  0.00000000000E+00  0.11155543737E+04  0.11155543737E+04  0.00000000000E+00 0. -1.
          2   -1    0    0  501    0  0.00000000000E+00 -0.00000000000E+00 -0.33485905933E+04  0.33485905933E+04  0.00000000000E+00 0.  1.
         23    2    1    2    0    0 -0.17392385054E+04  0.79368088442E+03 -0.14368191485E+04  0.23931931208E+04  0.89689033867E+02 0.  0.
         13    1    3    3    0    0 -0.51874863426E+03  0.19999205499E+03 -0.44684126089E+03  0.71327700092E+03  0.00000000000E+00 0.  1.
        -13    1    3    3    0    0 -0.12204898711E+04  0.59368882943E+03 -0.98997788764E+03  0.16799161198E+04  0.00000000000E+00 0. -1.
         22    1    1    2    0    0  0.17392385054E+04 -0.79368088442E+03 -0.79621707108E+03  0.20709518462E+04  0.00000000000E+00 0. -1.
<mgrwt>
<rscale>  0 0.38655064E+04</rscale>
<asrwt>0</asrwt>
<pdfrwt beam="1">  1        2 0.51516777E+00 0.38655064E+04</pdfrwt>
<pdfrwt beam="2">  1       -2 0.17162375E+00 0.38655064E+04</pdfrwt>
<totfact> 0.17079093E-01</totfact>
</mgrwt>
</event>
<event>
 6    1  0.2236204E-005  0.2467361E+04  0.7818608E-02  0.8414706E-01
          2   -1    0    0  501    0  0.00000000000E+00  0.00000000000E+00  0.97173480379E+03  0.97173480379E+03  0.00000000000E+00 0. -1.
         -2   -1    0    0    0  501 -0.00000000000E+00 -0.00000000000E+00 -0.15662380122E+04  0.15662380122E+04  0.00000000000E+00 0.  1.
         23    2    1    2    0    0  0.30175075666E+03  0.11723651484E+04 -0.62265855866E+02  0.12155620781E+04  0.90667351580E+02 0.  0.
         13    1    3    3    0    0  0.25390633316E+03  0.90427433645E+03 -0.80087872965E+02  0.94265294196E+03  0.00000000000E+00 0. -1.
        -13    1    3    3    0    0  0.47844423499E+02  0.26809081192E+03  0.17822017099E+02  0.27290913614E+03  0.00000000000E+00 0.  1.
         22    1    1    2    0    0 -0.30175075666E+03 -0.11723651484E+04 -0.53223735252E+03  0.13224107379E+04  0.00000000000E+00 0.  1.
<mgrwt>
<rscale>  0 0.24673613E+04</rscale>
<asrwt>0</asrwt>
<pdfrwt beam="1">  1        2 0.14949766E+00 0.24673613E+04</pdfrwt>
<pdfrwt beam="2">  1       -2 0.24095969E+00 0.24673613E+04</pdfrwt>
<totfact> 0.17165219E+00</totfact>
</mgrwt>
</event>
<event>
 6    1  0.2236204E-005  0.1128848E+04  0.7818608E-02  0.9177522E-01
          2   -1    0    0  501    0  0.00000000000E+00  0.00000000000E+00  0.38911377497E+03  0.38911377497E+03  0.00000000000E+00 0. -1.
         -2   -1    0    0    0  501 -0.00000000000E+00 -0.00000000000E+00 -0.81871751773E+03  0.81871751773E+03  0.00000000000E+00 0.  1.
         23    2    1    2    0    0  0.35260888604E+03 -0.18224629159E+03  0.20800390643E+03  0.45677187320E+03  0.88477012539E+02 0.  0.
         13    1    3    3    0    0  0.11592448036E+03 -0.20211665286E+02  0.82317570751E+02  0.14360772617E+03  0.00000000000E+00 0. -1.
        -13    1    3    3    0    0  0.23668440567E+03 -0.16203462630E+03  0.12568633568E+03  0.31316414703E+03  0.00000000000E+00 0.  1.
         22    1    1    2    0    0 -0.35260888604E+03  0.18224629159E+03 -0.63760764919E+03  0.75105941950E+03  0.00000000000E+00 0.  1.
<mgrwt>
<rscale>  0 0.11288477E+04</rscale>
<asrwt>0</asrwt>
<pdfrwt beam="1">  1        2 0.59863658E-01 0.11288477E+04</pdfrwt>
<pdfrwt beam="2">  1       -2 0.12595654E+00 0.11288477E+04</pdfrwt>
<totfact> 0.38224793E+01</totfact>
</mgrwt>
</event>
<event>
 6    1  0.2236204E-005  0.2184710E+04  0.7818608E-02  0.8524819E-01
          2   -1    0    0  501    0  0.00000000000E+00  0.00000000000E+00  0.92096907678E+03  0.92096907678E+03  0.00000000000E+00 0. -1.
         -2   -1    0    0    0  501 -0.00000000000E+00 -0.00000000000E+00 -0.12956344616E+04  0.12956344616E+04  0.00000000000E+00 0.  1.
         23    2    1    2    0    0  0.33929106775E+03 -0.57120696250E+03  0.68959436672E+03  0.96199418029E+03  0.92176947425E+02 0.  0.
         11    1    3    3    0    0  0.17007386830E+03 -0.32303314443E+03  0.31774385952E+03  0.48398005469E+03  0.00000000000E+00 0. -1.
        -11    1    3    3    0    0  0.16921719945E+03 -0.24817381807E+03  0.37185050720E+03  0.47801412559E+03  0.00000000000E+00 0.  1.
         22    1    1    2    0    0 -0.33929106775E+03  0.57120696250E+03 -0.10642597515E+04  0.12546093581E+04  0.00000000000E+00 0.  1.
<mgrwt>
<rscale>  0 0.21847098E+04</rscale>
<asrwt>0</asrwt>
<pdfrwt beam="1">  1        2 0.14168755E+00 0.21847098E+04</pdfrwt>
<pdfrwt beam="2">  1       -2 0.19932838E+00 0.21847098E+04</pdfrwt>
<totfact> 0.34889716E+00</totfact>
</mgrwt>
</event>
<event>
 6    1  0.2236204E-005  0.1367204E+04  0.7818608E-02  0.8977906E-01
          2   -1    0    0  501    0  0.00000000000E+00  0.00000000000E+00  0.41281847548E+04  0.41281847548E+04  0.00000000000E+00 0. -1.
         -2   -1    0    0    0  501 -0.00000000000E+00 -0.00000000000E+00 -0.11320024263E+03  0.11320024263E+03  0.00000000000E+00 0.  1.
         23    2    1    2    0    0 -0.14464847254E+03  0.52194041784E+03  0.32963525522E+04  0.33415089647E+04  0.79981450624E+02 0.  0.
         13    1    3    3    0    0 -0.32925659012E+02  0.10029746489E+03  0.85541219086E+03  0.86190121056E+03  0.00000000000E+00 0.  1.
        -13    1    3    3    0    0 -0.11172281353E+03  0.42164295294E+03  0.24409403613E+04  0.24796077541E+04  0.00000000000E+00 0. -1.
         22    1    1    2    0    0  0.14464847254E+03 -0.52194041784E+03  0.71863196002E+03  0.89987603276E+03  0.00000000000E+00 0.  1.
<mgrwt>
<rscale>  0 0.13672037E+04</rscale>
<asrwt>0</asrwt>
<pdfrwt beam="1">  1        2 0.63510523E+00 0.13672037E+04</pdfrwt>
<pdfrwt beam="2">  1       -2 0.17415425E-01 0.13672037E+04</pdfrwt>
<totfact> 0.73512894E+00</totfact>
</mgrwt>
</event>
<event>
 6    1  0.2236204E-005  0.2499246E+04  0.7818608E-02  0.8403254E-01
         -2   -1    0    0    0  501 -0.00000000000E+00  0.00000000000E+00  0.24764404222E+04  0.24764404222E+04  0.00000000000E+00 0.  1.
          2   -1    0    0  501    0  0.00000000000E+00 -0.00000000000E+00 -0.63056552264E+03  0.63056552264E+03  0.00000000000E+00 0. -1.
         23    2    1    2    0    0 -0.65427759946E+03 -0.96027167902E+03  0.14900439924E+04  0.18917625498E+04  0.91288394606E+02 0.  0.
         13    1    3    3    0    0 -0.41095432401E+03 -0.61840451926E+03  0.10206019490E+04  0.12621156620E+04  0.00000000000E+00 0.  1.
        -13    1    3    3    0    0 -0.24332327545E+03 -0.34186715976E+03  0.46944204339E+03  0.62964688786E+03  0.00000000000E+00 0. -1.
         22    1    1    2    0    0  0.65427759946E+03  0.96027167902E+03  0.35583090719E+03  0.12152433950E+04  0.00000000000E+00 0. -1.
<mgrwt>
<rscale>  0 0.24992462E+04</rscale>
<asrwt>0</asrwt>
<pdfrwt beam="1">  1        2 0.97010082E-01 0.24992462E+04</pdfrwt>
<pdfrwt beam="2">  1       -2 0.38099083E+00 0.24992462E+04</pdfrwt>
<totfact> 0.41095423E-01</totfact>
</mgrwt>
</event>
<event>
 6    1  0.2236204E-005  0.4888934E+04  0.7818608E-02  0.7845872E-01
          1   -1    0    0  501    0  0.00000000000E+00  0.00000000000E+00  0.30061935304E+04  0.30061935304E+04  0.00000000000E+00 0. -1.
         -1   -1    0    0    0  501 -0.00000000000E+00 -0.00000000000E+00 -0.19877025114E+04  0.19877025114E+04  0.00000000000E+00 0.  1.
         23    2    1    2    0    0 -0.13448396059E+04  0.16239849502E+04 -0.75211498320E+03  0.22405405800E+04  0.91784849129E+02 0.  0.
         11    1    3    3    0    0 -0.10904408335E+04  0.12611211922E+04 -0.58174452094E+03  0.17657617507E+04  0.00000000000E+00 0. -1.
        -11    1    3    3    0    0 -0.25439877235E+03  0.36286375808E+03 -0.17037046226E+03  0.47477882926E+03  0.00000000000E+00 0.  1.
         22    1    1    2    0    0  0.13448396059E+04 -0.16239849502E+04  0.17706060021E+04  0.27533554618E+04  0.00000000000E+00 0. -1.
<mgrwt>
<rscale>  0 0.48889338E+04</rscale>
<asrwt>0</asrwt>
<pdfrwt beam="1">  1        1 0.46249131E+00 0.48889338E+04</pdfrwt>
<pdfrwt beam="2">  1       -1 0.30580039E+00 0.48889338E+04</pdfrwt>
<totfact> 0.13045050E-02</totfact>
</mgrwt>
</event>
<event>
 6    1  0.2236204E-005  0.5844047E+03  0.7818608E-02  0.9938300E-01
          2   -1    0    0  501    0  0.00000000000E+00  0.00000000000E+00  0.26420891891E+04  0.26420891891E+04  0.00000000000E+00 0. -1.
         -2   -1    0    0    0  501 -0.00000000000E+00 -0.00000000000E+00 -0.32316174802E+02  0.32316174802E+02  0.00000000000E+00 0.  1.
         23    2    1    2    0    0 -0.14291742816E+03  0.17421606114E+03  0.21354622295E+04  0.21492888551E+04  0.92016421629E+02 0.  0.
         11    1    3    3    0    0 -0.37511469634E+02  0.58249970931E+02  0.10840720546E+04  0.10862837516E+04  0.00000000000E+00 0. -1.
        -11    1    3    3    0    0 -0.10540595853E+03  0.11596609021E+03  0.10513901749E+04  0.10630051035E+04  0.00000000000E+00 0.  1.
         22    1    1    2    0    0  0.14291742816E+03 -0.17421606114E+03  0.47431078480E+03  0.52511650880E+03  0.00000000000E+00 0.  1.
<mgrwt>
<rscale>  0 0.58440471E+03</rscale>
<asrwt>0</asrwt>
<pdfrwt beam="1">  1        2 0.40647509E+00 0.58440471E+03</pdfrwt>
<pdfrwt beam="2">  1       -2 0.49717213E-02 0.58440471E+03</pdfrwt>
<totfact> 0.63353711E+02</totfact>
</mgrwt>
</event>
<event>
 6    1  0.2236204E-005  0.1562569E+04  0.7818608E-02  0.8843879E-01
          2   -1    0    0  501    0  0.00000000000E+00  0.00000000000E+00  0.33555302777E+04  0.33555302777E+04  0.00000000000E+00 0. -1.
         -2   -1    0    0    0  501 -0.00000000000E+00 -0.00000000000E+00 -0.18191031757E+03  0.18191031757E+03  0.00000000000E+00 0.  1.
         23    2    1    2    0    0 -0.74328174914E+03 -0.21798290919E+03  0.14141438186E+04  0.16150096862E+04  0.92028472363E+02 0.  0.
         13    1    3    3    0    0 -0.33694062730E+03 -0.54749291348E+02  0.65529696215E+03  0.73887791944E+03  0.00000000000E+00 0. -1.
        -13    1    3    3    0    0 -0.40634112184E+03 -0.16323361784E+03  0.75884685641E+03  0.87613176679E+03  0.00000000000E+00 0.  1.
         22    1    1    2    0    0  0.74328174914E+03  0.21798290919E+03  0.17594761416E+04  0.19224309091E+04  0.00000000000E+00 0.  1.
<mgrwt>
<rscale>  0 0.15625691E+04</rscale>
<asrwt>0</asrwt>
<pdfrwt beam="1">  1        2 0.51623538E+00 0.15625691E+04</pdfrwt>
<pdfrwt beam="2">  1       -2 0.27986205E-01 0.15625691E+04</pdfrwt>
<totfact> 0.11591512E+01</totfact>
</mgrwt>
</event>
<event>
 6    1  0.2236204E-005  0.3420837E+04  0.7818608E-02  0.8132811E-01
          2   -1    0    0  501    0  0.00000000000E+00  0.00000000000E+00  0.11094836051E+04  0.11094836051E+04  0.00000000000E+00 0. -1.
         -2   -1    0    0    0  501 -0.00000000000E+00 -0.00000000000E+00 -0.26368407829E+04  0.26368407829E+04  0.00000000000E+00 0.  1.
         23    2    1    2    0    0  0.56691214660E+03 -0.23025838169E+03 -0.25119922528E+04  0.25870511090E+04  0.91214352827E+02 0.  0.
         11    1    3    3    0    0  0.14166394932E+03 -0.89449732156E+02 -0.80590155889E+03  0.82313258455E+03  0.00000000000E+00 0. -1.
        -11    1    3    3    0    0  0.42524819729E+03 -0.14080864953E+03 -0.17060906939E+04  0.17639185245E+04  0.00000000000E+00 0.  1.
         22    1    1    2    0    0 -0.56691214660E+03  0.23025838169E+03  0.98463507503E+03  0.11592732790E+04  0.00000000000E+00 0. -1.
<mgrwt>
<rscale>  0 0.34208371E+04</rscale>
<asrwt>0</asrwt>
<pdfrwt beam="1">  1        2 0.17068979E+00 0.34208371E+04</pdfrwt>
<pdfrwt beam="2">  1       -2 0.40566781E+00 0.34208371E+04</pdfrwt>
<totfact> 0.12101752E-01</totfact>
</mgrwt>
</event>
<event>
 6    1  0.2236204E-005  0.2630552E+04  0.7818608E-02  0.8357897E-01
          2   -1    0    0  501    0  0.00000000000E+00  0.00000000000E+00  0.93974851352E+03  0.93974851352E+03  0.00000000000E+00 0. -1.
         -2   -1    0    0    0  501 -0.00000000000E+00 -0.00000000000E+00 -0.18408656549E+04  0.18408656549E+04  0.00000000000E+00 0.  1.
         23    2    1    2    0    0 -0.31479942422E+03 -0.12588853187E+04 -0.66783220155E+03  0.14621632644E+04  0.89613834239E+02 0.  0.
         13    1    3    3    0    0 -0.11619965574E+03 -0.64888633832E+03 -0.34208828052E+03  0.74268447656E+03  0.00000000000E+00 0. -1.
        -13    1    3    3    0    0 -0.19859976848E+03 -0.60999898036E+03 -0.32574392104E+03  0.71947878786E+03  0.00000000000E+00 0.  1.
         22    1    1    2    0    0  0.31479942422E+03  0.12588853187E+04 -0.23328493980E+03  0.13184509040E+04  0.00000000000E+00 0. -1.
<mgrwt>
<rscale>  0 0.26305519E+04</rscale>
<asrwt>0</asrwt>
<pdfrwt beam="1">  1        2 0.14457670E+00 0.26305519E+04</pdfrwt>
<pdfrwt beam="2">  1       -2 0.28321010E+00 0.26305519E+04</pdfrwt>
<totfact> 0.97950978E-01</totfact>
</mgrwt>
</event>
<event>
 6    1  0.2236204E-005  0.1928634E+04  0.7818608E-02  0.8640733E-01
          2   -1    0    0  501    0  0.00000000000E+00  0.00000000000E+00  0.22027866769E+04  0.22027866769E+04  0.00000000000E+00 0. -1.
         -2   -1    0    0    0  501 -0.00000000000E+00 -0.00000000000E+00 -0.42215019546E+03  0.42215019546E+03  0.00000000000E+00 0.  1.
         23    2    1    2    0    0 -0.14105398738E+03  0.63566242806E+03  0.18564598663E+04  0.19694125514E+04  0.90441210217E+02 0.  0.
         11    1    3    3    0    0 -0.10154690306E+03  0.28567327255E+03  0.93534593552E+03  0.98325633040E+03  0.00000000000E+00 0. -1.
        -11    1    3    3    0    0 -0.39507084316E+02  0.34998915551E+03  0.92111393077E+03  0.98615622096E+03  0.00000000000E+00 0.  1.
         22    1    1    2    0    0  0.14105398738E+03 -0.63566242806E+03 -0.75823384798E+02  0.65552432105E+03  0.00000000000E+00 0.  1.
<mgrwt>
<rscale>  0 0.19286335E+04</rscale>
<asrwt>0</asrwt>
<pdfrwt beam="1">  1        2 0.33889025E+00 0.19286335E+04</pdfrwt>
<pdfrwt beam="2">  1       -2 0.64946185E-01 0.19286335E+04</pdfrwt>
<totfact> 0.10515897E+01</totfact>
</mgrwt>
</event>
<event>
 6    1  0.2236204E-005  0.1499580E+04  0.7818608E-02  0.8884732E-01
          2   -1    0    0  501    0  0.00000000000E+00  0.00000000000E+00  0.15729618712E+04  0.15729618712E+04  0.00000000000E+00 0. -1.
         -2   -1    0    0    0  501 -0.00000000000E+00 -0.00000000000E+00 -0.35740540054E+03  0.35740540054E+03  0.00000000000E+00 0.  1.
         23    2    1    2    0    0 -0.27768549413E+03 -0.11655822573E+03  0.14900296601E+04  0.15228987633E+04  0.91308279262E+02 0.  0.
         11    1    3    3    0    0 -0.67155987076E+02 -0.59594640220E+02  0.30396785530E+03  0.31695095014E+03  0.00000000000E+00 0. -1.
        -11    1    3    3    0    0 -0.21052950706E+03 -0.56963585512E+02  0.11860618048E+04  0.12059478132E+04  0.00000000000E+00 0.  1.
         22    1    1    2    0    0  0.27768549413E+03  0.11655822573E+03 -0.27447318941E+03  0.40746850840E+03  0.00000000000E+00 0.  1.
<mgrwt>
<rscale>  0 0.14995800E+04</rscale>
<asrwt>0</asrwt>
<pdfrwt beam="1">  1        2 0.24199413E+00 0.14995800E+04</pdfrwt>
<pdfrwt beam="2">  1       -2 0.54985447E-01 0.14995800E+04</pdfrwt>
<totfact> 0.34703128E+01</totfact>
</mgrwt>
</event>
<event>
 6    1  0.2236204E-005  0.4146600E+04  0.7818608E-02  0.7975608E-01
         -2   -1    0    0    0  501 -0.00000000000E+00  0.00000000000E+00  0.10552076241E+04  0.10552076241E+04  0.00000000000E+00 0. -1.
          2   -1    0    0  501    0  0.00000000000E+00 -0.00000000000E+00 -0.40736746783E+04  0.40736746783E+04  0.00000000000E+00 0.  1.
         23    2    1    2    0    0  0.12896282318E+04  0.78918100043E+03  0.24302146305E+03  0.15339894005E+04  0.90091184494E+02 0.  0.
         13    1    3    3    0    0  0.63184675253E+03  0.43281582325E+03  0.14509068751E+03  0.77949417134E+03  0.00000000000E+00 0. -1.
        -13    1    3    3    0    0  0.65778147929E+03  0.35636517718E+03  0.97930775533E+02  0.75449522914E+03  0.00000000000E+00 0.  1.
         22    1    1    2    0    0 -0.12896282318E+04 -0.78918100043E+03 -0.32614885173E+04  0.35948929019E+04  0.00000000000E+00 0.  1.
<mgrwt>
<rscale>  0 0.41465998E+04</rscale>
<asrwt>0</asrwt>
<pdfrwt beam="1">  1        2 0.62671918E+00 0.41465998E+04</pdfrwt>
<pdfrwt beam="2">  1       -2 0.16233963E+00 0.41465998E+04</pdfrwt>
<totfact> 0.55944457E-02</totfact>
</mgrwt>
</event>
<event>
 6    1  0.2236204E-005  0.3331058E+04  0.7818608E-02  0.8155037E-01
         -2   -1    0    0    0  501 -0.00000000000E+00  0.00000000000E+00  0.13204160650E+04  0.13204160650E+04  0.00000000000E+00 0.  1.
          2   -1    0    0  501    0  0.00000000000E+00 -0.00000000000E+00 -0.21008428363E+04  0.21008428363E+04  0.00000000000E+00 0. -1.
         23    2    1    2    0    0 -0.60749796118E+03 -0.15453088428E+04 -0.27433265145E+03  0.16854120041E+04  0.91225147625E+02 0.  0.
         11    1    3    3    0    0 -0.47862347998E+03 -0.11950824069E+04 -0.25017486510E+03  0.13114457129E+04  0.00000000000E+00 0.  1.
        -11    1    3    3    0    0 -0.12887448121E+03 -0.35022643586E+03 -0.24157786355E+02  0.37396629116E+03  0.00000000000E+00 0. -1.
         22    1    1    2    0    0  0.60749796118E+03  0.15453088428E+04 -0.50609411990E+03  0.17358468972E+04  0.00000000000E+00 0.  1.
<mgrwt>
<rscale>  0 0.33310579E+04</rscale>
<asrwt>0</asrwt>
<pdfrwt beam="1">  1        2 0.32320659E+00 0.33310579E+04</pdfrwt>
<pdfrwt beam="2">  1       -2 0.20314094E+00 0.33310579E+04</pdfrwt>
<totfact> 0.62029884E-01</totfact>
</mgrwt>
</event>
<event>
 6    1  0.2236204E-005  0.6087898E+03  0.7818608E-02  0.9887336E-01
         -2   -1    0    0    0  501 -0.00000000000E+00  0.00000000000E+00  0.11535119866E+03  0.11535119866E+03  0.00000000000E+00 0.  1.
          2   -1    0    0  501    0  0.00000000000E+00 -0.00000000000E+00 -0.80325356304E+03  0.80325356304E+03  0.00000000000E+00 0. -1.
         23    2    1    2    0    0  0.27867676685E+03  0.95759895793E+02 -0.28918061343E+03  0.42281273605E+03  0.91183795498E+02 0.  0.
         13    1    3    3    0    0  0.10423381028E+03  0.20347508817E+02 -0.16351575025E+03  0.19497720097E+03  0.00000000000E+00 0.  1.
        -13    1    3    3    0    0  0.17444295657E+03  0.75412386976E+02 -0.12566486318E+03  0.22783553508E+03  0.00000000000E+00 0. -1.
         22    1    1    2    0    0 -0.27867676685E+03 -0.95759895793E+02 -0.39872175095E+03  0.49579202566E+03  0.00000000000E+00 0.  1.
<mgrwt>
<rscale>  0 0.60878982E+03</rscale>
<asrwt>0</asrwt>
<pdfrwt beam="1">  1        2 0.12357747E+00 0.60878982E+03</pdfrwt>
<pdfrwt beam="2">  1       -2 0.17746338E-01 0.60878982E+03</pdfrwt>
<totfact> 0.90537686E+02</totfact>
</mgrwt>
</event>
<event>
 6    1  0.2236204E-005  0.1356494E+04  0.7818608E-02  0.8985927E-01
         -2   -1    0    0    0  501 -0.00000000000E+00  0.00000000000E+00  0.50149578660E+03  0.50149578660E+03  0.00000000000E+00 0.  1.
          2   -1    0    0  501    0  0.00000000000E+00 -0.00000000000E+00 -0.91729376613E+03  0.91729376613E+03  0.00000000000E+00 0. -1.
         23    2    1    2    0    0 -0.17444242079E+03  0.22921710292E+03 -0.84826004644E+03  0.89918000916E+03  0.77517379006E+02 0.  0.
         11    1    3    3    0    0 -0.86944480892E+02  0.14298756180E+03 -0.38278116958E+03  0.41776334134E+03  0.00000000000E+00 0.  1.
        -11    1    3    3    0    0 -0.87497939896E+02  0.86229541119E+02 -0.46547887686E+03  0.48141666782E+03  0.00000000000E+00 0. -1.
         22    1    1    2    0    0  0.17444242079E+03 -0.22921710292E+03  0.43246206692E+03  0.51960954357E+03  0.00000000000E+00 0.  1.
<mgrwt>
<rscale>  0 0.13564939E+04</rscale>
<asrwt>0</asrwt>
<pdfrwt beam="1">  1        2 0.14112212E+00 0.13564939E+04</pdfrwt>
<pdfrwt beam="2">  1       -2 0.77153198E-01 0.13564939E+04</pdfrwt>
<totfact> 0.41797137E+01</totfact>
</mgrwt>
</event>
<event>
 6    1  0.2236204E-005  0.2703672E+04  0.7818608E-02  0.8333815E-01
         -2   -1    0    0    0  501 -0.00000000000E+00  0.00000000000E+00  0.10901192807E+04  0.10901192807E+04  0.00000000000E+00 0.  1.
          2   -1    0    0  501    0  0.00000000000E+00 -0.00000000000E+00 -0.16763857492E+04  0.16763857492E+04  0.00000000000E+00 0. -1.
         23    2    1    2    0    0 -0.94133218391E+03 -0.62410878905E+03 -0.10507425389E+04  0.15452941222E+04  0.90862422909E+02 0.  0.
         13    1    3    3    0    0 -0.56834743977E+03 -0.41816660347E+03 -0.69217936011E+03  0.98843026416E+03  0.00000000000E+00 0. -1.
        -13    1    3    3    0    0 -0.37298474413E+03 -0.20594218558E+03 -0.35856317883E+03  0.55686385802E+03  0.00000000000E+00 0.  1.
         22    1    1    2    0    0  0.94133218391E+03  0.62410878905E+03  0.46447607051E+03  0.12212109077E+04  0.00000000000E+00 0.  1.
<mgrwt>
<rscale>  0 0.27036719E+04</rscale>
<asrwt>0</asrwt>
<pdfrwt beam="1">  1        2 0.25790550E+00 0.27036719E+04</pdfrwt>
<pdfrwt beam="2">  1       -2 0.16771066E+00 0.27036719E+04</pdfrwt>
<totfact> 0.19624304E+00</totfact>
</mgrwt>
</event>
<event>
 6    1  0.2236204E-005  0.1226697E+04  0.7818608E-02  0.9089804E-01
          2   -1    0    0  501    0  0.00000000000E+00  0.00000000000E+00  0.30140662092E+04  0.30140662092E+04  0.00000000000E+00 0. -1.
         -2   -1    0    0    0  501 -0.00000000000E+00 -0.00000000000E+00 -0.12481355286E+03  0.12481355286E+03  0.00000000000E+00 0.  1.
         23    2    1    2    0    0  0.38326470081E+03  0.26342777395E+03  0.24622486023E+04  0.25075173581E+04  0.93215334995E+02 0.  0.
         11    1    3    3    0    0  0.24784420500E+03  0.13408531723E+03  0.16562228829E+04  0.16800237677E+04  0.00000000000E+00 0.  1.
        -11    1    3    3    0    0  0.13542049580E+03  0.12934245672E+03  0.80602571944E+03  0.82749359043E+03  0.00000000000E+00 0. -1.
         22    1    1    2    0    0 -0.38326470081E+03 -0.26342777395E+03  0.42700405406E+03  0.63136240398E+03  0.00000000000E+00 0.  1.
<mgrwt>
<rscale>  0 0.12266969E+04</rscale>
<asrwt>0</asrwt>
<pdfrwt beam="1">  1        2 0.46370244E+00 0.12266969E+04</pdfrwt>
<pdfrwt beam="2">  1       -2 0.19202087E-01 0.12266969E+04</pdfrwt>
<totfact> 0.39119422E+01</totfact>
</mgrwt>
</event>
<event>
 6    1  0.2236204E-005  0.1897960E+04  0.7818608E-02  0.8655872E-01
          2   -1    0    0  501    0  0.00000000000E+00  0.00000000000E+00  0.25535448430E+04  0.25535448430E+04  0.00000000000E+00 0. -1.
         -2   -1    0    0    0  501 -0.00000000000E+00 -0.00000000000E+00 -0.35267185241E+03  0.35267185241E+03  0.00000000000E+00 0.  1.
         23    2    1    2    0    0  0.46991010661E+03  0.66269241141E+02  0.23574645237E+04  0.24064887406E+04  0.91334316880E+02 0.  0.
         13    1    3    3    0    0  0.68218153633E+02  0.32370126482E+02  0.26504283418E+03  0.27558890675E+03  0.00000000000E+00 0. -1.
        -13    1    3    3    0    0  0.40169195297E+03  0.33899114660E+02  0.20924216896E+04  0.21308998339E+04  0.00000000000E+00 0.  1.
         22    1    1    2    0    0 -0.46991010661E+03 -0.66269241141E+02 -0.15659153310E+03  0.49972795484E+03  0.00000000000E+00 0.  1.
<mgrwt>
<rscale>  0 0.18979604E+04</rscale>
<asrwt>0</asrwt>
<pdfrwt beam="1">  1        2 0.39285304E+00 0.18979604E+04</pdfrwt>
<pdfrwt beam="2">  1       -2 0.54257210E-01 0.18979604E+04</pdfrwt>
<totfact> 0.97160988E+00</totfact>
</mgrwt>
</event>
<event>
 6    1  0.2236204E-005  0.2362128E+04  0.7818608E-02  0.8453820E-01
          2   -1    0    0  501    0  0.00000000000E+00  0.00000000000E+00  0.27279994372E+04  0.27279994372E+04  0.00000000000E+00 0. -1.
         -2   -1    0    0    0  501 -0.00000000000E+00 -0.00000000000E+00 -0.51133167891E+03  0.51133167891E+03  0.00000000000E+00 0.  1.
         23    2    1    2    0    0  0.71648344483E+03  0.67969795315E+03  0.19939012945E+04  0.22269266853E+04  0.90676650342E+02 0.  0.
         13    1    3    3    0    0  0.50875893078E+03  0.43155650427E+03  0.12951603080E+04  0.14568860248E+04  0.00000000000E+00 0. -1.
        -13    1    3    3    0    0  0.20772451405E+03  0.24814144888E+03  0.69874098657E+03  0.77004066042E+03  0.00000000000E+00 0.  1.
         22    1    1    2    0    0 -0.71648344483E+03 -0.67969795315E+03  0.22276646373E+03  0.10124044308E+04  0.00000000000E+00 0.  1.
<mgrwt>
<rscale>  0 0.23621283E+04</rscale>
<asrwt>0</asrwt>
<pdfrwt beam="1">  1        2 0.41969221E+00 0.23621283E+04</pdfrwt>
<pdfrwt beam="2">  1       -2 0.78666414E-01 0.23621283E+04</pdfrwt>
<totfact> 0.33089951E+00</totfact>
</mgrwt>
</event>
<event>
 6    1  0.2236204E-005  0.3547387E+04  0.7818608E-02  0.8102651E-01
          2   -1    0    0  501    0  0.00000000000E+00  0.00000000000E+00  0.99181737180E+03  0.99181737180E+03  0.00000000000E+00 0. -1.
         -2   -1    0    0    0  501 -0.00000000000E+00 -0.00000000000E+00 -0.31719441274E+04  0.31719441274E+04  0.00000000000E+00 0.  1.
         23    2    1    2    0    0  0.12636962463E+04 -0.67681604261E+03  0.13295554725E+03  0.14424827744E+04  0.89839959529E+02 0.  0.
         13    1    3    3    0    0  0.93341128110E+03 -0.54151812878E+03  0.87143372931E+02  0.10826321956E+04  0.00000000000E+00 0. -1.
        -13    1    3    3    0    0  0.33028496521E+03 -0.13529791383E+03  0.45812174316E+02  0.35985057878E+03  0.00000000000E+00 0.  1.
         22    1    1    2    0    0 -0.12636962463E+04  0.67681604261E+03 -0.23130823029E+04  0.27212787248E+04  0.00000000000E+00 0.  1.
<mgrwt>
<rscale>  0 0.35473874E+04</rscale>
<asrwt>0</asrwt>
<pdfrwt beam="1">  1        2 0.15258729E+00 0.35473874E+04</pdfrwt>
<pdfrwt beam="2">  1       -2 0.48799140E+00 0.35473874E+04</pdfrwt>
<totfact> 0.40920887E-02</totfact>
</mgrwt>
</event>
<event>
 6    1  0.2236204E-005  0.3471035E+04  0.7818608E-02  0.8120689E-01
         -2   -1    0    0    0  501 -0.00000000000E+00  0.00000000000E+00  0.13460223732E+04  0.13460223732E+04  0.00000000000E+00 0.  1.
          2   -1    0    0  501    0  0.00000000000E+00 -0.00000000000E+00 -0.22377192368E+04  0.22377192368E+04  0.00000000000E+00 0. -1.
         23    2    1    2    0    0  0.13611725531E+03 -0.42661076348E+03  0.12837612501E+04  0.13626737013E+04  0.91170270619E+02 0.  0.
         13    1    3    3    0    0  0.92518145608E+02 -0.36635292099E+03  0.99041196888E+03  0.10600424228E+04  0.00000000000E+00 0.  1.
        -13    1    3    3    0    0  0.43599109702E+02 -0.60257842483E+02  0.29334928118E+03  0.30263127849E+03  0.00000000000E+00 0. -1.
         22    1    1    2    0    0 -0.13611725531E+03  0.42661076348E+03 -0.21754581137E+04  0.22210679088E+04  0.00000000000E+00 0. -1.
<mgrwt>
<rscale>  0 0.34710345E+04</rscale>
<asrwt>0</asrwt>
<pdfrwt beam="1">  1        2 0.34426449E+00 0.34710345E+04</pdfrwt>
<pdfrwt beam="2">  1       -2 0.20708037E+00 0.34710345E+04</pdfrwt>
<totfact> 0.48432793E-01</totfact>
</mgrwt>
</event>
<event>
 6    1  0.2236204E-005  0.1700907E+04  0.7818608E-02  0.8760847E-01
         -1   -1    0    0    0  501 -0.00000000000E+00  0.00000000000E+00  0.38239581866E+03  0.38239581866E+03  0.00000000000E+00 0.  1.
          1   -1    0    0  501    0  0.00000000000E+00 -0.00000000000E+00 -0.18914192249E+04  0.18914192249E+04  0.00000000000E+00 0. -1.
         23    2    1    2    0    0 -0.51988906097E+03 -0.54032169311E+03 -0.12862464138E+04  0.14915991168E+04  0.90586535989E+02 0.  0.
         13    1    3    3    0    0 -0.48299742242E+03 -0.46493431684E+03 -0.11652495748E+04  0.13443425905E+04  0.00000000000E+00 0. -1.
        -13    1    3    3    0    0 -0.36891638554E+02 -0.75387376271E+02 -0.12099683897E+03  0.14725652630E+03  0.00000000000E+00 0.  1.
         22    1    1    2    0    0  0.51988906097E+03  0.54032169311E+03 -0.22277699250E+03  0.78221592681E+03  0.00000000000E+00 0.  1.
<mgrwt>
<rscale>  0 0.17009066E+04</rscale>
<asrwt>0</asrwt>
<pdfrwt beam="1">  1        1 0.29098757E+00 0.17009066E+04</pdfrwt>
<pdfrwt beam="2">  1       -1 0.58830127E-01 0.17009066E+04</pdfrwt>
<totfact> 0.98407172E+00</totfact>
</mgrwt>
</event>
<event>
 6    1  0.2236204E-005  0.1288885E+04  0.7818608E-02  0.9038426E-01
         -2   -1    0    0    0  501 -0.00000000000E+00  0.00000000000E+00  0.20432304438E+03  0.20432304438E+03  0.00000000000E+00 0.  1.
          2   -1    0    0  501    0  0.00000000000E+00 -0.00000000000E+00 -0.20325944826E+04  0.20325944826E+04  0.00000000000E+00 0. -1.
         23    2    1    2    0    0  0.53673661195E+03 -0.31165254704E+03 -0.11976286987E+04  0.13520877323E+04  0.92807516801E+02 0.  0.
         13    1    3    3    0    0  0.26431443127E+03 -0.17633461538E+03 -0.70205773814E+03  0.77061085045E+03  0.00000000000E+00 0.  1.
        -13    1    3    3    0    0  0.27242218068E+03 -0.13531793166E+03 -0.49557096053E+03  0.58147688181E+03  0.00000000000E+00 0. -1.
         22    1    1    2    0    0 -0.53673661195E+03  0.31165254704E+03 -0.63064273953E+03  0.88482979471E+03  0.00000000000E+00 0.  1.
<mgrwt>
<rscale>  0 0.12888846E+04</rscale>
<asrwt>0</asrwt>
<pdfrwt beam="1">  1        2 0.31270685E+00 0.12888846E+04</pdfrwt>
<pdfrwt beam="2">  1       -2 0.31434314E-01 0.12888846E+04</pdfrwt>
<totfact> 0.59114523E+01</totfact>
</mgrwt>
</event>
<event>
 6    1  0.2236204E-005  0.2479228E+04  0.7818608E-02  0.8410423E-01
          2   -1    0    0  501    0  0.00000000000E+00  0.00000000000E+00  0.27450559973E+04  0.27450559973E+04  0.00000000000E+00 0. -1.
         -2   -1    0    0    0  501 -0.00000000000E+00 -0.00000000000E+00 -0.55978583781E+03  0.55978583781E+03  0.00000000000E+00 0.  1.
         23    2    1    2    0    0  0.64044922683E+03  0.36861593338E+03  0.24180334937E+04  0.25300956261E+04  0.91896583569E+02 0.  0.
         11    1    3    3    0    0  0.62034483005E+03  0.33448923185E+03  0.22735670784E+04  0.23802978836E+04  0.00000000000E+00 0. -1.
        -11    1    3    3    0    0  0.20104396781E+02  0.34126701533E+02  0.14446641529E+03  0.14979774255E+03  0.00000000000E+00 0.  1.
         22    1    1    2    0    0 -0.64044922683E+03 -0.36861593338E+03 -0.23276333428E+03  0.77474620894E+03  0.00000000000E+00 0.  1.
<mgrwt>
<rscale>  0 0.24792285E+04</rscale>
<asrwt>0</asrwt>
<pdfrwt beam="1">  1        2 0.42231630E+00 0.24792285E+04</pdfrwt>
<pdfrwt beam="2">  1       -2 0.86120900E-01 0.24792285E+04</pdfrwt>
<totfact> 0.26072460E+00</totfact>
</mgrwt>
</event>
<event>
 6    1  0.2236204E-005  0.4268049E+04  0.7818608E-02  0.7952553E-01
          2   -1    0    0  501    0  0.00000000000E+00  0.00000000000E+00  0.59585202903E+04  0.59585202903E+04  0.00000000000E+00 0. -1.
         -2   -1    0    0    0  501 -0.00000000000E+00 -0.00000000000E+00 -0.76429376085E+03  0.76429376085E+03  0.00000000000E+00 0.  1.
         23    2    1    2    0    0 -0.21799889421E+03 -0.15734534429E+04  0.35586107312E+03  0.16303628198E+04  0.90369053985E+02 0.  0.
         11    1    3    3    0    0 -0.64455879922E+02 -0.23608875079E+03  0.63431035575E+02  0.25281604969E+03  0.00000000000E+00 0. -1.
        -11    1    3    3    0    0 -0.15354301429E+03 -0.13373646921E+04  0.29243003754E+03  0.13775467701E+04  0.00000000000E+00 0.  1.
         22    1    1    2    0    0  0.21799889421E+03  0.15734534429E+04  0.48383654563E+04  0.50924512313E+04  0.00000000000E+00 0. -1.
<mgrwt>
<rscale>  0 0.42680487E+04</rscale>
<asrwt>0</asrwt>
<pdfrwt beam="1">  1        2 0.91669540E+00 0.42680487E+04</pdfrwt>
<pdfrwt beam="2">  1       -2 0.11758366E+00 0.42680487E+04</pdfrwt>
<totfact> 0.19156195E-04</totfact>
</mgrwt>
</event>
<event>
 6    1  0.2236204E-005  0.3146229E+04  0.7818608E-02  0.8203164E-01
          2   -1    0    0  501    0  0.00000000000E+00  0.00000000000E+00  0.17622399476E+04  0.17622399476E+04  0.00000000000E+00 0. -1.
         -2   -1    0    0    0  501 -0.00000000000E+00 -0.00000000000E+00 -0.14042863624E+04  0.14042863624E+04  0.00000000000E+00 0.  1.
         23    2    1    2    0    0 -0.64547968014E+03  0.60537302009E+03 -0.11283524882E+04  0.14367210450E+04  0.88698999708E+02 0.  0.
         11    1    3    3    0    0 -0.11633893561E+03  0.93893286089E+02 -0.24458372003E+03  0.28665640271E+03  0.00000000000E+00 0.  1.
        -11    1    3    3    0    0 -0.52914074454E+03  0.51147973400E+03 -0.88376876815E+03  0.11500646423E+04  0.00000000000E+00 0. -1.
         22    1    1    2    0    0  0.64547968014E+03 -0.60537302009E+03  0.14863060734E+04  0.17298052650E+04  0.00000000000E+00 0. -1.
<mgrwt>
<rscale>  0 0.31462292E+04</rscale>
<asrwt>0</asrwt>
<pdfrwt beam="1">  1        2 0.27111384E+00 0.31462292E+04</pdfrwt>
<pdfrwt beam="2">  1       -2 0.21604406E+00 0.31462292E+04</pdfrwt>
<totfact> 0.80222978E-01</totfact>
</mgrwt>
</event>
<event>
 6    1  0.2236204E-005  0.2487620E+04  0.7818608E-02  0.8407409E-01
         -2   -1    0    0    0  501 -0.00000000000E+00  0.00000000000E+00  0.71485486391E+03  0.71485486391E+03  0.00000000000E+00 0.  1.
          2   -1    0    0  501    0  0.00000000000E+00 -0.00000000000E+00 -0.21641635285E+04  0.21641635285E+04  0.00000000000E+00 0. -1.
         23    2    1    2    0    0 -0.34864736691E+03  0.10409804210E+04 -0.53094533013E+02  0.11028964584E+04  0.91467726924E+02 0.  0.
         11    1    3    3    0    0 -0.15442684614E+03  0.36864338834E+03 -0.52137929755E+02  0.40306818567E+03  0.00000000000E+00 0. -1.
        -11    1    3    3    0    0 -0.19422052077E+03  0.67233703266E+03 -0.95660325839E+00  0.69982827269E+03  0.00000000000E+00 0.  1.
         22    1    1    2    0    0  0.34864736691E+03 -0.10409804210E+04 -0.13962141315E+04  0.17761219340E+04  0.00000000000E+00 0. -1.
<mgrwt>
<rscale>  0 0.24876196E+04</rscale>
<asrwt>0</asrwt>
<pdfrwt beam="1">  1        2 0.33294823E+00 0.24876196E+04</pdfrwt>
<pdfrwt beam="2">  1       -2 0.10997767E+00 0.24876196E+04</pdfrwt>
<totfact> 0.31740494E+00</totfact>
</mgrwt>
</event>
<event>
 6    1  0.2236204E-005  0.2320211E+04  0.7818608E-02  0.8469995E-01
         -2   -1    0    0    0  501 -0.00000000000E+00  0.00000000000E+00  0.70537705384E+03  0.70537705384E+03  0.00000000000E+00 0.  1.
          2   -1    0    0  501    0  0.00000000000E+00 -0.00000000000E+00 -0.19079788711E+04  0.19079788711E+04  0.00000000000E+00 0. -1.
         23    2    1    2    0    0  0.22613072463E+03 -0.11259376687E+04 -0.77198903065E+03  0.13868576125E+04  0.92391749062E+02 0.  0.
         13    1    3    3    0    0  0.11777752463E+03 -0.52770222737E+03 -0.41725988150E+03  0.68296924879E+03  0.00000000000E+00 0.  1.
        -13    1    3    3    0    0  0.10835320000E+03 -0.59823544137E+03 -0.35472914914E+03  0.70388836368E+03  0.00000000000E+00 0. -1.
         22    1    1    2    0    0 -0.22613072463E+03  0.11259376687E+04 -0.43061278662E+03  0.12264983125E+04  0.00000000000E+00 0. -1.
<mgrwt>
<rscale>  0 0.23202108E+04</rscale>
<asrwt>0</asrwt>
<pdfrwt beam="1">  1        2 0.29353521E+00 0.23202108E+04</pdfrwt>
<pdfrwt beam="2">  1       -2 0.10851955E+00 0.23202108E+04</pdfrwt>
<totfact> 0.46188742E+00</totfact>
</mgrwt>
</event>
<event>
 6    1  0.2236204E-005  0.1586355E+04  0.7818608E-02  0.8828975E-01
         -2   -1    0    0    0  501 -0.00000000000E+00  0.00000000000E+00  0.19483016225E+03  0.19483016225E+03  0.00000000000E+00 0.  1.
          2   -1    0    0  501    0  0.00000000000E+00 -0.00000000000E+00 -0.32291237831E+04  0.32291237831E+04  0.00000000000E+00 0. -1.
         23    2    1    2    0    0 -0.34594185374E+03  0.59426873633E+03 -0.68021546076E+03  0.97150311386E+03  0.91072114380E+02 0.  0.
         13    1    3    3    0    0 -0.24195454212E+03  0.46822626097E+03 -0.47800634047E+03  0.71152504766E+03  0.00000000000E+00 0. -1.
        -13    1    3    3    0    0 -0.10398731163E+03  0.12604247536E+03 -0.20220912030E+03  0.25997806620E+03  0.00000000000E+00 0.  1.
         22    1    1    2    0    0  0.34594185374E+03 -0.59426873633E+03 -0.23540781601E+04  0.24524508315E+04  0.00000000000E+00 0. -1.
<mgrwt>
<rscale>  0 0.15863552E+04</rscale>
<asrwt>0</asrwt>
<pdfrwt beam="1">  1        2 0.49678828E+00 0.15863552E+04</pdfrwt>
<pdfrwt beam="2">  1       -2 0.29973871E-01 0.15863552E+04</pdfrwt>
<totfact> 0.12341982E+01</totfact>
</mgrwt>
</event>
<event>
 6    1  0.2236204E-005  0.2292454E+04  0.7818608E-02  0.8480902E-01
          2   -1    0    0  501    0  0.00000000000E+00  0.00000000000E+00  0.92243814728E+03  0.92243814728E+03  0.00000000000E+00 0. -1.
         -2   -1    0    0    0  501 -0.00000000000E+00 -0.00000000000E+00 -0.14243084703E+04  0.14243084703E+04  0.00000000000E+00 0.  1.
         23    2    1    2    0    0 -0.93290664711E+03  0.62858820508E+03 -0.35883312018E+02  0.11291334450E+04  0.90646459690E+02 0.  0.
         11    1    3    3    0    0 -0.14348645824E+03  0.13725140436E+03  0.10559444048E+01  0.19856340729E+03  0.00000000000E+00 0.  1.
        -11    1    3    3    0    0 -0.78942018886E+03  0.49133680072E+03 -0.36939256423E+02  0.93057003766E+03  0.00000000000E+00 0. -1.
         22    1    1    2    0    0  0.93290664711E+03 -0.62858820508E+03 -0.46598701103E+03  0.12176131727E+04  0.00000000000E+00 0. -1.
<mgrwt>
<rscale>  0 0.22924541E+04</rscale>
<asrwt>0</asrwt>
<pdfrwt beam="1">  1        2 0.14191356E+00 0.22924541E+04</pdfrwt>
<pdfrwt beam="2">  1       -2 0.21912438E+00 0.22924541E+04</pdfrwt>
<totfact> 0.25710527E+00</totfact>
</mgrwt>
</event>
<event>
 6    1  0.2236204E-005  0.8981062E+03  0.7818608E-02  0.9427952E-01
          2   -1    0    0  501    0  0.00000000000E+00  0.00000000000E+00  0.34071298147E+03  0.34071298147E+03  0.00000000000E+00 0. -1.
         -2   -1    0    0    0  501 -0.00000000000E+00 -0.00000000000E+00 -0.59184328767E+03  0.59184328767E+03  0.00000000000E+00 0.  1.
         23    2    1    2    0    0  0.23883060619E+03  0.90426737019E+01 -0.51593202603E+03  0.57584661238E+03  0.91058426842E+02 0.  0.
         11    1    3    3    0    0  0.43843156976E+02 -0.13859242913E+02 -0.39755829847E+02  0.60785088916E+02  0.00000000000E+00 0. -1.
        -11    1    3    3    0    0  0.19498744922E+03  0.22901916615E+02 -0.47617619619E+03  0.51506152346E+03  0.00000000000E+00 0.  1.
         22    1    1    2    0    0 -0.23883060619E+03 -0.90426737019E+01  0.26480171984E+03  0.35670965676E+03  0.00000000000E+00 0. -1.
<mgrwt>
<rscale>  0 0.89810621E+03</rscale>
<asrwt>0</asrwt>
<pdfrwt beam="1">  1        2 0.52417382E-01 0.89810621E+03</pdfrwt>
<pdfrwt beam="2">  1       -2 0.91052813E-01 0.89810621E+03</pdfrwt>
<totfact> 0.98342776E+01</totfact>
</mgrwt>
</event>
<event>
 6    1  0.2236204E-005  0.4811533E+04  0.7818608E-02  0.7858256E-01
         -2   -1    0    0    0  501 -0.00000000000E+00  0.00000000000E+00  0.21276556675E+04  0.21276556675E+04  0.00000000000E+00 0.  1.
          2   -1    0    0  501    0  0.00000000000E+00 -0.00000000000E+00 -0.27202303544E+04  0.27202303544E+04  0.00000000000E+00 0. -1.
         23    2    1    2    0    0 -0.18771221343E+04 -0.14249039743E+04 -0.77927311965E+03  0.24838227512E+04  0.90388168374E+02 0.  0.
         11    1    3    3    0    0 -0.12156073321E+04 -0.87065199809E+03 -0.48021808688E+03  0.15704602824E+04  0.00000000000E+00 0.  1.
        -11    1    3    3    0    0 -0.66151480222E+03 -0.55425197623E+03 -0.29905503278E+03  0.91336246876E+03  0.00000000000E+00 0. -1.
         22    1    1    2    0    0  0.18771221343E+04  0.14249039743E+04  0.18669843271E+03  0.23640632707E+04  0.00000000000E+00 0.  1.
<mgrwt>
<rscale>  0 0.48115334E+04</rscale>
<asrwt>0</asrwt>
<pdfrwt beam="1">  1        2 0.41849698E+00 0.48115334E+04</pdfrwt>
<pdfrwt beam="2">  1       -2 0.32733164E+00 0.48115334E+04</pdfrwt>
<totfact> 0.41156614E-02</totfact>
</mgrwt>
</event>
<event>
 6    1  0.2236204E-005  0.4486842E+04  0.7818608E-02  0.7912944E-01
         -2   -1    0    0    0  501 -0.00000000000E+00  0.00000000000E+00  0.20645195938E+04  0.20645195938E+04  0.00000000000E+00 0.  1.
          2   -1    0    0  501    0  0.00000000000E+00 -0.00000000000E+00 -0.24378248169E+04  0.24378248169E+04  0.00000000000E+00 0. -1.
         23    2    1    2    0    0  0.17622731554E+04 -0.36735900173E+03 -0.15285372646E+04  0.23633913069E+04  0.92913884343E+02 0.  0.
         11    1    3    3    0    0  0.12998658438E+04 -0.28942960542E+03 -0.10817469628E+04  0.17156914641E+04  0.00000000000E+00 0. -1.
        -11    1    3    3    0    0  0.46240731165E+03 -0.77929396316E+02 -0.44679030174E+03  0.64769984283E+03  0.00000000000E+00 0.  1.
         22    1    1    2    0    0 -0.17622731554E+04  0.36735900173E+03  0.11552320414E+04  0.21389531038E+04  0.00000000000E+00 0.  1.
<mgrwt>
<rscale>  0 0.44868417E+04</rscale>
<asrwt>0</asrwt>
<pdfrwt beam="1">  1        2 0.37504997E+00 0.44868417E+04</pdfrwt>
<pdfrwt beam="2">  1       -2 0.31761840E+00 0.44868417E+04</pdfrwt>
<totfact> 0.71044019E-02</totfact>
</mgrwt>
</event>
<event>
 6    1  0.2236204E-005  0.1110033E+04  0.7818608E-02  0.9195468E-01
         -1   -1    0    0    0  501 -0.00000000000E+00  0.00000000000E+00  0.46043608942E+03  0.46043608942E+03  0.00000000000E+00 0.  1.
          1   -1    0    0  501    0  0.00000000000E+00 -0.00000000000E+00 -0.66902534274E+03  0.66902534274E+03  0.00000000000E+00 0. -1.
         23    2    1    2    0    0 -0.68367539905E+02  0.54327492999E+03 -0.17063671959E+03  0.58058789037E+03  0.90242109354E+02 0.  0.
         11    1    3    3    0    0  0.69319195866E+01  0.28497134775E+03 -0.10369023187E+03  0.30332883927E+03  0.00000000000E+00 0. -1.
        -11    1    3    3    0    0 -0.75299459492E+02  0.25830358224E+03 -0.66946487726E+02  0.27725905110E+03  0.00000000000E+00 0.  1.
         22    1    1    2    0    0  0.68367539905E+02 -0.54327492999E+03 -0.37952533730E+02  0.54887354180E+03  0.00000000000E+00 0.  1.
<mgrwt>
<rscale>  0 0.11100332E+04</rscale>
<asrwt>0</asrwt>
<pdfrwt beam="1">  1        1 0.10292697E+00 0.11100332E+04</pdfrwt>
<pdfrwt beam="2">  1       -1 0.70836322E-01 0.11100332E+04</pdfrwt>
<totfact> 0.58514149E+01</totfact>
</mgrwt>
</event>
<event>
 6    1  0.2236204E-005  0.3865335E+04  0.7818608E-02  0.8032278E-01
         -2   -1    0    0    0  501 -0.00000000000E+00  0.00000000000E+00  0.96955902558E+03  0.96955902558E+03  0.00000000000E+00 0.  1.
          2   -1    0    0  501    0  0.00000000000E+00 -0.00000000000E+00 -0.38524761765E+04  0.38524761765E+04  0.00000000000E+00 0. -1.
         23    2    1    2    0    0 -0.27708851631E+03 -0.14506574339E+04  0.11093740406E+03  0.14837197387E+04  0.89062444473E+02 0.  0.
         13    1    3    3    0    0 -0.65009802436E+02 -0.29508309594E+03 -0.12231715526E+02  0.30240688284E+03  0.00000000000E+00 0.  1.
        -13    1    3    3    0    0 -0.21207871388E+03 -0.11555743380E+04  0.12316911958E+03  0.11813128559E+04  0.00000000000E+00 0. -1.
         22    1    1    2    0    0  0.27708851631E+03  0.14506574339E+04 -0.29938545549E+04  0.33383154633E+04  0.00000000000E+00 0. -1.
<mgrwt>
<rscale>  0 0.38653347E+04</rscale>
<asrwt>0</asrwt>
<pdfrwt beam="1">  1        2 0.59268865E+00 0.38653347E+04</pdfrwt>
<pdfrwt beam="2">  1       -2 0.14916292E+00 0.38653347E+04</pdfrwt>
<totfact> 0.10825024E-01</totfact>
</mgrwt>
</event>
<event>
 6    1  0.2236204E-005  0.5609269E+03  0.7818608E-02  0.9989960E-01
         -2   -1    0    0    0  501 -0.00000000000E+00  0.00000000000E+00  0.19130523755E+02  0.19130523755E+02  0.00000000000E+00 0. -1.
          2   -1    0    0  501    0  0.00000000000E+00 -0.00000000000E+00 -0.41117400662E+04  0.41117400662E+04  0.00000000000E+00 0.  1.
         23    2    1    2    0    0  0.10974628625E+03  0.22090977959E+03 -0.29571475188E+04  0.29689242120E+04  0.94573520004E+02 0.  0.
         13    1    3    3    0    0  0.47011226039E+02  0.11238630184E+03 -0.93618376517E+03  0.94407668036E+03  0.00000000000E+00 0.  1.
        -13    1    3    3    0    0  0.62735060210E+02  0.10852347775E+03 -0.20209637536E+04  0.20248475317E+04  0.00000000000E+00 0. -1.
         22    1    1    2    0    0 -0.10974628625E+03 -0.22090977959E+03 -0.11354620236E+04  0.11619463779E+04  0.00000000000E+00 0. -1.
<mgrwt>
<rscale>  0 0.56092688E+03</rscale>
<asrwt>0</asrwt>
<pdfrwt beam="1">  1        2 0.63257637E+00 0.56092688E+03</pdfrwt>
<pdfrwt beam="2">  1       -2 0.29431530E-02 0.56092688E+03</pdfrwt>
<totfact> 0.14761110E+02</totfact>
</mgrwt>
</event>
<event>
 6    1  0.2236204E-005  0.5467461E+04  0.7818608E-02  0.7760182E-01
         -2   -1    0    0    0  501 -0.00000000000E+00  0.00000000000E+00  0.15636454439E+04  0.15636454439E+04  0.00000000000E+00 0.  1.
          2   -1    0    0  501    0  0.00000000000E+00 -0.00000000000E+00 -0.47793974984E+04  0.47793974984E+04  0.00000000000E+00 0. -1.
         23    2    1    2    0    0 -0.10692726182E+04 -0.15267176492E+04 -0.39271169479E+04  0.43479863707E+04  0.92343081270E+02 0.  0.
         13    1    3    3    0    0 -0.22306263165E+03 -0.26036835577E+03 -0.69199983285E+03  0.77227740288E+03  0.00000000000E+00 0.  1.
        -13    1    3    3    0    0 -0.84620998657E+03 -0.12663492935E+04 -0.32351171150E+04  0.35757089678E+04  0.00000000000E+00 0. -1.
         22    1    1    2    0    0  0.10692726182E+04  0.15267176492E+04  0.71136489331E+03  0.19950565716E+04  0.00000000000E+00 0.  1.
<mgrwt>
<rscale>  0 0.54674612E+04</rscale>
<asrwt>0</asrwt>
<pdfrwt beam="1">  1        2 0.73529190E+00 0.54674612E+04</pdfrwt>
<pdfrwt beam="2">  1       -2 0.24056084E+00 0.54674612E+04</pdfrwt>
<totfact> 0.31886392E-03</totfact>
</mgrwt>
</event>
<event>
 6    1  0.2236204E-005  0.3243549E+04  0.7818608E-02  0.8177410E-01
          2   -1    0    0  501    0  0.00000000000E+00  0.00000000000E+00  0.25261623155E+04  0.25261623155E+04  0.00000000000E+00 0. -1.
         -2   -1    0    0    0  501 -0.00000000000E+00 -0.00000000000E+00 -0.10411651559E+04  0.10411651559E+04  0.00000000000E+00 0.  1.
         23    2    1    2    0    0  0.65992797857E+03 -0.16427844492E+02 -0.88466386816E+03  0.11074355637E+04  0.89490542717E+02 0.  0.
         11    1    3    3    0    0  0.11911038538E+03 -0.31348148774E+02 -0.19893425631E+03  0.23397612842E+03  0.00000000000E+00 0.  1.
        -11    1    3    3    0    0  0.54081759318E+03  0.14920304282E+02 -0.68572961185E+03  0.87345943532E+03  0.00000000000E+00 0. -1.
         22    1    1    2    0    0 -0.65992797857E+03  0.16427844492E+02  0.23696610277E+04  0.24598919076E+04  0.00000000000E+00 0. -1.
<mgrwt>
<rscale>  0 0.32435488E+04</rscale>
<asrwt>0</asrwt>
<pdfrwt beam="1">  1        2 0.38864035E+00 0.32435488E+04</pdfrwt>
<pdfrwt beam="2">  1       -2 0.16017926E+00 0.32435488E+04</pdfrwt>
<totfact> 0.70811504E-01</totfact>
</mgrwt>
</event>
<event>
 6    1  0.2236204E-005  0.5506866E+04  0.7818608E-02  0.7754745E-01
         -2   -1    0    0    0  501 -0.00000000000E+00  0.00000000000E+00  0.33026890239E+04  0.33026890239E+04  0.00000000000E+00 0.  1.
          2   -1    0    0  501    0  0.00000000000E+00 -0.00000000000E+00 -0.22955210069E+04  0.22955210069E+04  0.00000000000E+00 0. -1.
         23    2    1    2    0    0 -0.84293709578E+03  0.19404707746E+04 -0.12870044604E+04  0.24774413546E+04  0.73248960890E+02 0.  0.
         11    1    3    3    0    0 -0.58457542457E+03  0.12606815518E+04 -0.83562919912E+03  0.16215185970E+04  0.00000000000E+00 0.  1.
        -11    1    3    3    0    0 -0.25836167121E+03  0.67978922278E+03 -0.45137526126E+03  0.85592275764E+03  0.00000000000E+00 0. -1.
         22    1    1    2    0    0  0.84293709578E+03 -0.19404707746E+04  0.22941724773E+04  0.31207686762E+04  0.00000000000E+00 0.  1.
<mgrwt>
<rscale>  0 0.55068655E+04</rscale>
<asrwt>0</asrwt>
<pdfrwt beam="1">  1        2 0.35315708E+00 0.55068655E+04</pdfrwt>
<pdfrwt beam="2">  1       -2 0.50810600E+00 0.55068655E+04</pdfrwt>
<totfact> 0.47404785E-03</totfact>
</mgrwt>
</event>
<event>
 6    1  0.2236204E-005  0.4757220E+03  0.7818608E-02  0.1020318E+00
          2   -1    0    0  501    0  0.00000000000E+00  0.00000000000E+00  0.28261626444E+04  0.28261626444E+04  0.00000000000E+00 0. -1.
         -2   -1    0    0    0  501 -0.00000000000E+00 -0.00000000000E+00 -0.20019317507E+02  0.20019317507E+02  0.00000000000E+00 0.  1.
         23    2    1    2    0    0  0.48375572866E+02 -0.88814187630E+02  0.26847802128E+04  0.26882036044E+04  0.90364106612E+02 0.  0.
         13    1    3    3    0    0  0.21363033157E+02  0.10311015663E+02  0.10078234579E+04  0.10081025834E+04  0.00000000000E+00 0.  1.
        -13    1    3    3    0    0  0.27012539709E+02 -0.99125203293E+02  0.16769567549E+04  0.16801010211E+04  0.00000000000E+00 0. -1.
         22    1    1    2    0    0 -0.48375572866E+02  0.88814187630E+02  0.12136311410E+03  0.15797835750E+03  0.00000000000E+00 0.  1.
<mgrwt>
<rscale>  0 0.47572197E+03</rscale>
<asrwt>0</asrwt>
<pdfrwt beam="1">  1        2 0.43479394E+00 0.47572197E+03</pdfrwt>
<pdfrwt beam="2">  1       -2 0.30798973E-02 0.47572197E+03</pdfrwt>
<totfact> 0.10430327E+03</totfact>
</mgrwt>
</event>
<event>
 6    1  0.2236204E-005  0.2048920E+04  0.7818608E-02  0.8584085E-01
          1   -1    0    0  501    0  0.00000000000E+00  0.00000000000E+00  0.21748054700E+04  0.21748054700E+04  0.00000000000E+00 0. -1.
         -1   -1    0    0    0  501 -0.00000000000E+00 -0.00000000000E+00 -0.48258021058E+03  0.48258021058E+03  0.00000000000E+00 0.  1.
         23    2    1    2    0    0 -0.51069093167E+03 -0.51634984873E+02 -0.29988513104E+03  0.60020916723E+03  0.82755986216E+02 0.  0.
         13    1    3    3    0    0 -0.13786823839E+03 -0.46132052583E+02 -0.10621377626E+03  0.18004772617E+03  0.00000000000E+00 0.  1.
        -13    1    3    3    0    0 -0.37282269329E+03 -0.55029322901E+01 -0.19367135477E+03  0.42016144106E+03  0.00000000000E+00 0. -1.
         22    1    1    2    0    0  0.51069093167E+03  0.51634984873E+02  0.19921103905E+04  0.20571765134E+04  0.00000000000E+00 0. -1.
<mgrwt>
<rscale>  0 0.20489198E+04</rscale>
<asrwt>0</asrwt>
<pdfrwt beam="1">  1        1 0.33458545E+00 0.20489198E+04</pdfrwt>
<pdfrwt beam="2">  1       -1 0.74243110E-01 0.20489198E+04</pdfrwt>
<totfact> 0.38234518E+00</totfact>
</mgrwt>
</event>
<event>
 6    1  0.2236204E-005  0.2071338E+04  0.7818608E-02  0.8573975E-01
         -2   -1    0    0    0  501 -0.00000000000E+00  0.00000000000E+00  0.13763852470E+04  0.13763852470E+04  0.00000000000E+00 0.  1.
          2   -1    0    0  501    0  0.00000000000E+00 -0.00000000000E+00 -0.77929514345E+03  0.77929514345E+03  0.00000000000E+00 0. -1.
         23    2    1    2    0    0 -0.41288556608E+03 -0.33689256813E+03  0.12208486656E+04  0.13352866820E+04  0.92455210192E+02 0.  0.
         13    1    3    3    0    0 -0.19980207470E+03 -0.22028149804E+03  0.64194644224E+03  0.70748854559E+03  0.00000000000E+00 0. -1.
        -13    1    3    3    0    0 -0.21308349138E+03 -0.11661107009E+03  0.57890222333E+03  0.62779813646E+03  0.00000000000E+00 0.  1.
         22    1    1    2    0    0  0.41288556608E+03  0.33689256813E+03 -0.62375856200E+03  0.82039370842E+03  0.00000000000E+00 0. -1.
<mgrwt>
<rscale>  0 0.20713381E+04</rscale>
<asrwt>0</asrwt>
<pdfrwt beam="1">  1        2 0.11989156E+00 0.20713381E+04</pdfrwt>
<pdfrwt beam="2">  1       -2 0.21175158E+00 0.20713381E+04</pdfrwt>
<totfact> 0.36739111E+00</totfact>
</mgrwt>
</event>
<event>
 6    1  0.2236204E-005  0.1851521E+04  0.7818608E-02  0.8679371E-01
          2   -1    0    0  501    0  0.00000000000E+00  0.00000000000E+00  0.13362202834E+04  0.13362202834E+04  0.00000000000E+00 0. -1.
         -2   -1    0    0    0  501 -0.00000000000E+00 -0.00000000000E+00 -0.64138550226E+03  0.64138550226E+03  0.00000000000E+00 0.  1.
         23    2    1    2    0    0 -0.67910454879E+03  0.62392123497E+03  0.39760923612E+03  0.10086869448E+04  0.94316235267E+02 0.  0.
         11    1    3    3    0    0 -0.47749940006E+03  0.45328039345E+03  0.32788834165E+03  0.73551312479E+03  0.00000000000E+00 0. -1.
        -11    1    3    3    0    0 -0.20160514873E+03  0.17064084152E+03  0.69720894464E+02  0.27317381996E+03  0.00000000000E+00 0.  1.
         22    1    1    2    0    0  0.67910454879E+03 -0.62392123497E+03  0.29722554502E+03  0.96891884090E+03  0.00000000000E+00 0. -1.
<mgrwt>
<rscale>  0 0.18515208E+04</rscale>
<asrwt>0</asrwt>
<pdfrwt beam="1">  1        2 0.20557235E+00 0.18515208E+04</pdfrwt>
<pdfrwt beam="2">  1       -2 0.98674693E-01 0.18515208E+04</pdfrwt>
<totfact> 0.12624358E+01</totfact>
</mgrwt>
</event>
<event>
 6    1  0.2236204E-005  0.1907025E+04  0.7818608E-02  0.8651367E-01
          2   -1    0    0  501    0  0.00000000000E+00  0.00000000000E+00  0.76875486106E+03  0.76875486106E+03  0.00000000000E+00 0. -1.
         -2   -1    0    0    0  501 -0.00000000000E+00 -0.00000000000E+00 -0.11826736332E+04  0.11826736332E+04  0.00000000000E+00 0.  1.
         23    2    1    2    0    0 -0.46013699355E+02 -0.95023497021E+03 -0.21082746922E+03  0.97864391565E+03  0.90729999010E+02 0.  0.
         11    1    3    3    0    0  0.24563306437E+02 -0.27659229890E+03 -0.77807981230E+02  0.28837603537E+03  0.00000000000E+00 0. -1.
        -11    1    3    3    0    0 -0.70577005792E+02 -0.67364267131E+03 -0.13301948799E+03  0.69026788028E+03  0.00000000000E+00 0.  1.
         22    1    1    2    0    0  0.46013699355E+02  0.95023497021E+03 -0.20309130295E+03  0.97278457865E+03  0.00000000000E+00 0. -1.
<mgrwt>
<rscale>  0 0.19070250E+04</rscale>
<asrwt>0</asrwt>
<pdfrwt beam="1">  1        2 0.11826998E+00 0.19070250E+04</pdfrwt>
<pdfrwt beam="2">  1       -2 0.18194979E+00 0.19070250E+04</pdfrwt>
<totfact> 0.59715413E+00</totfact>
</mgrwt>
</event>
<event>
 6    1  0.2236204E-005  0.3395135E+04  0.7818608E-02  0.8139101E-01
         -2   -1    0    0    0  501 -0.00000000000E+00  0.00000000000E+00  0.12285063607E+04  0.12285063607E+04  0.00000000000E+00 0.  1.
          2   -1    0    0  501    0  0.00000000000E+00 -0.00000000000E+00 -0.23457226560E+04  0.23457226560E+04  0.00000000000E+00 0. -1.
         23    2    1    2    0    0 -0.48548836160E+03  0.15745312234E+04 -0.13447125138E+03  0.16557308165E+04  0.92274031157E+02 0.  0.
         13    1    3    3    0    0 -0.17004485031E+03  0.41554694105E+03 -0.27579301412E+02  0.44983900364E+03  0.00000000000E+00 0.  1.
        -13    1    3    3    0    0 -0.31544351130E+03  0.11589842823E+04 -0.10689194997E+03  0.12058918129E+04  0.00000000000E+00 0. -1.
         22    1    1    2    0    0  0.48548836160E+03 -0.15745312234E+04 -0.98274504388E+03  0.19184982001E+04  0.00000000000E+00 0. -1.
<mgrwt>
<rscale>  0 0.33951349E+04</rscale>
<asrwt>0</asrwt>
<pdfrwt beam="1">  1        2 0.36088041E+00 0.33951349E+04</pdfrwt>
<pdfrwt beam="2">  1       -2 0.18900098E+00 0.33951349E+04</pdfrwt>
<totfact> 0.55705030E-01</totfact>
</mgrwt>
</event>
<event>
 6    1  0.2236204E-005  0.1336938E+04  0.7818608E-02  0.9000775E-01
         -2   -1    0    0    0  501 -0.00000000000E+00  0.00000000000E+00  0.17201994255E+03  0.17201994255E+03  0.00000000000E+00 0.  1.
          2   -1    0    0  501    0  0.00000000000E+00 -0.00000000000E+00 -0.25976672067E+04  0.25976672067E+04  0.00000000000E+00 0. -1.
         23    2    1    2    0    0  0.13292234259E+03  0.41033139976E+03 -0.17010597600E+03  0.47327544633E+03  0.94938918449E+02 0.  0.
         11    1    3    3    0    0  0.94844572396E+01  0.97317263307E+02 -0.76139846130E+02  0.12392691732E+03  0.00000000000E+00 0. -1.
        -11    1    3    3    0    0  0.12343788535E+03  0.31301413645E+03 -0.93966129870E+02  0.34934852901E+03  0.00000000000E+00 0.  1.
         22    1    1    2    0    0 -0.13292234259E+03 -0.41033139976E+03 -0.22555412881E+04  0.22964117029E+04  0.00000000000E+00 0. -1.
<mgrwt>
<rscale>  0 0.13369376E+04</rscale>
<asrwt>0</asrwt>
<pdfrwt beam="1">  1        2 0.39964111E+00 0.13369376E+04</pdfrwt>
<pdfrwt beam="2">  1       -2 0.26464606E-01 0.13369376E+04</pdfrwt>
<totfact> 0.38802976E+01</totfact>
</mgrwt>
</event>
<event>
 6    1  0.2236204E-005  0.3774607E+04  0.7818608E-02  0.8051626E-01
          2   -1    0    0  501    0  0.00000000000E+00  0.00000000000E+00  0.21581721515E+04  0.21581721515E+04  0.00000000000E+00 0. -1.
         -2   -1    0    0    0  501 -0.00000000000E+00 -0.00000000000E+00 -0.16504308272E+04  0.16504308272E+04  0.00000000000E+00 0.  1.
         23    2    1    2    0    0 -0.17870484652E+04 -0.89325423821E+02 -0.34835337121E+03  0.18250658916E+04  0.89410229015E+02 0.  0.
         13    1    3    3    0    0 -0.25668561877E+03  0.18099241040E+02 -0.55308229210E+02  0.26319971434E+03  0.00000000000E+00 0. -1.
        -13    1    3    3    0    0 -0.15303628464E+04 -0.10742466486E+03 -0.29304514200E+03  0.15618661772E+04  0.00000000000E+00 0.  1.
         22    1    1    2    0    0  0.17870484652E+04  0.89325423821E+02  0.85609469555E+03  0.19835370871E+04  0.00000000000E+00 0.  1.
<mgrwt>
<rscale>  0 0.37746067E+04</rscale>
<asrwt>0</asrwt>
<pdfrwt beam="1">  1        2 0.33202648E+00 0.37746067E+04</pdfrwt>
<pdfrwt beam="2">  1       -2 0.25391244E+00 0.37746067E+04</pdfrwt>
<totfact> 0.26630989E-01</totfact>
</mgrwt>
</event>
<event>
 6    1  0.2236204E-005  0.1863176E+04  0.7818608E-02  0.8673406E-01
          2   -1    0    0  501    0  0.00000000000E+00  0.00000000000E+00  0.23406534263E+04  0.23406534263E+04  0.00000000000E+00 0. -1.
         -2   -1    0    0    0  501 -0.00000000000E+00 -0.00000000000E+00 -0.37077517652E+03  0.37077517652E+03  0.00000000000E+00 0.  1.
         23    2    1    2    0    0  0.86205815288E+03  0.29503528557E+03  0.12537535124E+04  0.15525391697E+04  0.91049025148E+02 0.  0.
         11    1    3    3    0    0  0.24341966174E+03  0.97928087684E+02  0.29726828440E+03  0.39649902268E+03  0.00000000000E+00 0. -1.
        -11    1    3    3    0    0  0.61863849114E+03  0.19710719789E+03  0.95648522797E+03  0.11560401470E+04  0.00000000000E+00 0.  1.
         22    1    1    2    0    0 -0.86205815288E+03 -0.29503528557E+03  0.71612473738E+03  0.11588894331E+04  0.00000000000E+00 0.  1.
<mgrwt>
<rscale>  0 0.18631760E+04</rscale>
<asrwt>0</asrwt>
<pdfrwt beam="1">  1        2 0.36010052E+00 0.18631760E+04</pdfrwt>
<pdfrwt beam="2">  1       -2 0.57042336E-01 0.18631760E+04</pdfrwt>
<totfact> 0.11637888E+01</totfact>
</mgrwt>
</event>
<event>
 6    1  0.2236204E-005  0.7683701E+03  0.7818608E-02  0.9606963E-01
         -1   -1    0    0    0  501 -0.00000000000E+00  0.00000000000E+00  0.82273204555E+03  0.82273204555E+03  0.00000000000E+00 0.  1.
          1   -1    0    0  501    0  0.00000000000E+00 -0.00000000000E+00 -0.17940004618E+03  0.17940004618E+03  0.00000000000E+00 0. -1.
         23    2    1    2    0    0  0.17993695691E+03 -0.23328055102E+02 -0.10731062184E+03  0.22987186915E+03  0.91673333365E+02 0.  0.
         11    1    3    3    0    0  0.63660303245E+02 -0.59590063916E+01 -0.90944771460E+02  0.11117146856E+03  0.00000000000E+00 0. -1.
        -11    1    3    3    0    0  0.11627665367E+03 -0.17369048710E+02 -0.16365850376E+02  0.11870040059E+03  0.00000000000E+00 0.  1.
         22    1    1    2    0    0 -0.17993695691E+03  0.23328055102E+02  0.75064262121E+03  0.77226022259E+03  0.00000000000E+00 0.  1.
<mgrwt>
<rscale>  0 0.76837014E+03</rscale>
<asrwt>0</asrwt>
<pdfrwt beam="1">  1        1 0.27600008E-01 0.76837014E+03</pdfrwt>
<pdfrwt beam="2">  1       -1 0.12657416E+00 0.76837014E+03</pdfrwt>
<totfact> 0.94393238E+01</totfact>
</mgrwt>
</event>
<event>
 6    1  0.2236204E-005  0.6033341E+04  0.7818608E-02  0.7686282E-01
          2   -1    0    0  501    0  0.00000000000E+00  0.00000000000E+00  0.55390537010E+04  0.55390537010E+04  0.00000000000E+00 0. -1.
         -2   -1    0    0    0  501 -0.00000000000E+00 -0.00000000000E+00 -0.16429340873E+04  0.16429340873E+04  0.00000000000E+00 0.  1.
         23    2    1    2    0    0  0.16761784599E+04  0.24771699252E+04  0.24104358172E+04  0.38423468778E+04  0.86507992071E+02 0.  0.
         11    1    3    3    0    0  0.76343980702E+03  0.11037997093E+04  0.11340132067E+04  0.17570429961E+04  0.00000000000E+00 0. -1.
        -11    1    3    3    0    0  0.91273865291E+03  0.13733702160E+04  0.12764226106E+04  0.20853038818E+04  0.00000000000E+00 0.  1.
         22    1    1    2    0    0 -0.16761784599E+04 -0.24771699252E+04  0.14856837965E+04  0.33396409105E+04  0.00000000000E+00 0. -1.
<mgrwt>
<rscale>  0 0.60333407E+04</rscale>
<asrwt>0</asrwt>
<pdfrwt beam="1">  1        2 0.85216210E+00 0.60333407E+04</pdfrwt>
<pdfrwt beam="2">  1       -2 0.25275909E+00 0.60333407E+04</pdfrwt>
<totfact> 0.20181947E-04</totfact>
</mgrwt>
</event>
<event>
 6    1  0.2236204E-005  0.9758992E+03  0.7818608E-02  0.9335380E-01
         -2   -1    0    0    0  501 -0.00000000000E+00  0.00000000000E+00  0.45227546252E+03  0.45227546252E+03  0.00000000000E+00 0.  1.
          2   -1    0    0  501    0  0.00000000000E+00 -0.00000000000E+00 -0.52643759037E+03  0.52643759037E+03  0.00000000000E+00 0. -1.
         23    2    1    2    0    0 -0.68928283313E+02 -0.27854955182E+03 -0.42800909206E+03  0.52313799306E+03  0.90225361378E+02 0.  0.
         13    1    3    3    0    0 -0.52991210169E+02 -0.95385592494E+02 -0.10478717517E+03  0.15128394393E+03  0.00000000000E+00 0.  1.
        -13    1    3    3    0    0 -0.15937073144E+02 -0.18316395932E+03 -0.32322191689E+03  0.37185404913E+03  0.00000000000E+00 0. -1.
         22    1    1    2    0    0  0.68928283313E+02  0.27854955182E+03  0.35384696421E+03  0.45557505983E+03  0.00000000000E+00 0.  1.
<mgrwt>
<rscale>  0 0.97589918E+03</rscale>
<asrwt>0</asrwt>
<pdfrwt beam="1">  1        2 0.80990399E-01 0.97589918E+03</pdfrwt>
<pdfrwt beam="2">  1       -2 0.69580840E-01 0.97589918E+03</pdfrwt>
<totfact> 0.10924142E+02</totfact>
</mgrwt>
</event>
<event>
 6    1  0.2236204E-005  0.5758543E+03  0.7818608E-02  0.9956807E-01
          2   -1    0    0  501    0  0.00000000000E+00  0.00000000000E+00  0.37426607077E+03  0.37426607077E+03  0.00000000000E+00 0. -1.
         -2   -1    0    0    0  501 -0.00000000000E+00 -0.00000000000E+00 -0.22150564897E+03  0.22150564897E+03  0.00000000000E+00 0.  1.
         23    2    1    2    0    0 -0.25018052596E+03  0.96509934707E+02 -0.30064675429E+01  0.28566240533E+03  0.98435298076E+02 0.  0.
         11    1    3    3    0    0 -0.18005372137E+03  0.85036596229E+02  0.39295797460E+02  0.20296483679E+03  0.00000000000E+00 0. -1.
        -11    1    3    3    0    0 -0.70126804594E+02  0.11473338479E+02 -0.42302265003E+02  0.82697568542E+02  0.00000000000E+00 0.  1.
         22    1    1    2    0    0  0.25018052596E+03 -0.96509934707E+02  0.15576688934E+03  0.31010931440E+03  0.00000000000E+00 0. -1.
<mgrwt>
<rscale>  0 0.57585432E+03</rscale>
<asrwt>0</asrwt>
<pdfrwt beam="1">  1        2 0.57579395E-01 0.57585432E+03</pdfrwt>
<pdfrwt beam="2">  1       -2 0.34077792E-01 0.57585432E+03</pdfrwt>
<totfact> 0.69490201E+02</totfact>
</mgrwt>
</event>
<event>
 6    1  0.2236204E-005  0.1453707E+04  0.7818608E-02  0.8915835E-01
          2   -1    0    0  501    0  0.00000000000E+00  0.00000000000E+00  0.23220011150E+04  0.23220011150E+04  0.00000000000E+00 0.  1.
         -2   -1    0    0    0  501 -0.00000000000E+00 -0.00000000000E+00 -0.22752616964E+03  0.22752616964E+03  0.00000000000E+00 0. -1.
         23    2    1    2    0    0 -0.38377331838E+03  0.59331373334E+03  0.13283351570E+04  0.15072829173E+04  0.90135216217E+02 0.  0.
         11    1    3    3    0    0 -0.23202641179E+03  0.43386958124E+03  0.90063302254E+03  0.10262645422E+04  0.00000000000E+00 0.  1.
        -11    1    3    3    0    0 -0.15174690659E+03  0.15944415210E+03  0.42770213449E+03  0.48101837506E+03  0.00000000000E+00 0. -1.
         22    1    1    2    0    0  0.38377331838E+03 -0.59331373334E+03  0.76613978832E+03  0.10422443674E+04  0.00000000000E+00 0. -1.
<mgrwt>
<rscale>  0 0.14537070E+04</rscale>
<asrwt>0</asrwt>
<pdfrwt beam="1">  1        2 0.35723093E+00 0.14537070E+04</pdfrwt>
<pdfrwt beam="2">  1       -2 0.35004028E-01 0.14537070E+04</pdfrwt>
<totfact> 0.32773521E+01</totfact>
</mgrwt>
</event>
<event>
 6    1  0.2236204E-005  0.1540065E+04  0.7818608E-02  0.8858239E-01
          1   -1    0    0  501    0  0.00000000000E+00  0.00000000000E+00  0.13462987884E+04  0.13462987884E+04  0.00000000000E+00 0. -1.
         -1   -1    0    0    0  501 -0.00000000000E+00 -0.00000000000E+00 -0.44042960456E+03  0.44042960456E+03  0.00000000000E+00 0.  1.
         23    2    1    2    0    0  0.54094501866E+03  0.27606774180E+03 -0.88422684491E+02  0.62163130228E+03  0.98853394338E+02 0.  0.
         11    1    3    3    0    0  0.35220130767E+03  0.20654970017E+03 -0.18618407793E+02  0.40872384916E+03  0.00000000000E+00 0.  1.
        -11    1    3    3    0    0  0.18874371099E+03  0.69518041633E+02 -0.69804276697E+02  0.21290745313E+03  0.00000000000E+00 0. -1.
         22    1    1    2    0    0 -0.54094501866E+03 -0.27606774180E+03  0.99429186837E+03  0.11650970907E+04  0.00000000000E+00 0. -1.
<mgrwt>
<rscale>  0 0.15400647E+04</rscale>
<asrwt>0</asrwt>
<pdfrwt beam="1">  1        1 0.20712289E+00 0.15400647E+04</pdfrwt>
<pdfrwt beam="2">  1       -1 0.67758401E-01 0.15400647E+04</pdfrwt>
<totfact> 0.17828993E+01</totfact>
</mgrwt>
</event>
<event>
 6    1  0.2236204E-005  0.1359516E+04  0.7818608E-02  0.8983656E-01
          2   -1    0    0  501    0  0.00000000000E+00  0.00000000000E+00  0.20212705571E+04  0.20212705571E+04  0.00000000000E+00 0. -1.
         -2   -1    0    0    0  501 -0.00000000000E+00 -0.00000000000E+00 -0.22860407125E+03  0.22860407125E+03  0.00000000000E+00 0.  1.
         23    2    1    2    0    0 -0.12132518243E+03 -0.63894988183E+03  0.12097364036E+04  0.13764994328E+04  0.91168914801E+02 0.  0.
         11    1    3    3    0    0 -0.13425746081E+03 -0.52032762592E+03  0.98472164651E+03  0.11218032917E+04  0.00000000000E+00 0.  1.
        -11    1    3    3    0    0  0.12932278384E+02 -0.11862225591E+03  0.22501475707E+03  0.25469614115E+03  0.00000000000E+00 0. -1.
         22    1    1    2    0    0  0.12132518243E+03  0.63894988183E+03  0.58293008230E+03  0.87337519556E+03  0.00000000000E+00 0.  1.
<mgrwt>
<rscale>  0 0.13595156E+04</rscale>
<asrwt>0</asrwt>
<pdfrwt beam="1">  1        2 0.31096469E+00 0.13595156E+04</pdfrwt>
<pdfrwt beam="2">  1       -2 0.35169859E-01 0.13595156E+04</pdfrwt>
<totfact> 0.48207085E+01</totfact>
</mgrwt>
</event>
<event>
 6    1  0.2236204E-005  0.2735346E+04  0.7818608E-02  0.8323627E-01
         -2   -1    0    0    0  501 -0.00000000000E+00  0.00000000000E+00  0.61177769033E+03  0.61177769033E+03  0.00000000000E+00 0.  1.
          2   -1    0    0  501    0  0.00000000000E+00 -0.00000000000E+00 -0.30575307697E+04  0.30575307697E+04  0.00000000000E+00 0. -1.
         23    2    1    2    0    0 -0.89207010882E+03 -0.67961379452E+03 -0.17786988356E+03  0.11392969623E+04  0.93251724550E+02 0.  0.
         11    1    3    3    0    0 -0.39798487895E+03 -0.35704733896E+03 -0.66057106558E+02  0.53873769819E+03  0.00000000000E+00 0. -1.
        -11    1    3    3    0    0 -0.49408522987E+03 -0.32256645556E+03 -0.11181277700E+03  0.60055926413E+03  0.00000000000E+00 0.  1.
         22    1    1    2    0    0  0.89207010882E+03  0.67961379452E+03 -0.22678831959E+04  0.25300114978E+04  0.00000000000E+00 0. -1.
<mgrwt>
<rscale>  0 0.27353458E+04</rscale>
<asrwt>0</asrwt>
<pdfrwt beam="1">  1        2 0.47038935E+00 0.27353458E+04</pdfrwt>
<pdfrwt beam="2">  1       -2 0.94119645E-01 0.27353458E+04</pdfrwt>
<totfact> 0.13340400E+00</totfact>
</mgrwt>
</event>
<event>
 6    1  0.2236204E-005  0.3435042E+04  0.7818608E-02  0.8129359E-01
         -2   -1    0    0    0  501 -0.00000000000E+00  0.00000000000E+00  0.11240765376E+04  0.11240765376E+04  0.00000000000E+00 0.  1.
          2   -1    0    0  501    0  0.00000000000E+00 -0.00000000000E+00 -0.26242686650E+04  0.26242686650E+04  0.00000000000E+00 0. -1.
         23    2    1    2    0    0  0.14074282637E+04 -0.76151184795E+03 -0.14276844122E+04  0.21464675604E+04  0.91025243598E+02 0.  0.
         13    1    3    3    0    0  0.61296712820E+03 -0.32924983464E+03 -0.68143233425E+03  0.97390152481E+03  0.00000000000E+00 0. -1.
        -13    1    3    3    0    0  0.79446113547E+03 -0.43226201332E+03 -0.74625207791E+03  0.11725660355E+04  0.00000000000E+00 0.  1.
         22    1    1    2    0    0 -0.14074282637E+04  0.76151184795E+03 -0.72507715264E+02  0.16018776422E+04  0.00000000000E+00 0.  1.
<mgrwt>
<rscale>  0 0.34350423E+04</rscale>
<asrwt>0</asrwt>
<pdfrwt beam="1">  1        2 0.40373363E+00 0.34350423E+04</pdfrwt>
<pdfrwt beam="2">  1       -2 0.17293486E+00 0.34350423E+04</pdfrwt>
<totfact> 0.49410998E-01</totfact>
</mgrwt>
</event>
<event>
 6    1  0.2236204E-005  0.2594571E+04  0.7818608E-02  0.8370048E-01
          2   -1    0    0  501    0  0.00000000000E+00  0.00000000000E+00  0.35624888470E+04  0.35624888470E+04  0.00000000000E+00 0. -1.
         -2   -1    0    0    0  501 -0.00000000000E+00 -0.00000000000E+00 -0.47240846533E+03  0.47240846533E+03  0.00000000000E+00 0.  1.
         23    2    1    2    0    0 -0.46711491646E+03  0.71531457912E+03  0.34745288717E+02  0.86236775021E+03  0.11224798101E+03 0.  0.
         11    1    3    3    0    0 -0.18176656378E+03  0.25889673688E+03 -0.40284606769E+02  0.31888783861E+03  0.00000000000E+00 0. -1.
        -11    1    3    3    0    0 -0.28534835268E+03  0.45641784224E+03  0.75029895486E+02  0.54347991160E+03  0.00000000000E+00 0.  1.
         22    1    1    2    0    0  0.46711491646E+03 -0.71531457912E+03  0.30553350929E+04  0.31725295621E+04  0.00000000000E+00 0. -1.
<mgrwt>
<rscale>  0 0.25945712E+04</rscale>
<asrwt>0</asrwt>
<pdfrwt beam="1">  1        2 0.54807519E+00 0.25945712E+04</pdfrwt>
<pdfrwt beam="2">  1       -2 0.72678227E-01 0.25945712E+04</pdfrwt>
<totfact> 0.11135760E+00</totfact>
</mgrwt>
</event>
<event>
 6    1  0.2236204E-005  0.6178409E+04  0.7818608E-02  0.7668666E-01
          2   -1    0    0  501    0  0.00000000000E+00  0.00000000000E+00  0.24209344146E+04  0.24209344146E+04  0.00000000000E+00 0. -1.
         -2   -1    0    0    0  501 -0.00000000000E+00 -0.00000000000E+00 -0.39419424247E+04  0.39419424247E+04  0.00000000000E+00 0.  1.
         23    2    1    2    0    0 -0.23237285490E+04 -0.91669576434E+03 -0.26312233915E+04  0.36292668293E+04  0.90530042401E+02 0.  0.
         13    1    3    3    0    0 -0.10588193108E+04 -0.40866028694E+03 -0.11312972576E+04  0.16024777840E+04  0.00000000000E+00 0.  1.
        -13    1    3    3    0    0 -0.12649092381E+04 -0.50803547740E+03 -0.14999261339E+04  0.20267890453E+04  0.00000000000E+00 0. -1.
         22    1    1    2    0    0  0.23237285490E+04  0.91669576434E+03  0.11102153813E+04  0.27336100100E+04  0.00000000000E+00 0. -1.
<mgrwt>
<rscale>  0 0.61784089E+04</rscale>
<asrwt>0</asrwt>
<pdfrwt beam="1">  1        2 0.37245145E+00 0.61784089E+04</pdfrwt>
<pdfrwt beam="2">  1       -2 0.60645267E+00 0.61784089E+04</pdfrwt>
<totfact> 0.12586331E-03</totfact>
</mgrwt>
</event>
<event>
 6    1  0.2236204E-005  0.2695666E+04  0.7818608E-02  0.8336412E-01
         -2   -1    0    0    0  501 -0.00000000000E+00  0.00000000000E+00  0.10954198537E+04  0.10954198537E+04  0.00000000000E+00 0.  1.
          2   -1    0    0  501    0  0.00000000000E+00 -0.00000000000E+00 -0.16584091400E+04  0.16584091400E+04  0.00000000000E+00 0. -1.
         23    2    1    2    0    0 -0.70760195951E+03  0.10250296353E+04 -0.80420400749E+03  0.14851403683E+04  0.86669150649E+02 0.  0.
         13    1    3    3    0    0 -0.17432361315E+03  0.28495115842E+03 -0.25633298171E+03  0.42106113844E+03  0.00000000000E+00 0.  1.
        -13    1    3    3    0    0 -0.53327834636E+03  0.74007847685E+03 -0.54787102578E+03  0.10640792299E+04  0.00000000000E+00 0. -1.
         22    1    1    2    0    0  0.70760195951E+03 -0.10250296353E+04  0.24121472120E+03  0.12686886253E+04  0.00000000000E+00 0.  1.
<mgrwt>
<rscale>  0 0.26956664E+04</rscale>
<asrwt>0</asrwt>
<pdfrwt beam="1">  1        2 0.25513987E+00 0.26956664E+04</pdfrwt>
<pdfrwt beam="2">  1       -2 0.16852613E+00 0.26956664E+04</pdfrwt>
<totfact> 0.19826911E+00</totfact>
</mgrwt>
</event>
<event>
 6    1  0.2236204E-005  0.2138960E+04  0.7818608E-02  0.8544273E-01
          2   -1    0    0  501    0  0.00000000000E+00  0.00000000000E+00  0.11593693976E+04  0.11593693976E+04  0.00000000000E+00 0.  1.
         -2   -1    0    0    0  501 -0.00000000000E+00 -0.00000000000E+00 -0.98656043813E+03  0.98656043813E+03  0.00000000000E+00 0. -1.
         23    2    1    2    0    0 -0.83925029373E+03 -0.36616969361E+03 -0.46409155397E+03  0.10305538614E+04  0.90768886578E+02 0.  0.
         13    1    3    3    0    0 -0.21520633114E+03 -0.94453339031E+02 -0.16468577539E+03  0.28697840134E+03  0.00000000000E+00 0.  1.
        -13    1    3    3    0    0 -0.62404396259E+03 -0.27171635458E+03 -0.29940577858E+03  0.74357546008E+03  0.00000000000E+00 0. -1.
         22    1    1    2    0    0  0.83925029373E+03  0.36616969361E+03  0.63690051343E+03  0.11153759743E+04  0.00000000000E+00 0.  1.
<mgrwt>
<rscale>  0 0.21389605E+04</rscale>
<asrwt>0</asrwt>
<pdfrwt beam="1">  1        2 0.17836452E+00 0.21389605E+04</pdfrwt>
<pdfrwt beam="2">  1       -2 0.15177853E+00 0.21389605E+04</pdfrwt>
<totfact> 0.53453836E+00</totfact>
</mgrwt>
</event>
<event>
 6    1  0.2236204E-005  0.2745440E+04  0.7818608E-02  0.8320410E-01
          2   -1    0    0  501    0  0.00000000000E+00  0.00000000000E+00  0.25488853882E+04  0.25488853882E+04  0.00000000000E+00 0. -1.
         -2   -1    0    0    0  501 -0.00000000000E+00 -0.00000000000E+00 -0.73928786781E+03  0.73928786781E+03  0.00000000000E+00 0.  1.
         23    2    1    2    0    0  0.52716524426E+02 -0.11162691865E+04  0.18573858262E+04  0.21696386563E+04  0.92810897486E+02 0.  0.
         11    1    3    3    0    0 -0.10666744228E+01 -0.83270918520E+03  0.13717604041E+04  0.16047218859E+04  0.00000000000E+00 0. -1.
        -11    1    3    3    0    0  0.53783198849E+02 -0.28356000129E+03  0.48562542208E+03  0.56491677031E+03  0.00000000000E+00 0.  1.
         22    1    1    2    0    0 -0.52716524426E+02  0.11162691865E+04 -0.47788305823E+02  0.11185345997E+04  0.00000000000E+00 0.  1.
<mgrwt>
<rscale>  0 0.27454399E+04</rscale>
<asrwt>0</asrwt>
<pdfrwt beam="1">  1        2 0.39213621E+00 0.27454399E+04</pdfrwt>
<pdfrwt beam="2">  1       -2 0.11373660E+00 0.27454399E+04</pdfrwt>
<totfact> 0.17258344E+00</totfact>
</mgrwt>
</event>
<event>
 6    1  0.2236204E-005  0.5021228E+03  0.7818608E-02  0.1013226E+00
          2   -1    0    0  501    0  0.00000000000E+00  0.00000000000E+00  0.92833650173E+02  0.92833650173E+02  0.00000000000E+00 0. -1.
         -2   -1    0    0    0  501 -0.00000000000E+00 -0.00000000000E+00 -0.67897608781E+03  0.67897608781E+03  0.00000000000E+00 0.  1.
         23    2    1    2    0    0  0.15889321011E+03  0.11627592525E+03 -0.84409738233E+02  0.23282657993E+03  0.91192485436E+02 0.  0.
         13    1    3    3    0    0  0.21286993914E+02  0.19441953903E+02  0.19739305942E+02  0.34939460221E+02  0.00000000000E+00 0. -1.
        -13    1    3    3    0    0  0.13760621620E+03  0.96833971350E+02 -0.10414904418E+03  0.19788711971E+03  0.00000000000E+00 0.  1.
         22    1    1    2    0    0 -0.15889321011E+03 -0.11627592525E+03 -0.50173269940E+03  0.53898315805E+03  0.00000000000E+00 0. -1.
<mgrwt>
<rscale>  0 0.50212281E+03</rscale>
<asrwt>0</asrwt>
<pdfrwt beam="1">  1        2 0.14282100E-01 0.50212281E+03</pdfrwt>
<pdfrwt beam="2">  1       -2 0.10445786E+00 0.50212281E+03</pdfrwt>
<totfact> 0.32068883E+02</totfact>
</mgrwt>
</event>
<event>
 6    1  0.2236204E-005  0.3801350E+04  0.7818608E-02  0.8045865E-01
         -2   -1    0    0    0  501 -0.00000000000E+00  0.00000000000E+00  0.10397107399E+04  0.10397107399E+04  0.00000000000E+00 0.  1.
          2   -1    0    0  501    0  0.00000000000E+00 -0.00000000000E+00 -0.34745865895E+04  0.34745865895E+04  0.00000000000E+00 0. -1.
         23    2    1    2    0    0  0.38149822662E+03  0.97994987018E+03 -0.30967913055E+04  0.32717295382E+04  0.90857780650E+02 0.  0.
         11    1    3    3    0    0  0.33116116098E+03  0.75528699100E+03 -0.23752613146E+04  0.25143572670E+04  0.00000000000E+00 0.  1.
        -11    1    3    3    0    0  0.50337065639E+02  0.22466287918E+03 -0.72152999086E+03  0.75737227119E+03  0.00000000000E+00 0. -1.
         22    1    1    2    0    0 -0.38149822662E+03 -0.97994987018E+03  0.66191545593E+03  0.12425677912E+04  0.00000000000E+00 0.  1.
<mgrwt>
<rscale>  0 0.38013498E+04</rscale>
<asrwt>0</asrwt>
<pdfrwt beam="1">  1        2 0.53455178E+00 0.38013498E+04</pdfrwt>
<pdfrwt beam="2">  1       -2 0.15995550E+00 0.38013498E+04</pdfrwt>
<totfact> 0.17086549E-01</totfact>
</mgrwt>
</event>
<event>
 6    1  0.2236204E-005  0.2052176E+04  0.7818608E-02  0.8582608E-01
         -1   -1    0    0    0  501 -0.00000000000E+00  0.00000000000E+00  0.70253303843E+03  0.70253303843E+03  0.00000000000E+00 0.  1.
          1   -1    0    0  501    0  0.00000000000E+00 -0.00000000000E+00 -0.14986575871E+04  0.14986575871E+04  0.00000000000E+00 0. -1.
         23    2    1    2    0    0  0.60339002735E+03 -0.52728437755E+03  0.28507132355E+03  0.85542212611E+03  0.91504177054E+02 0.  0.
         13    1    3    3    0    0  0.18224963551E+03 -0.18824172970E+03  0.13273241266E+03  0.29371375830E+03  0.00000000000E+00 0. -1.
        -13    1    3    3    0    0  0.42114039184E+03 -0.33904264786E+03  0.15233891089E+03  0.56170836782E+03  0.00000000000E+00 0.  1.
         22    1    1    2    0    0 -0.60339002735E+03  0.52728437755E+03 -0.10811958722E+04  0.13457684994E+04  0.00000000000E+00 0. -1.
<mgrwt>
<rscale>  0 0.20521759E+04</rscale>
<asrwt>0</asrwt>
<pdfrwt beam="1">  1        1 0.23056271E+00 0.20521759E+04</pdfrwt>
<pdfrwt beam="2">  1       -1 0.10808201E+00 0.20521759E+04</pdfrwt>
<totfact> 0.48162221E+00</totfact>
</mgrwt>
</event>
<event>
 6    1  0.2236204E-005  0.2264498E+04  0.7818608E-02  0.8492052E-01
         -2   -1    0    0    0  501 -0.00000000000E+00  0.00000000000E+00  0.73662561606E+03  0.73662561606E+03  0.00000000000E+00 0. -1.
          2   -1    0    0  501    0  0.00000000000E+00 -0.00000000000E+00 -0.17403513947E+04  0.17403513947E+04  0.00000000000E+00 0.  1.
         23    2    1    2    0    0  0.19185872405E+03 -0.69130235214E+03  0.45250008405E+03  0.85361553678E+03  0.95887676485E+02 0.  0.
         11    1    3    3    0    0  0.16692413665E+03 -0.53778701535E+03  0.39488682539E+03  0.68776023885E+03  0.00000000000E+00 0. -1.
        -11    1    3    3    0    0  0.24934587398E+02 -0.15351533679E+03  0.57613258657E+02  0.16585529793E+03  0.00000000000E+00 0.  1.
         22    1    1    2    0    0 -0.19185872405E+03  0.69130235214E+03 -0.14562258627E+04  0.16233614740E+04  0.00000000000E+00 0.  1.
<mgrwt>
<rscale>  0 0.22644977E+04</rscale>
<asrwt>0</asrwt>
<pdfrwt beam="1">  1        2 0.26774637E+00 0.22644977E+04</pdfrwt>
<pdfrwt beam="2">  1       -2 0.11332702E+00 0.22644977E+04</pdfrwt>
<totfact> 0.51751547E+00</totfact>
</mgrwt>
</event>
<event>
 6    1  0.2236204E-005  0.1390249E+04  0.7818608E-02  0.8960907E-01
          2   -1    0    0  501    0  0.00000000000E+00  0.00000000000E+00  0.21612150650E+04  0.21612150650E+04  0.00000000000E+00 0. -1.
         -2   -1    0    0    0  501 -0.00000000000E+00 -0.00000000000E+00 -0.22357698251E+03  0.22357698251E+03  0.00000000000E+00 0.  1.
         23    2    1    2    0    0  0.22066181161E+03  0.62245506990E+03  0.13283982238E+04  0.14862848663E+04  0.90878566709E+02 0.  0.
         13    1    3    3    0    0  0.91873870795E+02  0.26032617491E+03  0.45735664938E+03  0.53421496629E+03  0.00000000000E+00 0.  1.
        -13    1    3    3    0    0  0.12878794081E+03  0.36212889499E+03  0.87104157439E+03  0.95206990006E+03  0.00000000000E+00 0. -1.
         22    1    1    2    0    0 -0.22066181161E+03 -0.62245506990E+03  0.60923985873E+03  0.89850718117E+03  0.00000000000E+00 0. -1.
<mgrwt>
<rscale>  0 0.13902488E+04</rscale>
<asrwt>0</asrwt>
<pdfrwt beam="1">  1        2 0.33249461E+00 0.13902488E+04</pdfrwt>
<pdfrwt beam="2">  1       -2 0.34396460E-01 0.13902488E+04</pdfrwt>
<totfact> 0.41942300E+01</totfact>
</mgrwt>
</event>
<event>
 6    1  0.2236204E-005  0.2477574E+04  0.7818608E-02  0.8411019E-01
         -2   -1    0    0    0  501 -0.00000000000E+00  0.00000000000E+00  0.11697088101E+04  0.11697088101E+04  0.00000000000E+00 0.  1.
          2   -1    0    0  501    0  0.00000000000E+00 -0.00000000000E+00 -0.13119444331E+04  0.13119444331E+04  0.00000000000E+00 0. -1.
         23    2    1    2    0    0  0.83920500859E+03  0.16776864940E+02 -0.98160077701E+03  0.12946063312E+04  0.88988526126E+02 0.  0.
         11    1    3    3    0    0  0.55916700836E+03 -0.28647175645E+02 -0.63072417624E+03  0.84338685691E+03  0.00000000000E+00 0. -1.
        -11    1    3    3    0    0  0.28003800023E+03  0.45424040585E+02 -0.35087660076E+03  0.45121947431E+03  0.00000000000E+00 0.  1.
         22    1    1    2    0    0 -0.83920500859E+03 -0.16776864940E+02  0.83936515392E+03  0.11870469120E+04  0.00000000000E+00 0.  1.
<mgrwt>
<rscale>  0 0.24775738E+04</rscale>
<asrwt>0</asrwt>
<pdfrwt beam="1">  1        2 0.20183761E+00 0.24775738E+04</pdfrwt>
<pdfrwt beam="2">  1       -2 0.17995520E+00 0.24775738E+04</pdfrwt>
<totfact> 0.26378892E+00</totfact>
</mgrwt>
</event>
<event>
 6    1  0.2236204E-005  0.2310035E+04  0.7818608E-02  0.8473975E-01
         -2   -1    0    0    0  501 -0.00000000000E+00  0.00000000000E+00  0.76190826542E+03  0.76190826542E+03  0.00000000000E+00 0.  1.
          2   -1    0    0  501    0  0.00000000000E+00 -0.00000000000E+00 -0.17509535679E+04  0.17509535679E+04  0.00000000000E+00 0. -1.
         23    2    1    2    0    0  0.49791338488E+03  0.59424268791E+03 -0.14239940992E+04  0.16239171968E+04  0.91135922324E+02 0.  0.
         13    1    3    3    0    0  0.20828770955E+03  0.31121423882E+03 -0.63985736333E+03  0.74138756248E+03  0.00000000000E+00 0. -1.
        -13    1    3    3    0    0  0.28962567533E+03  0.28302844909E+03 -0.78413673592E+03  0.88252963430E+03  0.00000000000E+00 0.  1.
         22    1    1    2    0    0 -0.49791338488E+03 -0.59424268791E+03  0.43494879679E+03  0.88894463652E+03  0.00000000000E+00 0.  1.
<mgrwt>
<rscale>  0 0.23100355E+04</rscale>
<asrwt>0</asrwt>
<pdfrwt beam="1">  1        2 0.26937747E+00 0.23100355E+04</pdfrwt>
<pdfrwt beam="2">  1       -2 0.11721666E+00 0.23100355E+04</pdfrwt>
<totfact> 0.46837053E+00</totfact>
</mgrwt>
</event>
<event>
 6    1  0.2236204E-005  0.3552280E+04  0.7818608E-02  0.8101511E-01
          2   -1    0    0  501    0  0.00000000000E+00  0.00000000000E+00  0.23974195656E+04  0.23974195656E+04  0.00000000000E+00 0. -1.
         -2   -1    0    0    0  501 -0.00000000000E+00 -0.00000000000E+00 -0.13158616397E+04  0.13158616397E+04  0.00000000000E+00 0.  1.
         23    2    1    2    0    0  0.11974187466E+04 -0.35844704232E+03 -0.77616476102E+03  0.14742123099E+04  0.92597308539E+02 0.  0.
         11    1    3    3    0    0  0.28101703849E+03 -0.10030874237E+03 -0.22887236241E+03  0.37605182886E+03  0.00000000000E+00 0.  1.
        -11    1    3    3    0    0  0.91640170808E+03 -0.25813829995E+03 -0.54729239861E+03  0.10981604810E+04  0.00000000000E+00 0. -1.
         22    1    1    2    0    0 -0.11974187466E+04  0.35844704232E+03  0.18577226869E+04  0.22390688954E+04  0.00000000000E+00 0. -1.
<mgrwt>
<rscale>  0 0.35522795E+04</rscale>
<asrwt>0</asrwt>
<pdfrwt beam="1">  1        2 0.36883378E+00 0.35522795E+04</pdfrwt>
<pdfrwt beam="2">  1       -2 0.20244025E+00 0.35522795E+04</pdfrwt>
<totfact> 0.41838780E-01</totfact>
</mgrwt>
</event>
<event>
 6    1  0.2236204E-005  0.2138058E+04  0.7818608E-02  0.8544661E-01
          2   -1    0    0  501    0  0.00000000000E+00  0.00000000000E+00  0.16022610854E+04  0.16022610854E+04  0.00000000000E+00 0. -1.
         -2   -1    0    0    0  501 -0.00000000000E+00 -0.00000000000E+00 -0.71325632151E+03  0.71325632151E+03  0.00000000000E+00 0.  1.
         23    2    1    2    0    0 -0.55822600779E+03 -0.40162024735E+03 -0.43822920434E+03  0.82070467441E+03  0.92715846592E+02 0.  0.
         11    1    3    3    0    0 -0.40827483231E+03 -0.31687141688E+03 -0.28510230071E+03  0.59023652497E+03  0.00000000000E+00 0. -1.
        -11    1    3    3    0    0 -0.14995117547E+03 -0.84748830471E+02 -0.15312690363E+03  0.23046814944E+03  0.00000000000E+00 0.  1.
         22    1    1    2    0    0  0.55822600779E+03  0.40162024735E+03  0.13272339682E+04  0.14948127325E+04  0.00000000000E+00 0. -1.
<mgrwt>
<rscale>  0 0.21380579E+04</rscale>
<asrwt>0</asrwt>
<pdfrwt beam="1">  1        2 0.24650170E+00 0.21380579E+04</pdfrwt>
<pdfrwt beam="2">  1       -2 0.10973174E+00 0.21380579E+04</pdfrwt>
<totfact> 0.67522528E+00</totfact>
</mgrwt>
</event>
<event>
 6    1  0.2236204E-005  0.2356211E+04  0.7818608E-02  0.8456082E-01
          2   -1    0    0  501    0  0.00000000000E+00  0.00000000000E+00  0.14965332868E+04  0.14965332868E+04  0.00000000000E+00 0. -1.
         -2   -1    0    0    0  501 -0.00000000000E+00 -0.00000000000E+00 -0.92743170570E+03  0.92743170570E+03  0.00000000000E+00 0.  1.
         23    2    1    2    0    0  0.55820827202E+03 -0.95912864222E+03 -0.11665335761E+03  0.11194405338E+04  0.89525837882E+02 0.  0.
         13    1    3    3    0    0  0.13691519147E+03 -0.28934826233E+03 -0.34666313440E+01  0.32012529438E+03  0.00000000000E+00 0. -1.
        -13    1    3    3    0    0  0.42129308056E+03 -0.66978037989E+03 -0.11318672627E+03  0.79931523944E+03  0.00000000000E+00 0.  1.
         22    1    1    2    0    0 -0.55820827202E+03  0.95912864222E+03  0.68575493869E+03  0.13045244587E+04  0.00000000000E+00 0. -1.
<mgrwt>
<rscale>  0 0.23562109E+04</rscale>
<asrwt>0</asrwt>
<pdfrwt beam="1">  1        2 0.23023589E+00 0.23562109E+04</pdfrwt>
<pdfrwt beam="2">  1       -2 0.14268180E+00 0.23562109E+04</pdfrwt>
<totfact> 0.39341522E+00</totfact>
</mgrwt>
</event>
<event>
 6    1  0.2236204E-005  0.1814895E+04  0.7818608E-02  0.8698419E-01
         -2   -1    0    0    0  501 -0.00000000000E+00  0.00000000000E+00  0.66547131637E+03  0.66547131637E+03  0.00000000000E+00 0. -1.
          2   -1    0    0  501    0  0.00000000000E+00 -0.00000000000E+00 -0.12374097347E+04  0.12374097347E+04  0.00000000000E+00 0.  1.
         23    2    1    2    0    0 -0.74325978243E+03  0.30148094194E+03  0.15334200861E+03  0.82151267710E+03  0.89685252471E+02 0.  0.
         13    1    3    3    0    0 -0.62648210863E+03  0.26601792433E+03  0.16039545549E+03  0.69926537927E+03  0.00000000000E+00 0. -1.
        -13    1    3    3    0    0 -0.11677767379E+03  0.35463017608E+02 -0.70534468825E+01  0.12224729783E+03  0.00000000000E+00 0.  1.
         22    1    1    2    0    0  0.74325978243E+03 -0.30148094194E+03 -0.72528042696E+03  0.10813683740E+04  0.00000000000E+00 0.  1.
<mgrwt>
<rscale>  0 0.18148947E+04</rscale>
<asrwt>0</asrwt>
<pdfrwt beam="1">  1        2 0.19037073E+00 0.18148947E+04</pdfrwt>
<pdfrwt beam="2">  1       -2 0.10238020E+00 0.18148947E+04</pdfrwt>
<totfact> 0.13253103E+01</totfact>
</mgrwt>
</event>
<event>
 6    1  0.2236204E-005  0.1116476E+04  0.7818608E-02  0.9189280E-01
          2   -1    0    0  501    0  0.00000000000E+00  0.00000000000E+00  0.79798282399E+03  0.79798282399E+03  0.00000000000E+00 0. -1.
         -2   -1    0    0    0  501 -0.00000000000E+00 -0.00000000000E+00 -0.39052182816E+03  0.39052182816E+03  0.00000000000E+00 0.  1.
         23    2    1    2    0    0 -0.36010915846E+03 -0.25670957250E+03  0.56096504280E+03  0.72037870430E+03  0.93194891267E+02 0.  0.
         11    1    3    3    0    0 -0.94700047217E+02 -0.11665915011E+03  0.15922117164E+03  0.21892655788E+03  0.00000000000E+00 0.  1.
        -11    1    3    3    0    0 -0.26540911124E+03 -0.14005042239E+03  0.40174387116E+03  0.50145214643E+03  0.00000000000E+00 0. -1.
         22    1    1    2    0    0  0.36010915846E+03  0.25670957250E+03 -0.15350404697E+03  0.46812594785E+03  0.00000000000E+00 0.  1.
<mgrwt>
<rscale>  0 0.11164761E+04</rscale>
<asrwt>0</asrwt>
<pdfrwt beam="1">  1        2 0.12276659E+00 0.11164761E+04</pdfrwt>
<pdfrwt beam="2">  1       -2 0.60080282E-01 0.11164761E+04</pdfrwt>
<totfact> 0.88567877E+01</totfact>
</mgrwt>
</event>
<event>
 6    1  0.2236204E-005  0.3143644E+04  0.7818608E-02  0.8203861E-01
          2   -1    0    0  501    0  0.00000000000E+00  0.00000000000E+00  0.23150614455E+04  0.23150614455E+04  0.00000000000E+00 0.  1.
         -2   -1    0    0    0  501 -0.00000000000E+00 -0.00000000000E+00 -0.10671959138E+04  0.10671959138E+04  0.00000000000E+00 0. -1.
         23    2    1    2    0    0  0.10226550527E+03 -0.14228112321E+04 -0.82397414159E+02  0.14317575411E+04  0.91051011757E+02 0.  0.
         11    1    3    3    0    0  0.10668361957E+03 -0.10686573441E+04 -0.87620417244E+02  0.10775375869E+04  0.00000000000E+00 0. -1.
        -11    1    3    3    0    0 -0.44181142938E+01 -0.35415388803E+03  0.52230030851E+01  0.35421995413E+03  0.00000000000E+00 0.  1.
         22    1    1    2    0    0 -0.10226550527E+03  0.14228112321E+04  0.13302629459E+04  0.19504998183E+04  0.00000000000E+00 0.  1.
<mgrwt>
<rscale>  0 0.31436438E+04</rscale>
<asrwt>0</asrwt>
<pdfrwt beam="1">  1        2 0.35616330E+00 0.31436438E+04</pdfrwt>
<pdfrwt beam="2">  1       -2 0.16418399E+00 0.31436438E+04</pdfrwt>
<totfact> 0.88252724E-01</totfact>
</mgrwt>
</event>
<event>
 6    1  0.2236204E-005  0.1915694E+04  0.7818608E-02  0.8647084E-01
          2   -1    0    0  501    0  0.00000000000E+00  0.00000000000E+00  0.27364746622E+04  0.27364746622E+04  0.00000000000E+00 0. -1.
         -2   -1    0    0    0  501 -0.00000000000E+00 -0.00000000000E+00 -0.33527467800E+03  0.33527467800E+03  0.00000000000E+00 0.  1.
         23    2    1    2    0    0 -0.31288390321E+03  0.15698769968E+03  0.26291716947E+04  0.26540023169E+04  0.92967858353E+02 0.  0.
         11    1    3    3    0    0 -0.40940642718E+02  0.11366999099E+02  0.60161669704E+03  0.60311524193E+03  0.00000000000E+00 0.  1.
        -11    1    3    3    0    0 -0.27194326050E+03  0.14562070058E+03  0.20275549977E+04  0.20508870749E+04  0.00000000000E+00 0. -1.
         22    1    1    2    0    0  0.31288390321E+03 -0.15698769968E+03 -0.22797171052E+03  0.41774702338E+03  0.00000000000E+00 0.  1.
<mgrwt>
<rscale>  0 0.19156938E+04</rscale>
<asrwt>0</asrwt>
<pdfrwt beam="1">  1        2 0.42099609E+00 0.19156938E+04</pdfrwt>
<pdfrwt beam="2">  1       -2 0.51580722E-01 0.19156938E+04</pdfrwt>
<totfact> 0.84008566E+00</totfact>
</mgrwt>
</event>
<event>
 6    1  0.2236204E-005  0.2002454E+04  0.7818608E-02  0.8605474E-01
          2   -1    0    0  501    0  0.00000000000E+00  0.00000000000E+00  0.37432177138E+04  0.37432177138E+04  0.00000000000E+00 0. -1.
         -2   -1    0    0    0  501 -0.00000000000E+00 -0.00000000000E+00 -0.26780576643E+03  0.26780576643E+03  0.00000000000E+00 0.  1.
         23    2    1    2    0    0  0.97339431263E+03 -0.40208766136E+01  0.21945490791E+04  0.24022592518E+04  0.85388506218E+02 0.  0.
         13    1    3    3    0    0  0.64493607152E+03  0.59259379114E+00  0.15502568571E+04  0.16790590253E+04  0.00000000000E+00 0. -1.
        -13    1    3    3    0    0  0.32845824111E+03 -0.46134704047E+01  0.64429222201E+03  0.72320022650E+03  0.00000000000E+00 0.  1.
         22    1    1    2    0    0 -0.97339431263E+03  0.40208766136E+01  0.12808628683E+04  0.16087642284E+04  0.00000000000E+00 0. -1.
<mgrwt>
<rscale>  0 0.20024538E+04</rscale>
<asrwt>0</asrwt>
<pdfrwt beam="1">  1        2 0.57587961E+00 0.20024538E+04</pdfrwt>
<pdfrwt beam="2">  1       -2 0.41200890E-01 0.20024538E+04</pdfrwt>
<totfact> 0.28315687E+00</totfact>
</mgrwt>
</event>
<event>
 6    1  0.2236204E-005  0.4119447E+04  0.7818608E-02  0.7980875E-01
         -2   -1    0    0    0  501 -0.00000000000E+00  0.00000000000E+00  0.12868487947E+04  0.12868487947E+04  0.00000000000E+00 0. -1.
          2   -1    0    0  501    0  0.00000000000E+00 -0.00000000000E+00 -0.32967822164E+04  0.32967822164E+04  0.00000000000E+00 0.  1.
         23    2    1    2    0    0  0.34541195195E+03 -0.24440478982E+03 -0.32470931705E+04  0.32761114655E+04  0.10123812737E+03 0.  0.
         11    1    3    3    0    0  0.19932299482E+03 -0.17562411826E+03 -0.23078667648E+04  0.23231062161E+04  0.00000000000E+00 0. -1.
        -11    1    3    3    0    0  0.14608895713E+03 -0.68780671560E+02 -0.93922640577E+03  0.95300524945E+03  0.00000000000E+00 0.  1.
         22    1    1    2    0    0 -0.34541195195E+03  0.24440478982E+03  0.12371597488E+04  0.13075195455E+04  0.00000000000E+00 0. -1.
<mgrwt>
<rscale>  0 0.41194467E+04</rscale>
<asrwt>0</asrwt>
<pdfrwt beam="1">  1        2 0.50719726E+00 0.41194467E+04</pdfrwt>
<pdfrwt beam="2">  1       -2 0.19797674E+00 0.41194467E+04</pdfrwt>
<totfact> 0.11979705E-01</totfact>
</mgrwt>
</event>
<event>
 6    1  0.2236204E-005  0.2310690E+04  0.7818608E-02  0.8473718E-01
         -2   -1    0    0    0  501 -0.00000000000E+00  0.00000000000E+00  0.85493086616E+03  0.85493086616E+03  0.00000000000E+00 0.  1.
          2   -1    0    0  501    0  0.00000000000E+00 -0.00000000000E+00 -0.15613222971E+04  0.15613222971E+04  0.00000000000E+00 0. -1.
         23    2    1    2    0    0  0.71846923254E+03 -0.33138359914E+03 -0.12301556798E+04  0.14673895713E+04  0.11805096187E+03 0.  0.
         13    1    3    3    0    0  0.27316450145E+03 -0.15760135219E+03 -0.39905617403E+03  0.50862841161E+03  0.00000000000E+00 0.  1.
        -13    1    3    3    0    0  0.44530473109E+03 -0.17378224695E+03 -0.83109950574E+03  0.95876115969E+03  0.00000000000E+00 0. -1.
         22    1    1    2    0    0 -0.71846923254E+03  0.33138359914E+03  0.52376424880E+03  0.94886359199E+03  0.00000000000E+00 0.  1.
<mgrwt>
<rscale>  0 0.23106905E+04</rscale>
<asrwt>0</asrwt>
<pdfrwt beam="1">  1        2 0.24020343E+00 0.23106905E+04</pdfrwt>
<pdfrwt beam="2">  1       -2 0.13152783E+00 0.23106905E+04</pdfrwt>
<totfact> 0.44778566E+00</totfact>
</mgrwt>
</event>
<event>
 6    1  0.2236204E-005  0.3928726E+04  0.7818608E-02  0.8019081E-01
         -2   -1    0    0    0  501 -0.00000000000E+00  0.00000000000E+00  0.14825632824E+04  0.14825632824E+04  0.00000000000E+00 0.  1.
          2   -1    0    0  501    0  0.00000000000E+00 -0.00000000000E+00 -0.26027367334E+04  0.26027367334E+04  0.00000000000E+00 0. -1.
         23    2    1    2    0    0  0.73127560531E+03  0.14242743687E+04  0.62123209436E+03  0.17197525608E+04  0.91093726031E+02 0.  0.
         13    1    3    3    0    0  0.30576101846E+03  0.69215750272E+03  0.30489122181E+03  0.81580050633E+03  0.00000000000E+00 0.  1.
        -13    1    3    3    0    0  0.42551458685E+03  0.73211686597E+03  0.31634087255E+03  0.90395205443E+03  0.00000000000E+00 0. -1.
         22    1    1    2    0    0 -0.73127560531E+03 -0.14242743687E+04 -0.17414055454E+04  0.23655474550E+04  0.00000000000E+00 0.  1.
<mgrwt>
<rscale>  0 0.39287260E+04</rscale>
<asrwt>0</asrwt>
<pdfrwt beam="1">  1        2 0.40042103E+00 0.39287260E+04</pdfrwt>
<pdfrwt beam="2">  1       -2 0.22808666E+00 0.39287260E+04</pdfrwt>
<totfact> 0.21142277E-01</totfact>
</mgrwt>
</event>
<event>
 6    1  0.2236204E-005  0.1054136E+04  0.7818608E-02  0.9251084E-01
         -2   -1    0    0    0  501 -0.00000000000E+00  0.00000000000E+00  0.95340024312E+02  0.95340024312E+02  0.00000000000E+00 0.  1.
          2   -1    0    0  501    0  0.00000000000E+00 -0.00000000000E+00 -0.29137904396E+04  0.29137904396E+04  0.00000000000E+00 0. -1.
         23    2    1    2    0    0  0.35368061150E+03  0.31600116970E+03 -0.78714495755E+03  0.92318977040E+03  0.87951428514E+02 0.  0.
         13    1    3    3    0    0  0.17330969543E+03  0.13773920657E+03 -0.28734143158E+03  0.36273053064E+03  0.00000000000E+00 0.  1.
        -13    1    3    3    0    0  0.18037091607E+03  0.17826196313E+03 -0.49980352597E+03  0.56045923976E+03  0.00000000000E+00 0. -1.
         22    1    1    2    0    0 -0.35368061150E+03 -0.31600116970E+03 -0.20313054577E+04  0.20859406935E+04  0.00000000000E+00 0. -1.
<mgrwt>
<rscale>  0 0.10541363E+04</rscale>
<asrwt>0</asrwt>
<pdfrwt beam="1">  1        2 0.44827543E+00 0.10541363E+04</pdfrwt>
<pdfrwt beam="2">  1       -2 0.14667697E-01 0.10541363E+04</pdfrwt>
<totfact> 0.72901199E+01</totfact>
</mgrwt>
</event>
<event>
 6    1  0.2236204E-005  0.4343760E+04  0.7818608E-02  0.7938576E-01
          2   -1    0    0  501    0  0.00000000000E+00  0.00000000000E+00  0.26821696062E+04  0.26821696062E+04  0.00000000000E+00 0. -1.
         -2   -1    0    0    0  501 -0.00000000000E+00 -0.00000000000E+00 -0.17586739563E+04  0.17586739563E+04  0.00000000000E+00 0.  1.
         23    2    1    2    0    0  0.35212969508E+03  0.11956578252E+04 -0.13551962150E+04  0.18435315728E+04  0.91972396512E+02 0.  0.
         11    1    3    3    0    0  0.19013765215E+03  0.74851712563E+03 -0.78818592172E+03  0.11034796153E+04  0.00000000000E+00 0. -1.
        -11    1    3    3    0    0  0.16199204293E+03  0.44714069954E+03 -0.56701029325E+03  0.74005195750E+03  0.00000000000E+00 0.  1.
         22    1    1    2    0    0 -0.35212969508E+03 -0.11956578252E+04  0.22786918649E+04  0.25973119898E+04  0.00000000000E+00 0. -1.
<mgrwt>
<rscale>  0 0.43437596E+04</rscale>
<asrwt>0</asrwt>
<pdfrwt beam="1">  1        2 0.41264148E+00 0.43437596E+04</pdfrwt>
<pdfrwt beam="2">  1       -2 0.27056523E+00 0.43437596E+04</pdfrwt>
<totfact> 0.10038922E-01</totfact>
</mgrwt>
</event>
<event>
 6    1  0.2236204E-005  0.1935720E+04  0.7818608E-02  0.8637278E-01
          1   -1    0    0  501    0  0.00000000000E+00  0.00000000000E+00  0.17914830741E+04  0.17914830741E+04  0.00000000000E+00 0. -1.
         -1   -1    0    0    0  501 -0.00000000000E+00 -0.00000000000E+00 -0.52289251815E+03  0.52289251815E+03  0.00000000000E+00 0.  1.
         23    2    1    2    0    0 -0.95940352881E+03  0.10560527138E+03  0.61251104835E+03  0.11473075031E+04  0.97658168269E+02 0.  0.
         11    1    3    3    0    0 -0.28000317177E+03  0.74493320901E+02  0.19546217644E+03  0.34950893191E+03  0.00000000000E+00 0. -1.
        -11    1    3    3    0    0 -0.67940035704E+03  0.31111950482E+02  0.41704887191E+03  0.79779857118E+03  0.00000000000E+00 0.  1.
         22    1    1    2    0    0  0.95940352881E+03 -0.10560527138E+03  0.65607950756E+03  0.11670680891E+04  0.00000000000E+00 0. -1.
<mgrwt>
<rscale>  0 0.19357201E+04</rscale>
<asrwt>0</asrwt>
<pdfrwt beam="1">  1        1 0.27561278E+00 0.19357201E+04</pdfrwt>
<pdfrwt beam="2">  1       -1 0.80445004E-01 0.19357201E+04</pdfrwt>
<totfact> 0.59361352E+00</totfact>
</mgrwt>
</event>
<event>
 6    1  0.2236204E-005  0.1027401E+04  0.7818608E-02  0.9278993E-01
         -1   -1    0    0    0  501 -0.00000000000E+00  0.00000000000E+00  0.77469390449E+03  0.77469390449E+03  0.00000000000E+00 0. -1.
          1   -1    0    0  501    0  0.00000000000E+00 -0.00000000000E+00 -0.34063515074E+03  0.34063515074E+03  0.00000000000E+00 0.  1.
         23    2    1    2    0    0 -0.41630622285E+03  0.19260677943E+02  0.53692088827E+03  0.68607101673E+03  0.93421383160E+02 0.  0.
         11    1    3    3    0    0 -0.14430739663E+03 -0.10863539625E+02  0.25479515487E+03  0.29302425183E+03  0.00000000000E+00 0.  1.
        -11    1    3    3    0    0 -0.27199882622E+03  0.30124217568E+02  0.28212573341E+03  0.39304676490E+03  0.00000000000E+00 0. -1.
         22    1    1    2    0    0  0.41630622285E+03 -0.19260677943E+02 -0.10286213453E+03  0.42925803850E+03  0.00000000000E+00 0.  1.
<mgrwt>
<rscale>  0 0.10274006E+04</rscale>
<asrwt>0</asrwt>
<pdfrwt beam="1">  1        1 0.52405408E-01 0.10274006E+04</pdfrwt>
<pdfrwt beam="2">  1       -1 0.11918368E+00 0.10274006E+04</pdfrwt>
<totfact> 0.46791316E+01</totfact>
</mgrwt>
</event>
<event>
 6    1  0.2236204E-005  0.2014664E+04  0.7818608E-02  0.8599795E-01
         -1   -1    0    0    0  501 -0.00000000000E+00  0.00000000000E+00  0.91339466408E+03  0.91339466408E+03  0.00000000000E+00 0.  1.
          1   -1    0    0  501    0  0.00000000000E+00 -0.00000000000E+00 -0.11109307846E+04  0.11109307846E+04  0.00000000000E+00 0. -1.
         23    2    1    2    0    0  0.94073669540E+03 -0.21730203432E+03 -0.38039688792E+03  0.10416537006E+04  0.90193876400E+02 0.  0.
         13    1    3    3    0    0  0.30544643263E+03 -0.79769651743E+02 -0.16933448181E+03  0.35823858987E+03  0.00000000000E+00 0. -1.
        -13    1    3    3    0    0  0.63529026277E+03 -0.13753238258E+03 -0.21106240611E+03  0.68341511068E+03  0.00000000000E+00 0.  1.
         22    1    1    2    0    0 -0.94073669540E+03  0.21730203432E+03  0.18286076744E+03  0.98267174808E+03  0.00000000000E+00 0.  1.
<mgrwt>
<rscale>  0 0.20146645E+04</rscale>
<asrwt>0</asrwt>
<pdfrwt beam="1">  1        1 0.17091243E+00 0.20146645E+04</pdfrwt>
<pdfrwt beam="2">  1       -1 0.14052226E+00 0.20146645E+04</pdfrwt>
<totfact> 0.47848302E+00</totfact>
</mgrwt>
</event>
<event>
 6    1  0.2236204E-005  0.3914037E+04  0.7818608E-02  0.8022116E-01
          2   -1    0    0  501    0  0.00000000000E+00  0.00000000000E+00  0.37905724016E+04  0.37905724016E+04  0.00000000000E+00 0. -1.
         -2   -1    0    0    0  501 -0.00000000000E+00 -0.00000000000E+00 -0.10103809831E+04  0.10103809831E+04  0.00000000000E+00 0.  1.
         23    2    1    2    0    0 -0.47818738710E+03  0.12246076802E+04 -0.38585786015E+03  0.13728058992E+04  0.85922063681E+02 0.  0.
         13    1    3    3    0    0 -0.17148678531E+03  0.55525253081E+03 -0.17655274770E+03  0.60735818363E+03  0.00000000000E+00 0.  1.
        -13    1    3    3    0    0 -0.30670060179E+03  0.66935514938E+03 -0.20930511245E+03  0.76544771554E+03  0.00000000000E+00 0. -1.
         22    1    1    2    0    0  0.47818738710E+03 -0.12246076802E+04  0.31660492786E+04  0.34281474855E+04  0.00000000000E+00 0. -1.
<mgrwt>
<rscale>  0 0.39140374E+04</rscale>
<asrwt>0</asrwt>
<pdfrwt beam="1">  1        2 0.58316498E+00 0.39140374E+04</pdfrwt>
<pdfrwt beam="2">  1       -2 0.15544323E+00 0.39140374E+04</pdfrwt>
<totfact> 0.10775127E-01</totfact>
</mgrwt>
</event>
<event>
 6    1  0.2236204E-005  0.2622897E+04  0.7818608E-02  0.8360465E-01
          2   -1    0    0  501    0  0.00000000000E+00  0.00000000000E+00  0.61867112598E+03  0.61867112598E+03  0.00000000000E+00 0.  1.
         -2   -1    0    0    0  501 -0.00000000000E+00 -0.00000000000E+00 -0.27799851511E+04  0.27799851511E+04  0.00000000000E+00 0. -1.
         23    2    1    2    0    0 -0.13022194282E+03 -0.10181221284E+04 -0.27385697109E+02  0.10307076856E+04  0.89877327854E+02 0.  0.
         13    1    3    3    0    0 -0.30001801822E+02 -0.47932705247E+03  0.19565856875E+02  0.48066345201E+03  0.00000000000E+00 0. -1.
        -13    1    3    3    0    0 -0.10022014099E+03 -0.53879507593E+03 -0.46951553985E+02  0.55004423361E+03  0.00000000000E+00 0.  1.
         22    1    1    2    0    0  0.13022194282E+03  0.10181221284E+04 -0.21339283280E+04  0.23679485915E+04  0.00000000000E+00 0. -1.
<mgrwt>
<rscale>  0 0.26228965E+04</rscale>
<asrwt>0</asrwt>
<pdfrwt beam="1">  1        2 0.95180175E-01 0.26228965E+04</pdfrwt>
<pdfrwt beam="2">  1       -2 0.42769002E+00 0.26228965E+04</pdfrwt>
<totfact> 0.20563586E-01</totfact>
</mgrwt>
</event>
<event>
 6    1  0.2236204E-005  0.4991686E+04  0.7818608E-02  0.7829791E-01
         -2   -1    0    0    0  501 -0.00000000000E+00  0.00000000000E+00  0.14833735927E+04  0.14833735927E+04  0.00000000000E+00 0.  1.
          2   -1    0    0  501    0  0.00000000000E+00 -0.00000000000E+00 -0.41993678641E+04  0.41993678641E+04  0.00000000000E+00 0. -1.
         23    2    1    2    0    0  0.52091142698E+03 -0.20800657097E+04  0.93854758696E+02  0.21481589293E+04  0.88068146473E+02 0.  0.
         13    1    3    3    0    0  0.36730528031E+03 -0.13192715053E+04  0.82457995828E+02  0.13719292237E+04  0.00000000000E+00 0. -1.
        -13    1    3    3    0    0  0.15360614667E+03 -0.76079420432E+03  0.11396762868E+02  0.77622970558E+03  0.00000000000E+00 0.  1.
         22    1    1    2    0    0 -0.52091142698E+03  0.20800657097E+04 -0.28098490301E+04  0.35345825274E+04  0.00000000000E+00 0. -1.
<mgrwt>
<rscale>  0 0.49916856E+04</rscale>
<asrwt>0</asrwt>
<pdfrwt beam="1">  1        2 0.64605659E+00 0.49916856E+04</pdfrwt>
<pdfrwt beam="2">  1       -2 0.22821132E+00 0.49916856E+04</pdfrwt>
<totfact> 0.14787308E-02</totfact>
</mgrwt>
</event>
<event>
 6    1  0.2236204E-005  0.2672218E+04  0.7818608E-02  0.8344076E-01
         -2   -1    0    0    0  501 -0.00000000000E+00  0.00000000000E+00  0.13720746691E+04  0.13720746691E+04  0.00000000000E+00 0.  1.
          2   -1    0    0  501    0  0.00000000000E+00 -0.00000000000E+00 -0.13010865186E+04  0.13010865186E+04  0.00000000000E+00 0. -1.
         23    2    1    2    0    0  0.63996934254E+03  0.38993171110E+03  0.11402674143E+04  0.13674178582E+04  0.89522758631E+02 0.  0.
         13    1    3    3    0    0  0.15278239310E+03  0.59114671057E+02  0.29123206189E+03  0.33414535437E+03  0.00000000000E+00 0. -1.
        -13    1    3    3    0    0  0.48718694943E+03  0.33081704004E+03  0.84903535237E+03  0.10332725039E+04  0.00000000000E+00 0.  1.
         22    1    1    2    0    0 -0.63996934254E+03 -0.38993171110E+03 -0.10692792637E+04  0.13057433295E+04  0.00000000000E+00 0. -1.
<mgrwt>
<rscale>  0 0.26722184E+04</rscale>
<asrwt>0</asrwt>
<pdfrwt beam="1">  1        2 0.20016716E+00 0.26722184E+04</pdfrwt>
<pdfrwt beam="2">  1       -2 0.21108841E+00 0.26722184E+04</pdfrwt>
<totfact> 0.16355281E+00</totfact>
</mgrwt>
</event>
<event>
 6    1  0.2236204E-005  0.3855378E+04  0.7818608E-02  0.8034374E-01
          1   -1    0    0  501    0  0.00000000000E+00  0.00000000000E+00  0.34728608899E+04  0.34728608899E+04  0.00000000000E+00 0.  1.
         -1   -1    0    0    0  501 -0.00000000000E+00 -0.00000000000E+00 -0.10700067684E+04  0.10700067684E+04  0.00000000000E+00 0. -1.
         23    2    1    2    0    0 -0.12346738583E+04 -0.10234226985E+04 -0.56004809908E+02  0.16072585561E+04  0.91268676174E+02 0.  0.
         13    1    3    3    0    0 -0.10197324952E+04 -0.88682648061E+03 -0.37921237924E+02  0.13519443734E+04  0.00000000000E+00 0. -1.
        -13    1    3    3    0    0 -0.21494136310E+03 -0.13659621789E+03 -0.18083571983E+02  0.25531418271E+03  0.00000000000E+00 0.  1.
         22    1    1    2    0    0  0.12346738583E+04  0.10234226985E+04  0.24588589314E+04  0.29356091022E+04  0.00000000000E+00 0.  1.
<mgrwt>
<rscale>  0 0.38553779E+04</rscale>
<asrwt>0</asrwt>
<pdfrwt beam="1">  1        1 0.53428629E+00 0.38553779E+04</pdfrwt>
<pdfrwt beam="2">  1       -1 0.16461643E+00 0.38553779E+04</pdfrwt>
<totfact> 0.55995670E-02</totfact>
</mgrwt>
</event>
<event>
 6    1  0.2236204E-005  0.1459854E+04  0.7818608E-02  0.8911597E-01
          2   -1    0    0  501    0  0.00000000000E+00  0.00000000000E+00  0.22963308859E+04  0.22963308859E+04  0.00000000000E+00 0. -1.
         -2   -1    0    0    0  501 -0.00000000000E+00 -0.00000000000E+00 -0.23201953718E+03  0.23201953718E+03  0.00000000000E+00 0.  1.
         23    2    1    2    0    0 -0.26113977846E+03  0.36506803383E+03  0.20270126200E+04  0.20779507690E+04  0.87353211217E+02 0.  0.
         11    1    3    3    0    0 -0.16831471981E+03  0.16954731220E+03  0.96783416938E+03  0.99688470517E+03  0.00000000000E+00 0.  1.
        -11    1    3    3    0    0 -0.92825058645E+02  0.19552072163E+03  0.10591784506E+04  0.10810660638E+04  0.00000000000E+00 0. -1.
         22    1    1    2    0    0  0.26113977846E+03 -0.36506803383E+03  0.37298728707E+02  0.45039965406E+03  0.00000000000E+00 0.  1.
<mgrwt>
<rscale>  0 0.14598543E+04</rscale>
<asrwt>0</asrwt>
<pdfrwt beam="1">  1        2 0.35328166E+00 0.14598543E+04</pdfrwt>
<pdfrwt beam="2">  1       -2 0.35695315E-01 0.14598543E+04</pdfrwt>
<totfact> 0.32623807E+01</totfact>
</mgrwt>
</event>
<event>
 6    1  0.2236204E-005  0.4521703E+04  0.7818608E-02  0.7906848E-01
          2   -1    0    0  501    0  0.00000000000E+00  0.00000000000E+00  0.20055152297E+04  0.20055152297E+04  0.00000000000E+00 0. -1.
         -2   -1    0    0    0  501 -0.00000000000E+00 -0.00000000000E+00 -0.25486969200E+04  0.25486969200E+04  0.00000000000E+00 0.  1.
         23    2    1    2    0    0  0.99017382819E+03  0.18706936920E+04  0.52601358331E+03  0.21829007756E+04  0.91795463784E+02 0.  0.
         11    1    3    3    0    0  0.27237668767E+03  0.54129617973E+03  0.19154921140E+03  0.63551688771E+03  0.00000000000E+00 0. -1.
        -11    1    3    3    0    0  0.71779714052E+03  0.13293975123E+04  0.33446437191E+03  0.15473838879E+04  0.00000000000E+00 0.  1.
         22    1    1    2    0    0 -0.99017382819E+03 -0.18706936920E+04 -0.10691952736E+04  0.23713113740E+04  0.00000000000E+00 0.  1.
<mgrwt>
<rscale>  0 0.45217034E+04</rscale>
<asrwt>0</asrwt>
<pdfrwt beam="1">  1        2 0.30854081E+00 0.45217034E+04</pdfrwt>
<pdfrwt beam="2">  1       -2 0.39210722E+00 0.45217034E+04</pdfrwt>
<totfact> 0.41938968E-02</totfact>
</mgrwt>
</event>
<event>
 6    1  0.2236204E-005  0.3219806E+04  0.7818608E-02  0.8183606E-01
         -1   -1    0    0    0  501 -0.00000000000E+00  0.00000000000E+00  0.16486658718E+04  0.16486658718E+04  0.00000000000E+00 0.  1.
          1   -1    0    0  501    0  0.00000000000E+00 -0.00000000000E+00 -0.15720512838E+04  0.15720512838E+04  0.00000000000E+00 0. -1.
         23    2    1    2    0    0  0.53181547056E+03  0.45577192287E+03  0.14868413320E+04  0.16461393677E+04  0.92314306215E+02 0.  0.
         11    1    3    3    0    0  0.14957234684E+03  0.76990002882E+02  0.34249268664E+03  0.38157645091E+03  0.00000000000E+00 0. -1.
        -11    1    3    3    0    0  0.38224312372E+03  0.37878191999E+03  0.11443486453E+04  0.12645629168E+04  0.00000000000E+00 0.  1.
         22    1    1    2    0    0 -0.53181547056E+03 -0.45577192287E+03 -0.14102267440E+04  0.15745777878E+04  0.00000000000E+00 0. -1.
<mgrwt>
<rscale>  0 0.32198058E+04</rscale>
<asrwt>0</asrwt>
<pdfrwt beam="1">  1        1 0.24185404E+00 0.32198058E+04</pdfrwt>
<pdfrwt beam="2">  1       -1 0.25364090E+00 0.32198058E+04</pdfrwt>
<totfact> 0.32156099E-01</totfact>
</mgrwt>
</event>
<event>
 6    1  0.2236204E-005  0.1419573E+04  0.7818608E-02  0.8939771E-01
         -2   -1    0    0    0  501 -0.00000000000E+00  0.00000000000E+00  0.24292858038E+03  0.24292858038E+03  0.00000000000E+00 0.  1.
          2   -1    0    0  501    0  0.00000000000E+00 -0.00000000000E+00 -0.20738487391E+04  0.20738487391E+04  0.00000000000E+00 0. -1.
         23    2    1    2    0    0  0.24619385633E+03 -0.54346435604E+03 -0.15378816631E+04  0.16520695031E+04  0.91042365384E+02 0.  0.
         13    1    3    3    0    0  0.14397930699E+03 -0.22644247232E+03 -0.61824705484E+03  0.67397006976E+03  0.00000000000E+00 0. -1.
        -13    1    3    3    0    0  0.10221454934E+03 -0.31702188372E+03 -0.91963460826E+03  0.97809943338E+03  0.00000000000E+00 0.  1.
         22    1    1    2    0    0 -0.24619385633E+03  0.54346435604E+03 -0.29303849560E+03  0.66470781632E+03  0.00000000000E+00 0.  1.
<mgrwt>
<rscale>  0 0.14195734E+04</rscale>
<asrwt>0</asrwt>
<pdfrwt beam="1">  1        2 0.31905365E+00 0.14195734E+04</pdfrwt>
<pdfrwt beam="2">  1       -2 0.37373628E-01 0.14195734E+04</pdfrwt>
<totfact> 0.39908697E+01</totfact>
</mgrwt>
</event>
<event>
 6    1  0.2236204E-005  0.4600081E+04  0.7818608E-02  0.7893346E-01
          2   -1    0    0  501    0  0.00000000000E+00  0.00000000000E+00  0.28427425387E+04  0.28427425387E+04  0.00000000000E+00 0. -1.
         -2   -1    0    0    0  501 -0.00000000000E+00 -0.00000000000E+00 -0.18609442936E+04  0.18609442936E+04  0.00000000000E+00 0.  1.
         23    2    1    2    0    0 -0.20089805645E+04 -0.38558694800E+03  0.15642361972E+04  0.25767373333E+04  0.89778623899E+02 0.  0.
         11    1    3    3    0    0 -0.41924902377E+03 -0.11769994457E+03  0.32843651212E+03  0.54542970526E+03  0.00000000000E+00 0.  1.
        -11    1    3    3    0    0 -0.15897315408E+04 -0.26788700343E+03  0.12357996851E+04  0.20313076281E+04  0.00000000000E+00 0. -1.
         22    1    1    2    0    0  0.20089805645E+04  0.38558694800E+03 -0.58243795210E+03  0.21269494990E+04  0.00000000000E+00 0.  1.
<mgrwt>
<rscale>  0 0.46000807E+04</rscale>
<asrwt>0</asrwt>
<pdfrwt beam="1">  1        2 0.43734501E+00 0.46000807E+04</pdfrwt>
<pdfrwt beam="2">  1       -2 0.28629912E+00 0.46000807E+04</pdfrwt>
<totfact> 0.63086315E-02</totfact>
</mgrwt>
</event>
<event>
 6    1  0.2236204E-005  0.5064211E+04  0.7818608E-02  0.7818678E-01
         -2   -1    0    0    0  501 -0.00000000000E+00  0.00000000000E+00  0.19861986676E+04  0.19861986676E+04  0.00000000000E+00 0.  1.
          2   -1    0    0  501    0  0.00000000000E+00 -0.00000000000E+00 -0.32280549056E+04  0.32280549056E+04  0.00000000000E+00 0. -1.
         23    2    1    2    0    0 -0.16655184258E+04  0.16137359319E+04 -0.16656344469E+04  0.28567796592E+04  0.93576845501E+02 0.  0.
         11    1    3    3    0    0 -0.32247497924E+03  0.36549713834E+03 -0.35015304752E+03  0.60015450265E+03  0.00000000000E+00 0. -1.
        -11    1    3    3    0    0 -0.13430434466E+04  0.12482387936E+04 -0.13154813994E+04  0.22566251566E+04  0.00000000000E+00 0.  1.
         22    1    1    2    0    0  0.16655184258E+04 -0.16137359319E+04  0.42377820883E+03  0.23574739139E+04  0.00000000000E+00 0.  1.
<mgrwt>
<rscale>  0 0.50642110E+04</rscale>
<asrwt>0</asrwt>
<pdfrwt beam="1">  1        2 0.49662383E+00 0.50642110E+04</pdfrwt>
<pdfrwt beam="2">  1       -2 0.30556903E+00 0.50642110E+04</pdfrwt>
<totfact> 0.26425690E-02</totfact>
</mgrwt>
</event>
<event>
 6    1  0.2236204E-005  0.3526383E+04  0.7818608E-02  0.8107566E-01
         -2   -1    0    0    0  501 -0.00000000000E+00  0.00000000000E+00  0.84020349742E+03  0.84020349742E+03  0.00000000000E+00 0.  1.
          2   -1    0    0  501    0  0.00000000000E+00 -0.00000000000E+00 -0.37001087778E+04  0.37001087778E+04  0.00000000000E+00 0. -1.
         23    2    1    2    0    0 -0.15808439337E+04 -0.13003609715E+03 -0.44273235565E+03  0.16491703075E+04  0.88169354891E+02 0.  0.
         13    1    3    3    0    0 -0.72929773895E+03 -0.90255745654E+02 -0.17178858753E+03  0.75467384377E+03  0.00000000000E+00 0. -1.
        -13    1    3    3    0    0 -0.85154619476E+03 -0.39780351498E+02 -0.27094376811E+03  0.89449646375E+03  0.00000000000E+00 0.  1.
         22    1    1    2    0    0  0.15808439337E+04  0.13003609715E+03 -0.24171729247E+04  0.28911419677E+04  0.00000000000E+00 0. -1.
<mgrwt>
<rscale>  0 0.35263830E+04</rscale>
<asrwt>0</asrwt>
<pdfrwt beam="1">  1        2 0.56924751E+00 0.35263830E+04</pdfrwt>
<pdfrwt beam="2">  1       -2 0.12926207E+00 0.35263830E+04</pdfrwt>
<totfact> 0.21040516E-01</totfact>
</mgrwt>
</event>
<event>
 6    1  0.2236204E-005  0.5906388E+04  0.7818608E-02  0.7702118E-01
          2   -1    0    0  501    0  0.00000000000E+00  0.00000000000E+00  0.37763016337E+04  0.37763016337E+04  0.00000000000E+00 0. -1.
         -2   -1    0    0    0  501 -0.00000000000E+00 -0.00000000000E+00 -0.23094961366E+04  0.23094961366E+04  0.00000000000E+00 0.  1.
         23    2    1    2    0    0  0.54420970569E+03  0.28566187820E+04  0.20750475560E+03  0.29168431434E+04  0.92090337153E+02 0.  0.
         11    1    3    3    0    0  0.38807680542E+03  0.20239035224E+04  0.18888856555E+03  0.20694124686E+04  0.00000000000E+00 0.  1.
        -11    1    3    3    0    0  0.15613290027E+03  0.83271525961E+03  0.18616190053E+02  0.84743067485E+03  0.00000000000E+00 0. -1.
         22    1    1    2    0    0 -0.54420970569E+03 -0.28566187820E+04  0.12593007415E+04  0.31689546269E+04  0.00000000000E+00 0. -1.
<mgrwt>
<rscale>  0 0.59063877E+04</rscale>
<asrwt>0</asrwt>
<pdfrwt beam="1">  1        2 0.58096948E+00 0.59063877E+04</pdfrwt>
<pdfrwt beam="2">  1       -2 0.35530710E+00 0.59063877E+04</pdfrwt>
<totfact> 0.49806039E-03</totfact>
</mgrwt>
</event>
<event>
 6    1  0.2236204E-005  0.1373003E+04  0.7818608E-02  0.8973595E-01
         -2   -1    0    0    0  501 -0.00000000000E+00  0.00000000000E+00  0.19346663488E+03  0.19346663488E+03  0.00000000000E+00 0. -1.
          2   -1    0    0  501    0  0.00000000000E+00 -0.00000000000E+00 -0.24359983619E+04  0.24359983619E+04  0.00000000000E+00 0.  1.
         23    2    1    2    0    0  0.16565266583E+03 -0.35579454606E+03 -0.21978669233E+04  0.22344643519E+04  0.90450887006E+02 0.  0.
         11    1    3    3    0    0  0.34656292400E+02 -0.16251212473E+03 -0.10530055164E+04  0.10660355842E+04  0.00000000000E+00 0. -1.
        -11    1    3    3    0    0  0.13099637343E+03 -0.19328242133E+03 -0.11448614069E+04  0.11684287677E+04  0.00000000000E+00 0.  1.
         22    1    1    2    0    0 -0.16565266583E+03  0.35579454606E+03 -0.44664803719E+02  0.39500064480E+03  0.00000000000E+00 0. -1.
<mgrwt>
<rscale>  0 0.13730031E+04</rscale>
<asrwt>0</asrwt>
<pdfrwt beam="1">  1        2 0.37476896E+00 0.13730031E+04</pdfrwt>
<pdfrwt beam="2">  1       -2 0.29764099E-01 0.13730031E+04</pdfrwt>
<totfact> 0.38599393E+01</totfact>
</mgrwt>
</event>
<event>
 6    1  0.2236204E-005  0.1571562E+04  0.7818608E-02  0.8838212E-01
          2   -1    0    0  501    0  0.00000000000E+00  0.00000000000E+00  0.10080529464E+04  0.10080529464E+04  0.00000000000E+00 0. -1.
         -2   -1    0    0    0  501 -0.00000000000E+00 -0.00000000000E+00 -0.61251918472E+03  0.61251918472E+03  0.00000000000E+00 0.  1.
         23    2    1    2    0    0 -0.26118349321E+03 -0.73356896111E+03  0.11188176089E+03  0.79183894404E+03  0.90283703198E+02 0.  0.
         13    1    3    3    0    0 -0.21972052817E+03 -0.49436893363E+03  0.70526733033E+02  0.54557471817E+03  0.00000000000E+00 0. -1.
        -13    1    3    3    0    0 -0.41462965034E+02 -0.23920002748E+03  0.41355027862E+02  0.24626422587E+03  0.00000000000E+00 0.  1.
         22    1    1    2    0    0  0.26118349321E+03  0.73356896111E+03  0.28365200080E+03  0.82873318709E+03  0.00000000000E+00 0. -1.
<mgrwt>
<rscale>  0 0.15715620E+04</rscale>
<asrwt>0</asrwt>
<pdfrwt beam="1">  1        2 0.15508507E+00 0.15715620E+04</pdfrwt>
<pdfrwt beam="2">  1       -2 0.94233721E-01 0.15715620E+04</pdfrwt>
<totfact> 0.22724186E+01</totfact>
</mgrwt>
</event>
<event>
 6    1  0.2236204E-005  0.3576860E+04  0.7818608E-02  0.8095813E-01
         -2   -1    0    0    0  501 -0.00000000000E+00  0.00000000000E+00  0.13651356166E+04  0.13651356166E+04  0.00000000000E+00 0.  1.
          2   -1    0    0  501    0  0.00000000000E+00 -0.00000000000E+00 -0.23429771194E+04  0.23429771194E+04  0.00000000000E+00 0. -1.
         23    2    1    2    0    0 -0.72661941605E+03 -0.27581679256E+03 -0.21577542242E+04  0.22952274933E+04  0.90084822046E+02 0.  0.
         13    1    3    3    0    0 -0.26821691686E+03 -0.89857781157E+02 -0.91150951949E+03  0.95439213086E+03  0.00000000000E+00 0. -1.
        -13    1    3    3    0    0 -0.45840249919E+03 -0.18595901141E+03 -0.12462447047E+04  0.13408353624E+04  0.00000000000E+00 0.  1.
         22    1    1    2    0    0  0.72661941605E+03  0.27581679256E+03  0.11799127214E+04  0.14128852427E+04  0.00000000000E+00 0.  1.
<mgrwt>
<rscale>  0 0.35768598E+04</rscale>
<asrwt>0</asrwt>
<pdfrwt beam="1">  1        2 0.36045801E+00 0.35768598E+04</pdfrwt>
<pdfrwt beam="2">  1       -2 0.21002087E+00 0.35768598E+04</pdfrwt>
<totfact> 0.40058504E-01</totfact>
</mgrwt>
</event>
<event>
 6    1  0.2236204E-005  0.1165904E+04  0.7818608E-02  0.9143236E-01
          1   -1    0    0  501    0  0.00000000000E+00  0.00000000000E+00  0.71771536566E+03  0.71771536566E+03  0.00000000000E+00 0. -1.
         -1   -1    0    0    0  501 -0.00000000000E+00 -0.00000000000E+00 -0.47349268689E+03  0.47349268689E+03  0.00000000000E+00 0.  1.
         23    2    1    2    0    0 -0.53299658978E+02 -0.57698526911E+03  0.11948909263E+03  0.59849284106E+03  0.90350335483E+02 0.  0.
         11    1    3    3    0    0 -0.20457578380E+02 -0.43376421980E+03  0.53893886148E+02  0.43757794946E+03  0.00000000000E+00 0.  1.
        -11    1    3    3    0    0 -0.32842080598E+02 -0.14322104932E+03  0.65595206483E+02  0.16091489160E+03  0.00000000000E+00 0. -1.
         22    1    1    2    0    0  0.53299658978E+02  0.57698526911E+03  0.12473358613E+03  0.59271521149E+03  0.00000000000E+00 0.  1.
<mgrwt>
<rscale>  0 0.11659039E+04</rscale>
<asrwt>0</asrwt>
<pdfrwt beam="1">  1        1 0.11041775E+00 0.11659039E+04</pdfrwt>
<pdfrwt beam="2">  1       -1 0.72845029E-01 0.11659039E+04</pdfrwt>
<totfact> 0.49448476E+01</totfact>
</mgrwt>
</event>
<event>
 6    1  0.2236204E-005  0.2385344E+04  0.7818608E-02  0.8445011E-01
         -2   -1    0    0    0  501 -0.00000000000E+00  0.00000000000E+00  0.53420430005E+03  0.53420430005E+03  0.00000000000E+00 0. -1.
          2   -1    0    0  501    0  0.00000000000E+00 -0.00000000000E+00 -0.26627769690E+04  0.26627769690E+04  0.00000000000E+00 0.  1.
         23    2    1    2    0    0  0.76054089635E+03 -0.44419952011E+03 -0.21402154790E+04  0.23161457431E+04  0.90956793625E+02 0.  0.
         13    1    3    3    0    0  0.49925748665E+03 -0.29346535232E+03 -0.15165715870E+04  0.16233820651E+04  0.00000000000E+00 0.  1.
        -13    1    3    3    0    0  0.26128340969E+03 -0.15073416779E+03 -0.62364389200E+03  0.69276367799E+03  0.00000000000E+00 0. -1.
         22    1    1    2    0    0 -0.76054089635E+03  0.44419952011E+03  0.11642810035E+02  0.88083552591E+03  0.00000000000E+00 0. -1.
<mgrwt>
<rscale>  0 0.23853443E+04</rscale>
<asrwt>0</asrwt>
<pdfrwt beam="1">  1        2 0.40965798E+00 0.23853443E+04</pdfrwt>
<pdfrwt beam="2">  1       -2 0.82185279E-01 0.23853443E+04</pdfrwt>
<totfact> 0.32722996E+00</totfact>
</mgrwt>
</event>
<event>
 6    1  0.2236204E-005  0.1051046E+04  0.7818608E-02  0.9254264E-01
          2   -1    0    0  501    0  0.00000000000E+00  0.00000000000E+00  0.28422622345E+04  0.28422622345E+04  0.00000000000E+00 0. -1.
         -2   -1    0    0    0  501 -0.00000000000E+00 -0.00000000000E+00 -0.97167203180E+02  0.97167203180E+02  0.00000000000E+00 0.  1.
         23    2    1    2    0    0  0.29430514979E+02 -0.51911872287E+03  0.13222763011E+04  0.14245817414E+04  0.10328658204E+03 0.  0.
         13    1    3    3    0    0  0.38631413549E+02 -0.82532689054E+02  0.28233171027E+03  0.29667360094E+03  0.00000000000E+00 0. -1.
        -13    1    3    3    0    0 -0.92008985697E+01 -0.43658603382E+03  0.10399445908E+04  0.11279081405E+04  0.00000000000E+00 0.  1.
         22    1    1    2    0    0 -0.29430514979E+02  0.51911872287E+03  0.14228187302E+04  0.15148476962E+04  0.00000000000E+00 0. -1.
<mgrwt>
<rscale>  0 0.10510465E+04</rscale>
<asrwt>0</asrwt>
<pdfrwt beam="1">  1        2 0.43727105E+00 0.10510465E+04</pdfrwt>
<pdfrwt beam="2">  1       -2 0.14948803E-01 0.10510465E+04</pdfrwt>
<totfact> 0.77999413E+01</totfact>
</mgrwt>
</event>
<event>
 6    1  0.2236204E-005  0.1486759E+04  0.7818608E-02  0.8893306E-01
         -2   -1    0    0    0  501 -0.00000000000E+00  0.00000000000E+00  0.35362708322E+03  0.35362708322E+03  0.00000000000E+00 0.  1.
          2   -1    0    0  501    0  0.00000000000E+00 -0.00000000000E+00 -0.15626993634E+04  0.15626993634E+04  0.00000000000E+00 0. -1.
         23    2    1    2    0    0 -0.31992093944E+03  0.53771876055E+03 -0.95771793898E+02  0.63924820090E+03  0.89303711614E+02 0.  0.
         11    1    3    3    0    0 -0.23863982303E+03  0.44904040424E+03 -0.51697421201E+02  0.51113488742E+03  0.00000000000E+00 0. -1.
        -11    1    3    3    0    0 -0.81281116415E+02  0.88678356308E+02 -0.44074372698E+02  0.12811331348E+03  0.00000000000E+00 0.  1.
         22    1    1    2    0    0  0.31992093944E+03 -0.53771876055E+03 -0.11133004863E+04  0.12770782458E+04  0.00000000000E+00 0. -1.
<mgrwt>
<rscale>  0 0.14867586E+04</rscale>
<asrwt>0</asrwt>
<pdfrwt beam="1">  1        2 0.24041529E+00 0.14867586E+04</pdfrwt>
<pdfrwt beam="2">  1       -2 0.54404166E-01 0.14867586E+04</pdfrwt>
<totfact> 0.35986606E+01</totfact>
</mgrwt>
</event>
<event>
 6    1  0.2236204E-005  0.3108191E+04  0.7818608E-02  0.8213494E-01
         -2   -1    0    0    0  501 -0.00000000000E+00  0.00000000000E+00  0.15803966872E+04  0.15803966872E+04  0.00000000000E+00 0.  1.
          2   -1    0    0  501    0  0.00000000000E+00 -0.00000000000E+00 -0.15282318831E+04  0.15282318831E+04  0.00000000000E+00 0. -1.
         23    2    1    2    0    0 -0.59929952281E+03  0.13353882265E+04 -0.49485242746E+03  0.15460507370E+04  0.54519015564E+02 0.  0.
         11    1    3    3    0    0 -0.14877567914E+03  0.38498016876E+03 -0.12782304424E+03  0.43206789244E+03  0.00000000000E+00 0.  1.
        -11    1    3    3    0    0 -0.45052384367E+03  0.95040805771E+03 -0.36702938322E+03  0.11139828446E+04  0.00000000000E+00 0. -1.
         22    1    1    2    0    0  0.59929952281E+03 -0.13353882265E+04  0.54701723163E+03  0.15625778333E+04  0.00000000000E+00 0.  1.
<mgrwt>
<rscale>  0 0.31081909E+04</rscale>
<asrwt>0</asrwt>
<pdfrwt beam="1">  1        2 0.23511260E+00 0.31081909E+04</pdfrwt>
<pdfrwt beam="2">  1       -2 0.24313795E+00 0.31081909E+04</pdfrwt>
<totfact> 0.73546175E-01</totfact>
</mgrwt>
</event>
<event>
 6    1  0.2236204E-005  0.3036334E+04  0.7818608E-02  0.8233431E-01
         -2   -1    0    0    0  501 -0.00000000000E+00  0.00000000000E+00  0.80776378952E+03  0.80776378952E+03  0.00000000000E+00 0.  1.
          2   -1    0    0  501    0  0.00000000000E+00 -0.00000000000E+00 -0.28533484054E+04  0.28533484054E+04  0.00000000000E+00 0. -1.
         23    2    1    2    0    0 -0.35781343930E+02  0.71785440977E+03  0.58675184160E+03  0.93241461484E+03  0.92325685166E+02 0.  0.
         11    1    3    3    0    0 -0.60986829075E+01  0.64734425488E+03  0.53752296386E+03  0.84144085647E+03  0.00000000000E+00 0.  1.
        -11    1    3    3    0    0 -0.29682661023E+02  0.70510154893E+02  0.49228877740E+02  0.90973758370E+02  0.00000000000E+00 0. -1.
         22    1    1    2    0    0  0.35781343930E+02 -0.71785440977E+03 -0.26323364575E+04  0.27286975801E+04  0.00000000000E+00 0. -1.
<mgrwt>
<rscale>  0 0.30363343E+04</rscale>
<asrwt>0</asrwt>
<pdfrwt beam="1">  1        2 0.43897669E+00 0.30363343E+04</pdfrwt>
<pdfrwt beam="2">  1       -2 0.12427135E+00 0.30363343E+04</pdfrwt>
<totfact> 0.89069293E-01</totfact>
</mgrwt>
</event>
<event>
 6    1  0.2236204E-005  0.3088422E+04  0.7818608E-02  0.8218923E-01
         -2   -1    0    0    0  501 -0.00000000000E+00  0.00000000000E+00  0.80563811074E+03  0.80563811074E+03  0.00000000000E+00 0.  1.
          2   -1    0    0  501    0  0.00000000000E+00 -0.00000000000E+00 -0.29598734762E+04  0.29598734762E+04  0.00000000000E+00 0. -1.
         23    2    1    2    0    0  0.87804867819E+03 -0.11023502840E+03  0.46286918940E+03  0.10028394215E+04  0.91201842172E+02 0.  0.
         13    1    3    3    0    0  0.63827187888E+03 -0.69462846746E+02  0.29030940494E+03  0.70462445959E+03  0.00000000000E+00 0.  1.
        -13    1    3    3    0    0  0.23977679930E+03 -0.40772181656E+02  0.17255978446E+03  0.29821496189E+03  0.00000000000E+00 0. -1.
         22    1    1    2    0    0 -0.87804867819E+03  0.11023502840E+03 -0.26171045548E+04  0.27626721654E+04  0.00000000000E+00 0. -1.
<mgrwt>
<rscale>  0 0.30884215E+04</rscale>
<asrwt>0</asrwt>
<pdfrwt beam="1">  1        2 0.45536514E+00 0.30884215E+04</pdfrwt>
<pdfrwt beam="2">  1       -2 0.12394433E+00 0.30884215E+04</pdfrwt>
<totfact> 0.76734509E-01</totfact>
</mgrwt>
</event>
<event>
 6    1  0.2236204E-005  0.3110643E+04  0.7818608E-02  0.8212823E-01
          2   -1    0    0  501    0  0.00000000000E+00  0.00000000000E+00  0.19159298187E+04  0.19159298187E+04  0.00000000000E+00 0. -1.
         -2   -1    0    0    0  501 -0.00000000000E+00 -0.00000000000E+00 -0.12625853130E+04  0.12625853130E+04  0.00000000000E+00 0.  1.
         23    2    1    2    0    0  0.67041743049E+02  0.31143303750E+03 -0.12271457257E+04  0.12712320792E+04  0.93055008982E+02 0.  0.
         11    1    3    3    0    0  0.46148383669E+02  0.60113388935E+02 -0.37367456374E+03  0.38128201168E+03  0.00000000000E+00 0. -1.
        -11    1    3    3    0    0  0.20893359380E+02  0.25131964857E+03 -0.85347116200E+03  0.88995006747E+03  0.00000000000E+00 0.  1.
         22    1    1    2    0    0 -0.67041743049E+02 -0.31143303750E+03  0.18804902314E+04  0.19072830526E+04  0.00000000000E+00 0. -1.
<mgrwt>
<rscale>  0 0.31106429E+04</rscale>
<asrwt>0</asrwt>
<pdfrwt beam="1">  1        2 0.29475844E+00 0.31106429E+04</pdfrwt>
<pdfrwt beam="2">  1       -2 0.19424389E+00 0.31106429E+04</pdfrwt>
<totfact> 0.91645761E-01</totfact>
</mgrwt>
</event>
<event>
 6    1  0.2236204E-005  0.3455124E+04  0.7818608E-02  0.8124508E-01
         -2   -1    0    0    0  501 -0.00000000000E+00  0.00000000000E+00  0.11046121169E+04  0.11046121169E+04  0.00000000000E+00 0.  1.
          2   -1    0    0  501    0  0.00000000000E+00 -0.00000000000E+00 -0.27018266469E+04  0.27018266469E+04  0.00000000000E+00 0. -1.
         23    2    1    2    0    0 -0.20304479295E+03  0.14225190646E+04  0.25515511945E+03  0.14620708329E+04  0.88086937513E+02 0.  0.
         11    1    3    3    0    0 -0.13289391561E+03  0.65107895784E+03  0.98461987286E+02  0.67175841274E+03  0.00000000000E+00 0. -1.
        -11    1    3    3    0    0 -0.70150877343E+02  0.77144010671E+03  0.15669313217E+03  0.79031242019E+03  0.00000000000E+00 0.  1.
         22    1    1    2    0    0  0.20304479295E+03 -0.14225190646E+04 -0.18523696495E+04  0.23443679309E+04  0.00000000000E+00 0. -1.
<mgrwt>
<rscale>  0 0.34551240E+04</rscale>
<asrwt>0</asrwt>
<pdfrwt beam="1">  1        2 0.41566564E+00 0.34551240E+04</pdfrwt>
<pdfrwt beam="2">  1       -2 0.16994033E+00 0.34551240E+04</pdfrwt>
<totfact> 0.46591279E-01</totfact>
</mgrwt>
</event>
<event>
 6    1  0.2236204E-005  0.3291719E+04  0.7818608E-02  0.8165006E-01
          2   -1    0    0  501    0  0.00000000000E+00  0.00000000000E+00  0.22585484038E+04  0.22585484038E+04  0.00000000000E+00 0. -1.
         -2   -1    0    0    0  501 -0.00000000000E+00 -0.00000000000E+00 -0.11993783250E+04  0.11993783250E+04  0.00000000000E+00 0.  1.
         23    2    1    2    0    0  0.80473815659E+03  0.14343085247E+04  0.53266707332E+03  0.17310654549E+04  0.89492754824E+02 0.  0.
         11    1    3    3    0    0  0.30628808413E+03  0.50583228246E+03  0.23179360876E+03  0.63514326378E+03  0.00000000000E+00 0.  1.
        -11    1    3    3    0    0  0.49845007246E+03  0.92847624229E+03  0.30087346456E+03  0.10959221911E+04  0.00000000000E+00 0. -1.
         22    1    1    2    0    0 -0.80473815659E+03 -0.14343085247E+04  0.52650300551E+03  0.17268612740E+04  0.00000000000E+00 0.  1.
<mgrwt>
<rscale>  0 0.32917193E+04</rscale>
<asrwt>0</asrwt>
<pdfrwt beam="1">  1        2 0.34746898E+00 0.32917193E+04</pdfrwt>
<pdfrwt beam="2">  1       -2 0.18451974E+00 0.32917193E+04</pdfrwt>
<totfact> 0.67520766E-01</totfact>
</mgrwt>
</event>
<event>
 6    1  0.2236204E-005  0.3924297E+04  0.7818608E-02  0.8019995E-01
          1   -1    0    0  501    0  0.00000000000E+00  0.00000000000E+00  0.28011346627E+04  0.28011346627E+04  0.00000000000E+00 0. -1.
         -1   -1    0    0    0  501 -0.00000000000E+00 -0.00000000000E+00 -0.13744525880E+04  0.13744525880E+04  0.00000000000E+00 0.  1.
         23    2    1    2    0    0  0.73706618120E+03 -0.17911026189E+04  0.10408925761E+04  0.22007078408E+04  0.91337279232E+02 0.  0.
         11    1    3    3    0    0  0.38799221141E+03 -0.92362334178E+03  0.58947076186E+03  0.11623656106E+04  0.00000000000E+00 0.  1.
        -11    1    3    3    0    0  0.34907396978E+03 -0.86747927710E+03  0.45142181425E+03  0.10383422302E+04  0.00000000000E+00 0. -1.
         22    1    1    2    0    0 -0.73706618120E+03  0.17911026189E+04  0.38578949860E+03  0.19748794100E+04  0.00000000000E+00 0.  1.
<mgrwt>
<rscale>  0 0.39242970E+04</rscale>
<asrwt>0</asrwt>
<pdfrwt beam="1">  1        1 0.43094379E+00 0.39242970E+04</pdfrwt>
<pdfrwt beam="2">  1       -1 0.21145425E+00 0.39242970E+04</pdfrwt>
<totfact> 0.82300428E-02</totfact>
</mgrwt>
</event>
<event>
 6    1  0.2236204E-005  0.5105046E+04  0.7818608E-02  0.7812504E-01
         -2   -1    0    0    0  501 -0.00000000000E+00  0.00000000000E+00  0.13270816951E+04  0.13270816951E+04  0.00000000000E+00 0.  1.
          2   -1    0    0  501    0  0.00000000000E+00 -0.00000000000E+00 -0.49095494618E+04  0.49095494618E+04  0.00000000000E+00 0. -1.
         23    2    1    2    0    0 -0.34543926817E+03  0.11551403774E+04  0.95560089476E+03  0.15411285475E+04  0.90700332884E+02 0.  0.
         11    1    3    3    0    0 -0.15480686582E+03  0.61816607286E+03  0.45986661261E+03  0.78585734121E+03  0.00000000000E+00 0. -1.
        -11    1    3    3    0    0 -0.19063240235E+03  0.53697430450E+03  0.49573428215E+03  0.75527120627E+03  0.00000000000E+00 0.  1.
         22    1    1    2    0    0  0.34543926817E+03 -0.11551403774E+04 -0.45380686614E+04  0.46955026094E+04  0.00000000000E+00 0. -1.
<mgrwt>
<rscale>  0 0.51050458E+04</rscale>
<asrwt>0</asrwt>
<pdfrwt beam="1">  1        2 0.75531530E+00 0.51050458E+04</pdfrwt>
<pdfrwt beam="2">  1       -2 0.20416641E+00 0.51050458E+04</pdfrwt>
<totfact> 0.39374625E-03</totfact>
</mgrwt>
</event>
<event>
 6    1  0.2236204E-005  0.1904401E+04  0.7818608E-02  0.8652669E-01
          2   -1    0    0  501    0  0.00000000000E+00  0.00000000000E+00  0.98876626708E+03  0.98876626708E+03  0.00000000000E+00 0. -1.
         -2   -1    0    0    0  501 -0.00000000000E+00 -0.00000000000E+00 -0.91698663468E+03  0.91698663468E+03  0.00000000000E+00 0.  1.
         23    2    1    2    0    0  0.61062249048E+03  0.15070201722E+03  0.74845020144E+03  0.98192716988E+03  0.91827768436E+02 0.  0.
         11    1    3    3    0    0  0.16470921147E+03  0.21447539161E+02  0.25570518145E+03  0.30491681013E+03  0.00000000000E+00 0.  1.
        -11    1    3    3    0    0  0.44591327901E+03  0.12925447806E+03  0.49274501999E+03  0.67701035976E+03  0.00000000000E+00 0. -1.
         22    1    1    2    0    0 -0.61062249048E+03 -0.15070201722E+03 -0.67667056904E+03  0.92382573187E+03  0.00000000000E+00 0.  1.
<mgrwt>
<rscale>  0 0.19044006E+04</rscale>
<asrwt>0</asrwt>
<pdfrwt beam="1">  1        2 0.15211789E+00 0.19044006E+04</pdfrwt>
<pdfrwt beam="2">  1       -2 0.14107487E+00 0.19044006E+04</pdfrwt>
<totfact> 0.84419534E+00</totfact>
</mgrwt>
</event>
<event>
 6    1  0.2236204E-005  0.1802517E+04  0.7818608E-02  0.8704962E-01
          4   -1    0    0  501    0  0.00000000000E+00  0.00000000000E+00  0.16284374679E+04  0.16284374679E+04  0.00000000000E+00 0. -1.
         -4   -1    0    0    0  501 -0.00000000000E+00 -0.00000000000E+00 -0.49880120647E+03  0.49880120647E+03  0.00000000000E+00 0.  1.
         23    2    1    2    0    0 -0.39803044329E+03 -0.15860818643E+03 -0.36659496858E+03  0.57086703358E+03  0.88952281903E+02 0.  0.
         11    1    3    3    0    0 -0.91678356327E+02 -0.54550158973E+01 -0.50573543946E+02  0.10484446368E+03  0.00000000000E+00 0. -1.
        -11    1    3    3    0    0 -0.30635208696E+03 -0.15315317053E+03 -0.31602142463E+03  0.46602256990E+03  0.00000000000E+00 0.  1.
         22    1    1    2    0    0  0.39803044329E+03  0.15860818643E+03  0.14962312300E+04  0.15563716408E+04  0.00000000000E+00 0. -1.
<mgrwt>
<rscale>  0 0.18025167E+04</rscale>
<asrwt>0</asrwt>
<pdfrwt beam="1">  1        4 0.25052884E+00 0.18025167E+04</pdfrwt>
<pdfrwt beam="2">  1       -4 0.76738648E-01 0.18025167E+04</pdfrwt>
<totfact> 0.18063606E-01</totfact>
</mgrwt>
</event>
<event>
 6    1  0.2236204E-005  0.1482519E+04  0.7818608E-02  0.8896162E-01
          2   -1    0    0  501    0  0.00000000000E+00  0.00000000000E+00  0.31320769875E+04  0.31320769875E+04  0.00000000000E+00 0. -1.
         -2   -1    0    0    0  501 -0.00000000000E+00 -0.00000000000E+00 -0.17543171442E+03  0.17543171442E+03  0.00000000000E+00 0.  1.
         23    2    1    2    0    0 -0.72570364077E+03 -0.84642021526E+02  0.12437751803E+04  0.14453234263E+04  0.90404985422E+02 0.  0.
         11    1    3    3    0    0 -0.30134342377E+03 -0.60409572719E+02  0.59539671697E+03  0.67004061526E+03  0.00000000000E+00 0.  1.
        -11    1    3    3    0    0 -0.42436021700E+03 -0.24232448807E+02  0.64837846337E+03  0.77528281105E+03  0.00000000000E+00 0. -1.
         22    1    1    2    0    0  0.72570364077E+03  0.84642021526E+02  0.17128700927E+04  0.18621852756E+04  0.00000000000E+00 0. -1.
<mgrwt>
<rscale>  0 0.14825190E+04</rscale>
<asrwt>0</asrwt>
<pdfrwt beam="1">  1        2 0.48185796E+00 0.14825190E+04</pdfrwt>
<pdfrwt beam="2">  1       -2 0.26989497E-01 0.14825190E+04</pdfrwt>
<totfact> 0.17480857E+01</totfact>
</mgrwt>
</event>
<event>
 6    1  0.2236204E-005  0.2098299E+04  0.7818608E-02  0.8561993E-01
         -2   -1    0    0    0  501 -0.00000000000E+00  0.00000000000E+00  0.52563763149E+03  0.52563763149E+03  0.00000000000E+00 0.  1.
          2   -1    0    0  501    0  0.00000000000E+00 -0.00000000000E+00 -0.20940566639E+04  0.20940566639E+04  0.00000000000E+00 0. -1.
         23    2    1    2    0    0 -0.59276334422E+03  0.86317338835E+03 -0.79232052729E+03  0.13163272825E+04  0.92244328143E+02 0.  0.
         13    1    3    3    0    0 -0.30222477481E+03  0.41951868230E+03 -0.33529462922E+03  0.61624526586E+03  0.00000000000E+00 0.  1.
        -13    1    3    3    0    0 -0.29053856941E+03  0.44365470605E+03 -0.45702589807E+03  0.70008201664E+03  0.00000000000E+00 0. -1.
         22    1    1    2    0    0  0.59276334422E+03 -0.86317338835E+03 -0.77609850509E+03  0.13033670129E+04  0.00000000000E+00 0.  1.
<mgrwt>
<rscale>  0 0.20982993E+04</rscale>
<asrwt>0</asrwt>
<pdfrwt beam="1">  1        2 0.32216256E+00 0.20982993E+04</pdfrwt>
<pdfrwt beam="2">  1       -2 0.80867328E-01 0.20982993E+04</pdfrwt>
<totfact> 0.73617453E+00</totfact>
</mgrwt>
</event>
<event>
 6    1  0.2236204E-005  0.1649735E+04  0.7818608E-02  0.8790563E-01
          2   -1    0    0  501    0  0.00000000000E+00  0.00000000000E+00  0.22069633678E+04  0.22069633678E+04  0.00000000000E+00 0. -1.
         -2   -1    0    0    0  501 -0.00000000000E+00 -0.00000000000E+00 -0.30829990972E+03  0.30829990972E+03  0.00000000000E+00 0.  1.
         23    2    1    2    0    0 -0.72937892385E+03  0.36167953133E+03  0.78441799783E+03  0.11352818850E+04  0.10367094664E+03 0.  0.
         11    1    3    3    0    0 -0.81950137598E+02  0.78942122665E+01  0.92118297171E+02  0.12354725539E+03  0.00000000000E+00 0. -1.
        -11    1    3    3    0    0 -0.64742878625E+03  0.35378531907E+03  0.69229970065E+03  0.10117346296E+04  0.00000000000E+00 0.  1.
         22    1    1    2    0    0  0.72937892385E+03 -0.36167953133E+03  0.11142454602E+04  0.13799813925E+04  0.00000000000E+00 0. -1.
<mgrwt>
<rscale>  0 0.16497353E+04</rscale>
<asrwt>0</asrwt>
<pdfrwt beam="1">  1        2 0.33953282E+00 0.16497353E+04</pdfrwt>
<pdfrwt beam="2">  1       -2 0.47430757E-01 0.16497353E+04</pdfrwt>
<totfact> 0.20607212E+01</totfact>
</mgrwt>
</event>
<event>
 6    1  0.2236204E-005  0.2864150E+04  0.7818608E-02  0.8283624E-01
         -2   -1    0    0    0  501 -0.00000000000E+00  0.00000000000E+00  0.87441985303E+03  0.87441985303E+03  0.00000000000E+00 0.  1.
          2   -1    0    0  501    0  0.00000000000E+00 -0.00000000000E+00 -0.23453708899E+04  0.23453708899E+04  0.00000000000E+00 0. -1.
         23    2    1    2    0    0 -0.12941211157E+04 -0.14996093338E+03 -0.14008061264E+04  0.19151229491E+04  0.90555852916E+02 0.  0.
         13    1    3    3    0    0 -0.95310498076E+03 -0.10244321584E+03 -0.97167627559E+03  0.13649390101E+04  0.00000000000E+00 0. -1.
        -13    1    3    3    0    0 -0.34101613497E+03 -0.47517717533E+02 -0.42912985086E+03  0.55018393896E+03  0.00000000000E+00 0.  1.
         22    1    1    2    0    0  0.12941211157E+04  0.14996093338E+03 -0.70144910379E+02  0.13046677938E+04  0.00000000000E+00 0.  1.
<mgrwt>
<rscale>  0 0.28641500E+04</rscale>
<asrwt>0</asrwt>
<pdfrwt beam="1">  1        2 0.36082628E+00 0.28641500E+04</pdfrwt>
<pdfrwt beam="2">  1       -2 0.13452613E+00 0.28641500E+04</pdfrwt>
<totfact> 0.14718331E+00</totfact>
</mgrwt>
</event>
<event>
 6    1  0.2236204E-005  0.3139288E+04  0.7818608E-02  0.8205038E-01
         -2   -1    0    0    0  501 -0.00000000000E+00  0.00000000000E+00  0.14815379379E+04  0.14815379379E+04  0.00000000000E+00 0.  1.
          2   -1    0    0  501    0  0.00000000000E+00 -0.00000000000E+00 -0.16629894270E+04  0.16629894270E+04  0.00000000000E+00 0. -1.
         23    2    1    2    0    0  0.74806484473E+03  0.11265766635E+04  0.70482383808E+03  0.15276600400E+04  0.90512785276E+02 0.  0.
         13    1    3    3    0    0  0.71742296354E+03  0.10992486677E+04  0.69565651395E+03  0.14855912384E+04  0.00000000000E+00 0.  1.
        -13    1    3    3    0    0  0.30641881191E+02  0.27327995793E+02  0.91673241335E+01  0.42068801608E+02  0.00000000000E+00 0. -1.
         22    1    1    2    0    0 -0.74806484473E+03 -0.11265766635E+04 -0.88627532718E+03  0.16168673249E+04  0.00000000000E+00 0. -1.
<mgrwt>
<rscale>  0 0.31392878E+04</rscale>
<asrwt>0</asrwt>
<pdfrwt beam="1">  1        2 0.25584453E+00 0.31392878E+04</pdfrwt>
<pdfrwt beam="2">  1       -2 0.22792891E+00 0.31392878E+04</pdfrwt>
<totfact> 0.76672618E-01</totfact>
</mgrwt>
</event>
<event>
 6    1  0.2236204E-005  0.4053132E+04  0.7818608E-02  0.7993913E-01
         -2   -1    0    0    0  501 -0.00000000000E+00  0.00000000000E+00  0.29829776452E+04  0.29829776452E+04  0.00000000000E+00 0.  1.
          2   -1    0    0  501    0  0.00000000000E+00 -0.00000000000E+00 -0.13768022997E+04  0.13768022997E+04  0.00000000000E+00 0. -1.
         23    2    1    2    0    0 -0.38961179950E+03 -0.44022340503E+03 -0.12814565184E+04  0.14129152073E+04  0.92760842436E+02 0.  0.
         13    1    3    3    0    0 -0.28569607336E+03 -0.26669858541E+03 -0.78744465067E+03  0.87910150703E+03  0.00000000000E+00 0. -1.
        -13    1    3    3    0    0 -0.10391572614E+03 -0.17352481962E+03 -0.49401186771E+03  0.53381370028E+03  0.00000000000E+00 0.  1.
         22    1    1    2    0    0  0.38961179950E+03  0.44022340503E+03  0.28876318638E+04  0.29468647376E+04  0.00000000000E+00 0.  1.
<mgrwt>
<rscale>  0 0.40531324E+04</rscale>
<asrwt>0</asrwt>
<pdfrwt beam="1">  1        2 0.21181574E+00 0.40531324E+04</pdfrwt>
<pdfrwt beam="2">  1       -2 0.45891964E+00 0.40531324E+04</pdfrwt>
<totfact> 0.35535506E-02</totfact>
</mgrwt>
</event>
<event>
 6    1  0.2236204E-005  0.1331219E+04  0.7818608E-02  0.9005168E-01
         -2   -1    0    0    0  501 -0.00000000000E+00  0.00000000000E+00  0.19754296346E+03  0.19754296346E+03  0.00000000000E+00 0. -1.
          2   -1    0    0  501    0  0.00000000000E+00 -0.00000000000E+00 -0.22427327753E+04  0.22427327753E+04  0.00000000000E+00 0.  1.
         23    2    1    2    0    0  0.19262489293E+03  0.32962429123E+03 -0.20199646823E+04  0.20576625792E+04  0.89226953473E+02 0.  0.
         11    1    3    3    0    0  0.93449092223E+01  0.72468728380E+02 -0.49311406619E+03  0.49849827101E+03  0.00000000000E+00 0.  1.
        -11    1    3    3    0    0  0.18327998371E+03  0.25715556285E+03 -0.15268506161E+04  0.15591643082E+04  0.00000000000E+00 0. -1.
         22    1    1    2    0    0 -0.19262489293E+03 -0.32962429123E+03 -0.25225129575E+02  0.38261315962E+03  0.00000000000E+00 0. -1.
<mgrwt>
<rscale>  0 0.13312191E+04</rscale>
<asrwt>0</asrwt>
<pdfrwt beam="1">  1        2 0.34503582E+00 0.13312191E+04</pdfrwt>
<pdfrwt beam="2">  1       -2 0.30391224E-01 0.13312191E+04</pdfrwt>
<totfact> 0.47928215E+01</totfact>
</mgrwt>
</event>
<event>
 6    1  0.2236204E-005  0.8562668E+03  0.7818608E-02  0.9481964E-01
          2   -1    0    0  501    0  0.00000000000E+00  0.00000000000E+00  0.20416709219E+04  0.20416709219E+04  0.00000000000E+00 0. -1.
         -2   -1    0    0    0  501 -0.00000000000E+00 -0.00000000000E+00 -0.89778523357E+02  0.89778523357E+02  0.00000000000E+00 0.  1.
         23    2    1    2    0    0 -0.15826834366E+03 -0.38758466836E+03  0.11392076488E+04  0.12172682563E+04  0.93151473341E+02 0.  0.
         13    1    3    3    0    0 -0.10986034141E+03 -0.17870255784E+03  0.65337561546E+03  0.68622415702E+03  0.00000000000E+00 0. -1.
        -13    1    3    3    0    0 -0.48408002253E+02 -0.20888211052E+03  0.48583203330E+03  0.53104409926E+03  0.00000000000E+00 0.  1.
         22    1    1    2    0    0  0.15826834366E+03  0.38758466836E+03  0.81268474974E+03  0.91418118894E+03  0.00000000000E+00 0.  1.
<mgrwt>
<rscale>  0 0.85626678E+03</rscale>
<asrwt>0</asrwt>
<pdfrwt beam="1">  1        2 0.31410318E+00 0.85626678E+03</pdfrwt>
<pdfrwt beam="2">  1       -2 0.13812082E-01 0.85626678E+03</pdfrwt>
<totfact> 0.25912173E+02</totfact>
</mgrwt>
</event>
<event>
 6    1  0.2517433E-005  0.3543057E+04  0.7818608E-02  0.8103661E-01
         -2   -1    0    0    0  501 -0.00000000000E+00  0.00000000000E+00  0.13831815656E+04  0.13831815656E+04  0.00000000000E+00 0.  1.
          2   -1    0    0  501    0  0.00000000000E+00 -0.00000000000E+00 -0.22689092948E+04  0.22689092948E+04  0.00000000000E+00 0. -1.
         23    2    1    2    0    0 -0.44123938839E+03  0.40113647798E+03 -0.21614549859E+04  0.22438711668E+04  0.86414614912E+02 0.  0.
         11    1    3    3    0    0 -0.16508469068E+03  0.96604168313E+02 -0.71227474482E+03  0.73750975081E+03  0.00000000000E+00 0. -1.
        -11    1    3    3    0    0 -0.27615469771E+03  0.30453230967E+03 -0.14491802410E+04  0.15063614160E+04  0.00000000000E+00 0.  1.
         22    1    1    2    0    0  0.44123938839E+03 -0.40113647798E+03  0.12757272567E+04  0.14082196935E+04  0.00000000000E+00 0.  1.
<mgrwt>
<rscale>  0 0.35430572E+04</rscale>
<asrwt>0</asrwt>
<pdfrwt beam="1">  1        2 0.34906297E+00 0.35430572E+04</pdfrwt>
<pdfrwt beam="2">  1       -2 0.21279717E+00 0.35430572E+04</pdfrwt>
<totfact> 0.42473826E-01</totfact>
</mgrwt>
</event>
<event>
 6    1  0.2236204E-005  0.2084868E+04  0.7818608E-02  0.8567939E-01
          2   -1    0    0  501    0  0.00000000000E+00  0.00000000000E+00  0.19948043335E+04  0.19948043335E+04  0.00000000000E+00 0. -1.
         -2   -1    0    0    0  501 -0.00000000000E+00 -0.00000000000E+00 -0.54474948929E+03  0.54474948929E+03  0.00000000000E+00 0.  1.
         23    2    1    2    0    0  0.88034733092E+03 -0.55423998499E+03  0.73316682654E+03  0.12761766764E+04  0.94339440022E+02 0.  0.
         13    1    3    3    0    0  0.70200055434E+03 -0.47327453182E+03  0.56324490412E+03  0.10168767786E+04  0.00000000000E+00 0. -1.
        -13    1    3    3    0    0  0.17834677659E+03 -0.80965453176E+02  0.16992192241E+03  0.25929989789E+03  0.00000000000E+00 0.  1.
         22    1    1    2    0    0 -0.88034733092E+03  0.55423998499E+03  0.71688801770E+03  0.12633771464E+04  0.00000000000E+00 0.  1.
<mgrwt>
<rscale>  0 0.20848680E+04</rscale>
<asrwt>0</asrwt>
<pdfrwt beam="1">  1        2 0.30689297E+00 0.20848680E+04</pdfrwt>
<pdfrwt beam="2">  1       -2 0.83807614E-01 0.20848680E+04</pdfrwt>
<totfact> 0.77211209E+00</totfact>
</mgrwt>
</event>
<event>
 6    1  0.2236204E-005  0.2115451E+04  0.7818608E-02  0.8554467E-01
         -2   -1    0    0    0  501 -0.00000000000E+00  0.00000000000E+00  0.20621678957E+04  0.20621678957E+04  0.00000000000E+00 0.  1.
          2   -1    0    0  501    0  0.00000000000E+00 -0.00000000000E+00 -0.54252769421E+03  0.54252769421E+03  0.00000000000E+00 0. -1.
         23    2    1    2    0    0 -0.96124909922E+03  0.27836941526E+03  0.34862938328E+03  0.10643204088E+04  0.98722457760E+02 0.  0.
         13    1    3    3    0    0 -0.56959527946E+03  0.16356691471E+03  0.25747677752E+03  0.64613250107E+03  0.00000000000E+00 0.  1.
        -13    1    3    3    0    0 -0.39165381976E+03  0.11480250055E+03  0.91152605760E+02  0.41818790776E+03  0.00000000000E+00 0. -1.
         22    1    1    2    0    0  0.96124909922E+03 -0.27836941526E+03  0.11710108182E+04  0.15403751811E+04  0.00000000000E+00 0.  1.
<mgrwt>
<rscale>  0 0.21154510E+04</rscale>
<asrwt>0</asrwt>
<pdfrwt beam="1">  1        2 0.83465800E-01 0.21154510E+04</pdfrwt>
<pdfrwt beam="2">  1       -2 0.31725660E+00 0.21154510E+04</pdfrwt>
<totfact> 0.12835569E+00</totfact>
</mgrwt>
</event>
<event>
 6    1  0.2236204E-005  0.2091125E+04  0.7818608E-02  0.8565163E-01
          2   -1    0    0  501    0  0.00000000000E+00  0.00000000000E+00  0.16763131732E+04  0.16763131732E+04  0.00000000000E+00 0. -1.
         -2   -1    0    0    0  501 -0.00000000000E+00 -0.00000000000E+00 -0.65214575776E+03  0.65214575776E+03  0.00000000000E+00 0.  1.
         23    2    1    2    0    0  0.10057175594E+04 -0.21022699212E+03  0.31073007656E+03  0.10775968146E+04  0.94860513020E+02 0.  0.
         11    1    3    3    0    0  0.19845427346E+03 -0.31490205111E+02  0.99523175848E+02  0.22423334766E+03  0.00000000000E+00 0.  1.
        -11    1    3    3    0    0  0.80726328594E+03 -0.17873678700E+03  0.21120690071E+03  0.85336346697E+03  0.00000000000E+00 0. -1.
         22    1    1    2    0    0 -0.10057175594E+04  0.21022699212E+03  0.71343733885E+03  0.12508621163E+04  0.00000000000E+00 0. -1.
<mgrwt>
<rscale>  0 0.20911246E+04</rscale>
<asrwt>0</asrwt>
<pdfrwt beam="1">  1        2 0.25789433E+00 0.20911246E+04</pdfrwt>
<pdfrwt beam="2">  1       -2 0.10033012E+00 0.20911246E+04</pdfrwt>
<totfact> 0.76412932E+00</totfact>
</mgrwt>
</event>
<event>
 6    1  0.2236204E-005  0.3349836E+04  0.7818608E-02  0.8150329E-01
         -2   -1    0    0    0  501 -0.00000000000E+00  0.00000000000E+00  0.89470835893E+03  0.89470835893E+03  0.00000000000E+00 0. -1.
          2   -1    0    0  501    0  0.00000000000E+00 -0.00000000000E+00 -0.31354916476E+04  0.31354916476E+04  0.00000000000E+00 0.  1.
         23    2    1    2    0    0  0.61423394076E+03 -0.87356659247E+03  0.42932178305E+03  0.11544630541E+04  0.89809935235E+02 0.  0.
         11    1    3    3    0    0  0.14492293592E+03 -0.27701804166E+03  0.12615278094E+03  0.33712931778E+03  0.00000000000E+00 0.  1.
        -11    1    3    3    0    0  0.46931100484E+03 -0.59654855080E+03  0.30316900211E+03  0.81733373635E+03  0.00000000000E+00 0. -1.
         22    1    1    2    0    0 -0.61423394076E+03  0.87356659247E+03 -0.26701050717E+04  0.28757369524E+04  0.00000000000E+00 0.  1.
<mgrwt>
<rscale>  0 0.33498362E+04</rscale>
<asrwt>0</asrwt>
<pdfrwt beam="1">  1        2 0.48238333E+00 0.33498362E+04</pdfrwt>
<pdfrwt beam="2">  1       -2 0.13764744E+00 0.33498362E+04</pdfrwt>
<totfact> 0.44537773E-01</totfact>
</mgrwt>
</event>
<event>
 6    1  0.2236204E-005  0.1599084E+04  0.7818608E-02  0.8821111E-01
          2   -1    0    0  501    0  0.00000000000E+00  0.00000000000E+00  0.15798892990E+04  0.15798892990E+04  0.00000000000E+00 0. -1.
         -2   -1    0    0    0  501 -0.00000000000E+00 -0.00000000000E+00 -0.40462817284E+03  0.40462817284E+03  0.00000000000E+00 0.  1.
         23    2    1    2    0    0  0.59356194621E+03 -0.27472954409E+03  0.11547368406E+04  0.13301373432E+04  0.89755637496E+02 0.  0.
         11    1    3    3    0    0  0.53597980221E+03 -0.23204166428E+03  0.97379725936E+03  0.11355169680E+04  0.00000000000E+00 0. -1.
        -11    1    3    3    0    0  0.57582144007E+02 -0.42687879802E+02  0.18093958123E+03  0.19462037521E+03  0.00000000000E+00 0.  1.
         22    1    1    2    0    0 -0.59356194621E+03  0.27472954409E+03  0.20524285538E+02  0.65438012858E+03  0.00000000000E+00 0.  1.
<mgrwt>
<rscale>  0 0.15990844E+04</rscale>
<asrwt>0</asrwt>
<pdfrwt beam="1">  1        2 0.24305989E+00 0.15990844E+04</pdfrwt>
<pdfrwt beam="2">  1       -2 0.62250489E-01 0.15990844E+04</pdfrwt>
<totfact> 0.26283913E+01</totfact>
</mgrwt>
</event>
<event>
 6    1  0.2236204E-005  0.3439734E+04  0.7818608E-02  0.8128222E-01
         -2   -1    0    0    0  501 -0.00000000000E+00  0.00000000000E+00  0.13515828334E+04  0.13515828334E+04  0.00000000000E+00 0.  1.
          2   -1    0    0  501    0  0.00000000000E+00 -0.00000000000E+00 -0.21885031604E+04  0.21885031604E+04  0.00000000000E+00 0. -1.
         23    2    1    2    0    0  0.23527567343E+03 -0.14111311595E+04 -0.13988115251E+04  0.20030864785E+04  0.95057697457E+02 0.  0.
         11    1    3    3    0    0  0.11662089948E+03 -0.43223465331E+03 -0.44064094975E+03  0.62816532562E+03  0.00000000000E+00 0.  1.
        -11    1    3    3    0    0  0.11865477395E+03 -0.97889650614E+03 -0.95817057534E+03  0.13749211529E+04  0.00000000000E+00 0. -1.
         22    1    1    2    0    0 -0.23527567343E+03  0.14111311595E+04  0.56189119804E+03  0.15369995153E+04  0.00000000000E+00 0.  1.
<mgrwt>
<rscale>  0 0.34397345E+04</rscale>
<asrwt>0</asrwt>
<pdfrwt beam="1">  1        2 0.33669279E+00 0.34397345E+04</pdfrwt>
<pdfrwt beam="2">  1       -2 0.20793582E+00 0.34397345E+04</pdfrwt>
<totfact> 0.51104270E-01</totfact>
</mgrwt>
</event>
<event>
 6    1  0.2236204E-005  0.4084480E+03  0.7818608E-02  0.1040893E+00
          2   -1    0    0  501    0  0.00000000000E+00  0.00000000000E+00  0.57021820838E+03  0.57021820838E+03  0.00000000000E+00 0. -1.
         -2   -1    0    0    0  501 -0.00000000000E+00 -0.00000000000E+00 -0.73142956426E+02  0.73142956426E+02  0.00000000000E+00 0.  1.
         23    2    1    2    0    0 -0.17195501856E+02  0.16948068222E+03  0.11489459888E+03  0.22493382522E+03  0.91515408244E+02 0.  0.
         13    1    3    3    0    0  0.30602709712E+02  0.77935046850E+02  0.80326756085E+02  0.11602924249E+03  0.00000000000E+00 0. -1.
        -13    1    3    3    0    0 -0.47798211568E+02  0.91545635372E+02  0.34567842798E+02  0.10890458273E+03  0.00000000000E+00 0.  1.
         22    1    1    2    0    0  0.17195501856E+02 -0.16948068222E+03  0.38218065307E+03  0.41842733959E+03  0.00000000000E+00 0. -1.
<mgrwt>
<rscale>  0 0.40844802E+03</rscale>
<asrwt>0</asrwt>
<pdfrwt beam="1">  1        2 0.87725875E-01 0.40844802E+03</pdfrwt>
<pdfrwt beam="2">  1       -2 0.11252763E-01 0.40844802E+03</pdfrwt>
<totfact> 0.29558601E+03</totfact>
</mgrwt>
</event>
<event>
 6    1  0.2236204E-005  0.4278354E+04  0.7818608E-02  0.7950633E-01
         -2   -1    0    0    0  501 -0.00000000000E+00  0.00000000000E+00  0.17585994640E+04  0.17585994640E+04  0.00000000000E+00 0.  1.
          2   -1    0    0  501    0  0.00000000000E+00 -0.00000000000E+00 -0.26021150994E+04  0.26021150994E+04  0.00000000000E+00 0. -1.
         23    2    1    2    0    0  0.18087302942E+04 -0.49628049129E+03  0.62496607933E+03  0.19786486219E+04  0.81658835655E+02 0.  0.
         13    1    3    3    0    0  0.14170210813E+04 -0.35390649114E+03  0.48170877330E+03  0.15379342937E+04  0.00000000000E+00 0.  1.
        -13    1    3    3    0    0  0.39170921285E+03 -0.14237400015E+03  0.14325730603E+03  0.44071432820E+03  0.00000000000E+00 0. -1.
         22    1    1    2    0    0 -0.18087302942E+04  0.49628049129E+03 -0.14684817147E+04  0.23820659415E+04  0.00000000000E+00 0. -1.
<mgrwt>
<rscale>  0 0.42783540E+04</rscale>
<asrwt>0</asrwt>
<pdfrwt beam="1">  1        2 0.40032540E+00 0.42783540E+04</pdfrwt>
<pdfrwt beam="2">  1       -2 0.27055377E+00 0.42783540E+04</pdfrwt>
<totfact> 0.11256471E-01</totfact>
</mgrwt>
</event>
<event>
 6    1  0.2933018E-005  0.4367459E+04  0.7818608E-02  0.7934261E-01
         -2   -1    0    0    0  501 -0.00000000000E+00  0.00000000000E+00  0.25709335631E+04  0.25709335631E+04  0.00000000000E+00 0.  1.
          2   -1    0    0  501    0  0.00000000000E+00 -0.00000000000E+00 -0.18548417716E+04  0.18548417716E+04  0.00000000000E+00 0. -1.
         23    2    1    2    0    0  0.13852074514E+04  0.82398408548E+03 -0.11335067866E+04  0.19724583235E+04  0.89469247025E+02 0.  0.
         13    1    3    3    0    0  0.33079539771E+03  0.15771454214E+03 -0.23725728781E+03  0.43656671033E+03  0.00000000000E+00 0.  1.
        -13    1    3    3    0    0  0.10544120537E+04  0.66626954333E+03 -0.89624949882E+03  0.15358916132E+04  0.00000000000E+00 0. -1.
         22    1    1    2    0    0 -0.13852074514E+04 -0.82398408548E+03  0.18495985781E+04  0.24533170111E+04  0.00000000000E+00 0.  1.
<mgrwt>
<rscale>  0 0.43674592E+04</rscale>
<asrwt>0</asrwt>
<pdfrwt beam="1">  1        2 0.28536027E+00 0.43674592E+04</pdfrwt>
<pdfrwt beam="2">  1       -2 0.39552824E+00 0.43674592E+04</pdfrwt>
<totfact> 0.48908465E-02</totfact>
</mgrwt>
</event>
<event>
 6    1  0.2236204E-005  0.2235267E+04  0.7818608E-02  0.8503891E-01
         -2   -1    0    0    0  501 -0.00000000000E+00  0.00000000000E+00  0.80035247143E+03  0.80035247143E+03  0.00000000000E+00 0.  1.
          2   -1    0    0  501    0  0.00000000000E+00 -0.00000000000E+00 -0.15606925431E+04  0.15606925431E+04  0.00000000000E+00 0. -1.
         23    2    1    2    0    0  0.28599681939E+03 -0.80650479521E+02  0.75514337389E+03  0.81670413431E+03  0.92007865596E+02 0.  0.
         13    1    3    3    0    0  0.17630527795E+02 -0.19265850120E+02  0.14494097009E+03  0.14727489027E+03  0.00000000000E+00 0.  1.
        -13    1    3    3    0    0  0.26836629159E+03 -0.61384629400E+02  0.61020240379E+03  0.66942924405E+03  0.00000000000E+00 0. -1.
         22    1    1    2    0    0 -0.28599681939E+03  0.80650479521E+02 -0.15154834455E+04  0.15443408802E+04  0.00000000000E+00 0. -1.
<mgrwt>
<rscale>  0 0.22352665E+04</rscale>
<asrwt>0</asrwt>
<pdfrwt beam="1">  1        2 0.24010655E+00 0.22352665E+04</pdfrwt>
<pdfrwt beam="2">  1       -2 0.12313115E+00 0.22352665E+04</pdfrwt>
<totfact> 0.53254167E+00</totfact>
</mgrwt>
</event>
<event>
 6    1  0.2557825E-005  0.3786823E+04  0.7818608E-02  0.8048988E-01
          2   -1    0    0  501    0  0.00000000000E+00  0.00000000000E+00  0.25517728894E+04  0.25517728894E+04  0.00000000000E+00 0. -1.
         -2   -1    0    0    0  501 -0.00000000000E+00 -0.00000000000E+00 -0.14049086426E+04  0.14049086426E+04  0.00000000000E+00 0.  1.
         23    2    1    2    0    0  0.16437049101E+04 -0.68278055823E+03  0.12453501435E+04  0.21740838225E+04  0.88251715612E+02 0.  0.
         11    1    3    3    0    0  0.58453143347E+03 -0.19950156696E+03  0.44733634160E+03  0.76261895757E+03  0.00000000000E+00 0. -1.
        -11    1    3    3    0    0  0.10591734766E+04 -0.48327899126E+03  0.79801380191E+03  0.14114648649E+04  0.00000000000E+00 0.  1.
         22    1    1    2    0    0 -0.16437049101E+04  0.68278055823E+03 -0.98485896707E+02  0.17825977095E+04  0.00000000000E+00 0.  1.
<mgrwt>
<rscale>  0 0.37868234E+04</rscale>
<asrwt>0</asrwt>
<pdfrwt beam="1">  1        2 0.39258044E+00 0.37868234E+04</pdfrwt>
<pdfrwt beam="2">  1       -2 0.21613979E+00 0.37868234E+04</pdfrwt>
<totfact> 0.27261920E-01</totfact>
</mgrwt>
</event>
<event>
 6    1  0.2236204E-005  0.1037435E+04  0.7818608E-02  0.9268414E-01
         -2   -1    0    0    0  501 -0.00000000000E+00  0.00000000000E+00  0.32718593325E+03  0.32718593325E+03  0.00000000000E+00 0.  1.
          2   -1    0    0  501    0  0.00000000000E+00 -0.00000000000E+00 -0.82236935079E+03  0.82236935079E+03  0.00000000000E+00 0. -1.
         23    2    1    2    0    0  0.25869174672E+03  0.29696628102E+03  0.11772732947E+03  0.42101566557E+03  0.91016892201E+02 0.  0.
         13    1    3    3    0    0  0.13382722791E+03  0.21595420083E+03  0.90543720901E+02  0.26971115880E+03  0.00000000000E+00 0.  1.
        -13    1    3    3    0    0  0.12486451881E+03  0.81012080193E+02  0.27183608572E+02  0.15130450677E+03  0.00000000000E+00 0. -1.
         22    1    1    2    0    0 -0.25869174672E+03 -0.29696628102E+03 -0.61291074701E+03  0.72853961847E+03  0.00000000000E+00 0. -1.
<mgrwt>
<rscale>  0 0.10374347E+04</rscale>
<asrwt>0</asrwt>
<pdfrwt beam="1">  1        2 0.12651836E+00 0.10374347E+04</pdfrwt>
<pdfrwt beam="2">  1       -2 0.50336298E-01 0.10374347E+04</pdfrwt>
<totfact> 0.12346277E+02</totfact>
</mgrwt>
</event>
<event>
 6    1  0.2236204E-005  0.2240059E+04  0.7818608E-02  0.8501937E-01
          2   -1    0    0  501    0  0.00000000000E+00  0.00000000000E+00  0.21030595593E+04  0.21030595593E+04  0.00000000000E+00 0. -1.
         -2   -1    0    0    0  501 -0.00000000000E+00 -0.00000000000E+00 -0.59649576160E+03  0.59649576160E+03  0.00000000000E+00 0.  1.
         23    2    1    2    0    0  0.50872408503E+03  0.45678418207E+03 -0.31175388130E+03  0.75694595062E+03  0.91239826764E+02 0.  0.
         13    1    3    3    0    0  0.15906302401E+03  0.17770506549E+03 -0.70679698286E+02  0.24874837820E+03  0.00000000000E+00 0.  1.
        -13    1    3    3    0    0  0.34966106101E+03  0.27907911658E+03 -0.24107418302E+03  0.50819757242E+03  0.00000000000E+00 0. -1.
         22    1    1    2    0    0 -0.50872408503E+03 -0.45678418207E+03  0.18183176790E+04  0.19426093703E+04  0.00000000000E+00 0. -1.
<mgrwt>
<rscale>  0 0.22400590E+04</rscale>
<asrwt>0</asrwt>
<pdfrwt beam="1">  1        2 0.32354762E+00 0.22400590E+04</pdfrwt>
<pdfrwt beam="2">  1       -2 0.91768580E-01 0.22400590E+04</pdfrwt>
<totfact> 0.53862408E+00</totfact>
</mgrwt>
</event>
<event>
 6    1  0.2236204E-005  0.2759851E+04  0.7818608E-02  0.8315843E-01
         -2   -1    0    0    0  501 -0.00000000000E+00  0.00000000000E+00  0.12845929990E+04  0.12845929990E+04  0.00000000000E+00 0.  1.
          2   -1    0    0  501    0  0.00000000000E+00 -0.00000000000E+00 -0.14823327164E+04  0.14823327164E+04  0.00000000000E+00 0. -1.
         23    2    1    2    0    0 -0.97398785580E+03 -0.50163934188E+03 -0.93749679819E+03  0.14449821042E+04  0.93694515145E+02 0.  0.
         11    1    3    3    0    0 -0.23735802629E+03 -0.16076050493E+03 -0.27514388996E+03  0.39734988709E+03  0.00000000000E+00 0. -1.
        -11    1    3    3    0    0 -0.73662982951E+03 -0.34087883695E+03 -0.66235290823E+03  0.10476322171E+04  0.00000000000E+00 0.  1.
         22    1    1    2    0    0  0.97398785580E+03  0.50163934188E+03  0.73975708080E+03  0.13219436112E+04  0.00000000000E+00 0.  1.
<mgrwt>
<rscale>  0 0.27598509E+04</rscale>
<asrwt>0</asrwt>
<pdfrwt beam="1">  1        2 0.22805119E+00 0.27598509E+04</pdfrwt>
<pdfrwt beam="2">  1       -2 0.19762969E+00 0.27598509E+04</pdfrwt>
<totfact> 0.15636219E+00</totfact>
</mgrwt>
</event>
<event>
 6    1  0.2236204E-005  0.1104941E+04  0.7818608E-02  0.9200389E-01
         -2   -1    0    0    0  501 -0.00000000000E+00  0.00000000000E+00  0.17695079308E+03  0.17695079308E+03  0.00000000000E+00 0.  1.
          2   -1    0    0  501    0  0.00000000000E+00 -0.00000000000E+00 -0.17249065743E+04  0.17249065743E+04  0.00000000000E+00 0. -1.
         23    2    1    2    0    0 -0.18782296548E+02  0.54187115982E+03 -0.63033263461E+03  0.83601996529E+03  0.87367176922E+02 0.  0.
         11    1    3    3    0    0  0.18433498124E+02  0.27572883726E+03 -0.26843578852E+03  0.38525830050E+03  0.00000000000E+00 0.  1.
        -11    1    3    3    0    0 -0.37215794672E+02  0.26614232256E+03 -0.36189684609E+03  0.45076166479E+03  0.00000000000E+00 0. -1.
         22    1    1    2    0    0  0.18782296548E+02 -0.54187115982E+03 -0.91762314666E+03  0.10658374021E+04  0.00000000000E+00 0. -1.
<mgrwt>
<rscale>  0 0.11049409E+04</rscale>
<asrwt>0</asrwt>
<pdfrwt beam="1">  1        2 0.26537022E+00 0.11049409E+04</pdfrwt>
<pdfrwt beam="2">  1       -2 0.27223201E-01 0.11049409E+04</pdfrwt>
<totfact> 0.11577028E+02</totfact>
</mgrwt>
</event>
<event>
 6    1  0.2236204E-005  0.1044225E+04  0.7818608E-02  0.9261326E-01
          2   -1    0    0  501    0  0.00000000000E+00  0.00000000000E+00  0.11333452754E+04  0.11333452754E+04  0.00000000000E+00 0. -1.
         -2   -1    0    0    0  501 -0.00000000000E+00 -0.00000000000E+00 -0.24052832253E+03  0.24052832253E+03  0.00000000000E+00 0.  1.
         23    2    1    2    0    0 -0.37286608298E+03 -0.23819548786E+03  0.80477695595E+03  0.92274473902E+03  0.89586261669E+02 0.  0.
         11    1    3    3    0    0 -0.81000789464E+02 -0.11384316106E+02  0.14449894392E+03  0.16604419695E+03  0.00000000000E+00 0. -1.
        -11    1    3    3    0    0 -0.29186529352E+03 -0.22681117176E+03  0.66027801203E+03  0.75670054206E+03  0.00000000000E+00 0.  1.
         22    1    1    2    0    0  0.37286608298E+03  0.23819548786E+03  0.88039996895E+02  0.45112885890E+03  0.00000000000E+00 0.  1.
<mgrwt>
<rscale>  0 0.10442253E+04</rscale>
<asrwt>0</asrwt>
<pdfrwt beam="1">  1        2 0.17436081E+00 0.10442253E+04</pdfrwt>
<pdfrwt beam="2">  1       -2 0.37004358E-01 0.10442253E+04</pdfrwt>
<totfact> 0.14230907E+02</totfact>
</mgrwt>
</event>
<event>
 6    1  0.2236204E-005  0.8295728E+03  0.7818608E-02  0.9518171E-01
         -2   -1    0    0    0  501 -0.00000000000E+00  0.00000000000E+00  0.71151018927E+03  0.71151018927E+03  0.00000000000E+00 0.  1.
          2   -1    0    0  501    0  0.00000000000E+00 -0.00000000000E+00 -0.24180647033E+03  0.24180647033E+03  0.00000000000E+00 0. -1.
         23    2    1    2    0    0 -0.95575773531E+01  0.37576261639E+03  0.50056621694E+02  0.38994060633E+03  0.90879700319E+02 0.  0.
         11    1    3    3    0    0  0.73523164042E+01  0.21372452965E+03  0.71790017266E+02  0.22557933795E+03  0.00000000000E+00 0. -1.
        -11    1    3    3    0    0 -0.16909893757E+02  0.16203808674E+03 -0.21733395573E+02  0.16436126838E+03  0.00000000000E+00 0.  1.
         22    1    1    2    0    0  0.95575773531E+01 -0.37576261639E+03  0.41964709725E+03  0.56337605327E+03  0.00000000000E+00 0.  1.
<mgrwt>
<rscale>  0 0.82957282E+03</rscale>
<asrwt>0</asrwt>
<pdfrwt beam="1">  1        2 0.37200996E-01 0.82957282E+03</pdfrwt>
<pdfrwt beam="2">  1       -2 0.10946311E+00 0.82957282E+03</pdfrwt>
<totfact> 0.93435374E+01</totfact>
</mgrwt>
</event>
<event>
 6    1  0.2236204E-005  0.2112574E+04  0.7818608E-02  0.8555725E-01
         -2   -1    0    0    0  501 -0.00000000000E+00  0.00000000000E+00  0.19391642661E+04  0.19391642661E+04  0.00000000000E+00 0.  1.
          2   -1    0    0  501    0  0.00000000000E+00 -0.00000000000E+00 -0.57537264235E+03  0.57537264235E+03  0.00000000000E+00 0. -1.
         23    2    1    2    0    0 -0.12406644638E+03 -0.10102041879E+04  0.10107022740E+04  0.14372360807E+04  0.90683409269E+02 0.  0.
         11    1    3    3    0    0 -0.81931216686E+02 -0.43100078027E+03  0.38680818869E+03  0.58488885414E+03  0.00000000000E+00 0. -1.
        -11    1    3    3    0    0 -0.42135229690E+02 -0.57920340767E+03  0.62389408529E+03  0.85234722660E+03  0.00000000000E+00 0.  1.
         22    1    1    2    0    0  0.12406644638E+03  0.10102041879E+04  0.35308934976E+03  0.10773008277E+04  0.00000000000E+00 0. -1.
<mgrwt>
<rscale>  0 0.21125738E+04</rscale>
<asrwt>0</asrwt>
<pdfrwt beam="1">  1        2 0.88518869E-01 0.21125738E+04</pdfrwt>
<pdfrwt beam="2">  1       -2 0.29833296E+00 0.21125738E+04</pdfrwt>
<totfact> 0.15638204E+00</totfact>
</mgrwt>
</event>
<event>
 6    1  0.2236204E-005  0.1751122E+04  0.7818608E-02  0.8732733E-01
          2   -1    0    0  501    0  0.00000000000E+00  0.00000000000E+00  0.25221843706E+04  0.25221843706E+04  0.00000000000E+00 0. -1.
         -2   -1    0    0    0  501 -0.00000000000E+00 -0.00000000000E+00 -0.30394576355E+03  0.30394576355E+03  0.00000000000E+00 0.  1.
         23    2    1    2    0    0  0.37602162556E+03  0.12714688482E+02  0.23837743670E+04  0.24150875402E+04  0.93347029243E+02 0.  0.
         11    1    3    3    0    0  0.27492623386E+03  0.20957742424E+02  0.14640749126E+04  0.14898117366E+04  0.00000000000E+00 0. -1.
        -11    1    3    3    0    0  0.10109539170E+03 -0.82430539416E+01  0.91969945448E+03  0.92527580361E+03  0.00000000000E+00 0.  1.
         22    1    1    2    0    0 -0.37602162556E+03 -0.12714688482E+02 -0.16553575997E+03  0.41104259392E+03  0.00000000000E+00 0.  1.
<mgrwt>
<rscale>  0 0.17511222E+04</rscale>
<asrwt>0</asrwt>
<pdfrwt beam="1">  1        2 0.38802835E+00 0.17511222E+04</pdfrwt>
<pdfrwt beam="2">  1       -2 0.46760888E-01 0.17511222E+04</pdfrwt>
<totfact> 0.13905882E+01</totfact>
</mgrwt>
</event>
<event>
 6    1  0.2236204E-005  0.1652812E+04  0.7818608E-02  0.8788745E-01
          2   -1    0    0  501    0  0.00000000000E+00  0.00000000000E+00  0.14793348912E+04  0.14793348912E+04  0.00000000000E+00 0. -1.
         -2   -1    0    0    0  501 -0.00000000000E+00 -0.00000000000E+00 -0.46165808515E+03  0.46165808515E+03  0.00000000000E+00 0.  1.
         23    2    1    2    0    0  0.60454119688E+03 -0.75310998020E+02  0.11618759389E+04  0.13149456977E+04  0.89357066593E+02 0.  0.
         11    1    3    3    0    0  0.50649743550E+03 -0.69946076477E+02  0.10359783317E+04  0.11552849040E+04  0.00000000000E+00 0. -1.
        -11    1    3    3    0    0  0.98043761377E+02 -0.53649215430E+01  0.12589760721E+03  0.15966079365E+03  0.00000000000E+00 0.  1.
         22    1    1    2    0    0 -0.60454119688E+03  0.75310998020E+02 -0.14419913288E+03  0.62604727862E+03  0.00000000000E+00 0.  1.
<mgrwt>
<rscale>  0 0.16528120E+04</rscale>
<asrwt>0</asrwt>
<pdfrwt beam="1">  1        2 0.22758998E+00 0.16528120E+04</pdfrwt>
<pdfrwt beam="2">  1       -2 0.71024322E-01 0.16528120E+04</pdfrwt>
<totfact> 0.22425050E+01</totfact>
</mgrwt>
</event>
<event>
 6    1  0.2236204E-005  0.9701929E+03  0.7818608E-02  0.9341855E-01
         -2   -1    0    0    0  501 -0.00000000000E+00  0.00000000000E+00  0.20975564472E+03  0.20975564472E+03  0.00000000000E+00 0. -1.
          2   -1    0    0  501    0  0.00000000000E+00 -0.00000000000E+00 -0.11218700575E+04  0.11218700575E+04  0.00000000000E+00 0.  1.
         23    2    1    2    0    0  0.14548606927E+03 -0.21912546071E+03 -0.10129046238E+04  0.10499506580E+04  0.85079041991E+02 0.  0.
         11    1    3    3    0    0  0.11629315597E+03 -0.14306805291E+03 -0.82140316559E+03  0.84184067752E+03  0.00000000000E+00 0.  1.
        -11    1    3    3    0    0  0.29192913299E+02 -0.76057407809E+02 -0.19150145825E+03  0.20810998049E+03  0.00000000000E+00 0. -1.
         22    1    1    2    0    0 -0.14548606927E+03  0.21912546071E+03  0.10079021106E+03  0.28167504421E+03  0.00000000000E+00 0. -1.
<mgrwt>
<rscale>  0 0.97019292E+03</rscale>
<asrwt>0</asrwt>
<pdfrwt beam="1">  1        2 0.17259539E+00 0.97019292E+03</pdfrwt>
<pdfrwt beam="2">  1       -2 0.32270100E-01 0.97019292E+03</pdfrwt>
<totfact> 0.18853202E+02</totfact>
</mgrwt>
</event>
<event>
 6    1  0.2236204E-005  0.9265280E+03  0.7818608E-02  0.9393014E-01
         -2   -1    0    0    0  501 -0.00000000000E+00  0.00000000000E+00  0.14685150768E+03  0.14685150768E+03  0.00000000000E+00 0. -1.
          2   -1    0    0  501    0  0.00000000000E+00 -0.00000000000E+00 -0.14614322891E+04  0.14614322891E+04  0.00000000000E+00 0.  1.
         23    2    1    2    0    0 -0.37042042394E+03  0.18796997782E+03 -0.10011787085E+04  0.10879330859E+04  0.93250146862E+02 0.  0.
         13    1    3    3    0    0 -0.33357591312E+03  0.18604924082E+03 -0.95680607358E+03  0.10302257385E+04  0.00000000000E+00 0. -1.
        -13    1    3    3    0    0 -0.36844510828E+02  0.19207370003E+01 -0.44372634938E+02  0.57707347367E+02  0.00000000000E+00 0.  1.
         22    1    1    2    0    0  0.37042042394E+03 -0.18796997782E+03 -0.31340207288E+03  0.52035071089E+03  0.00000000000E+00 0. -1.
<mgrwt>
<rscale>  0 0.92652800E+03</rscale>
<asrwt>0</asrwt>
<pdfrwt beam="1">  1        2 0.22483574E+00 0.92652800E+03</pdfrwt>
<pdfrwt beam="2">  1       -2 0.22592539E-01 0.92652800E+03</pdfrwt>
<totfact> 0.23008526E+02</totfact>
</mgrwt>
</event>
<event>
 6    1  0.2236204E-005  0.1728907E+04  0.7818608E-02  0.8745047E-01
          2   -1    0    0  501    0  0.00000000000E+00  0.00000000000E+00  0.15088593788E+04  0.15088593788E+04  0.00000000000E+00 0. -1.
         -2   -1    0    0    0  501 -0.00000000000E+00 -0.00000000000E+00 -0.49526117985E+03  0.49526117985E+03  0.00000000000E+00 0.  1.
         23    2    1    2    0    0  0.21681223305E+03  0.31101479085E+03 -0.38927230543E+03  0.55092291325E+03  0.90804097007E+02 0.  0.
         11    1    3    3    0    0  0.82571984771E+02  0.19696369312E+03 -0.22041043035E+03  0.30690973735E+03  0.00000000000E+00 0. -1.
        -11    1    3    3    0    0  0.13424024828E+03  0.11405109774E+03 -0.16886187508E+03  0.24401317589E+03  0.00000000000E+00 0.  1.
         22    1    1    2    0    0 -0.21681223305E+03 -0.31101479085E+03  0.14028705044E+04  0.14531976454E+04  0.00000000000E+00 0. -1.
<mgrwt>
<rscale>  0 0.17289066E+04</rscale>
<asrwt>0</asrwt>
<pdfrwt beam="1">  1        2 0.23213221E+00 0.17289066E+04</pdfrwt>
<pdfrwt beam="2">  1       -2 0.76194028E-01 0.17289066E+04</pdfrwt>
<totfact> 0.18366257E+01</totfact>
</mgrwt>
</event>
<event>
 6    1  0.2236204E-005  0.2717837E+04  0.7818608E-02  0.8329241E-01
         -2   -1    0    0    0  501 -0.00000000000E+00  0.00000000000E+00  0.48193181418E+03  0.48193181418E+03  0.00000000000E+00 0.  1.
          2   -1    0    0  501    0  0.00000000000E+00 -0.00000000000E+00 -0.38317860585E+04  0.38317860585E+04  0.00000000000E+00 0. -1.
         23    2    1    2    0    0 -0.14794487196E+03  0.78012768018E+03 -0.34240801681E+04  0.35162240668E+04  0.94972670632E+02 0.  0.
         13    1    3    3    0    0 -0.12324634394E+03  0.49044730705E+03 -0.20175197441E+04  0.20799312825E+04  0.00000000000E+00 0.  1.
        -13    1    3    3    0    0 -0.24698528018E+02  0.28968037313E+03 -0.14065604240E+04  0.14362927843E+04  0.00000000000E+00 0. -1.
         22    1    1    2    0    0  0.14794487196E+03 -0.78012768018E+03  0.74225923816E+02  0.79749380580E+03  0.00000000000E+00 0.  1.
<mgrwt>
<rscale>  0 0.27178371E+04</rscale>
<asrwt>0</asrwt>
<pdfrwt beam="1">  1        2 0.58950557E+00 0.27178371E+04</pdfrwt>
<pdfrwt beam="2">  1       -2 0.74143353E-01 0.27178371E+04</pdfrwt>
<totfact> 0.66692295E-01</totfact>
</mgrwt>
</event>
<event>
 6    1  0.2236204E-005  0.6846070E+03  0.7818608E-02  0.9743925E-01
         -2   -1    0    0    0  501 -0.00000000000E+00  0.00000000000E+00  0.40194424679E+03  0.40194424679E+03  0.00000000000E+00 0.  1.
          2   -1    0    0  501    0  0.00000000000E+00 -0.00000000000E+00 -0.29151224584E+03  0.29151224584E+03  0.00000000000E+00 0. -1.
         23    2    1    2    0    0 -0.11599517365E+03  0.84084363059E+02 -0.25182190870E+03  0.30390167559E+03  0.91743633573E+02 0.  0.
         13    1    3    3    0    0 -0.86321589963E+01  0.57936616143E+02 -0.10373778774E+03  0.11913309474E+03  0.00000000000E+00 0. -1.
        -13    1    3    3    0    0 -0.10736301465E+03  0.26147746916E+02 -0.14808412096E+03  0.18476858084E+03  0.00000000000E+00 0.  1.
         22    1    1    2    0    0  0.11599517365E+03 -0.84084363059E+02  0.36225390965E+03  0.38955481704E+03  0.00000000000E+00 0.  1.
<mgrwt>
<rscale>  0 0.68460695E+03</rscale>
<asrwt>0</asrwt>
<pdfrwt beam="1">  1        2 0.44848038E-01 0.68460695E+03</pdfrwt>
<pdfrwt beam="2">  1       -2 0.61837577E-01 0.68460695E+03</pdfrwt>
<totfact> 0.27811170E+02</totfact>
</mgrwt>
</event>
<event>
 6    1  0.2236204E-005  0.3042878E+04  0.7818608E-02  0.8231592E-01
          2   -1    0    0  501    0  0.00000000000E+00  0.00000000000E+00  0.32492534662E+04  0.32492534662E+04  0.00000000000E+00 0. -1.
         -2   -1    0    0    0  501 -0.00000000000E+00 -0.00000000000E+00 -0.71240242842E+03  0.71240242842E+03  0.00000000000E+00 0.  1.
         23    2    1    2    0    0  0.11660122515E+04  0.37457063947E+03  0.24417021904E+04  0.27332662830E+04  0.94589916439E+02 0.  0.
         13    1    3    3    0    0  0.93469095275E+03  0.25984571638E+03  0.19297672617E+04  0.21599001500E+04  0.00000000000E+00 0. -1.
        -13    1    3    3    0    0  0.23132129879E+03  0.11472492309E+03  0.51193492869E+03  0.57336613299E+03  0.00000000000E+00 0.  1.
         22    1    1    2    0    0 -0.11660122515E+04 -0.37457063947E+03  0.95148847291E+02  0.12283896116E+04  0.00000000000E+00 0.  1.
<mgrwt>
<rscale>  0 0.30428776E+04</rscale>
<asrwt>0</asrwt>
<pdfrwt beam="1">  1        2 0.49988514E+00 0.30428776E+04</pdfrwt>
<pdfrwt beam="2">  1       -2 0.10960037E+00 0.30428776E+04</pdfrwt>
<totfact> 0.68003194E-01</totfact>
</mgrwt>
</event>
<event>
 6    1  0.2236204E-005  0.3109497E+04  0.7818608E-02  0.8213136E-01
         -2   -1    0    0    0  501 -0.00000000000E+00  0.00000000000E+00  0.17584000707E+04  0.17584000707E+04  0.00000000000E+00 0.  1.
          2   -1    0    0  501    0  0.00000000000E+00 -0.00000000000E+00 -0.13746829011E+04  0.13746829011E+04  0.00000000000E+00 0. -1.
         23    2    1    2    0    0  0.81895383523E+03 -0.10858325347E+04  0.94825274025E+03  0.16605280192E+04  0.91936747081E+02 0.  0.
         13    1    3    3    0    0  0.55987177645E+03 -0.73493351819E+03  0.69538830977E+03  0.11563514101E+04  0.00000000000E+00 0.  1.
        -13    1    3    3    0    0  0.25908205879E+03 -0.35089901655E+03  0.25286443048E+03  0.50417660914E+03  0.00000000000E+00 0. -1.
         22    1    1    2    0    0 -0.81895383523E+03  0.10858325347E+04 -0.56453557063E+03  0.14725549525E+04  0.00000000000E+00 0. -1.
<mgrwt>
<rscale>  0 0.31094968E+04</rscale>
<asrwt>0</asrwt>
<pdfrwt beam="1">  1        2 0.21148968E+00 0.31094968E+04</pdfrwt>
<pdfrwt beam="2">  1       -2 0.27052309E+00 0.31094968E+04</pdfrwt>
<totfact> 0.61072406E-01</totfact>
</mgrwt>
</event>
<event>
 6    1  0.2236204E-005  0.2139095E+04  0.7818608E-02  0.8544215E-01
          1   -1    0    0  501    0  0.00000000000E+00  0.00000000000E+00  0.81517566870E+03  0.81517566870E+03  0.00000000000E+00 0. -1.
         -1   -1    0    0    0  501 -0.00000000000E+00 -0.00000000000E+00 -0.14032949959E+04  0.14032949959E+04  0.00000000000E+00 0.  1.
         23    2    1    2    0    0 -0.47050613337E+03  0.34403880567E+03  0.63306833972E+03  0.86531212282E+03  0.90834056355E+02 0.  0.
         13    1    3    3    0    0 -0.20195145417E+03  0.16399602116E+03  0.21965529720E+03  0.34048132751E+03  0.00000000000E+00 0. -1.
        -13    1    3    3    0    0 -0.26855467920E+03  0.18004278452E+03  0.41341304252E+03  0.52483079531E+03  0.00000000000E+00 0.  1.
         22    1    1    2    0    0  0.47050613337E+03 -0.34403880567E+03 -0.12211876669E+04  0.13531585418E+04  0.00000000000E+00 0.  1.
<mgrwt>
<rscale>  0 0.21390951E+04</rscale>
<asrwt>0</asrwt>
<pdfrwt beam="1">  1        1 0.12541164E+00 0.21390951E+04</pdfrwt>
<pdfrwt beam="2">  1       -1 0.21589154E+00 0.21390951E+04</pdfrwt>
<totfact> 0.23053011E+00</totfact>
</mgrwt>
</event>
<event>
 6    1  0.2236204E-005  0.1720623E+04  0.7818608E-02  0.8749689E-01
         -1   -1    0    0    0  501 -0.00000000000E+00  0.00000000000E+00  0.61598778288E+03  0.61598778288E+03  0.00000000000E+00 0.  1.
          1   -1    0    0  501    0  0.00000000000E+00 -0.00000000000E+00 -0.12015435216E+04  0.12015435216E+04  0.00000000000E+00 0. -1.
         23    2    1    2    0    0  0.65331913640E+03  0.30877817005E+03 -0.78146965386E+03  0.10688310210E+04  0.97647730579E+02 0.  0.
         11    1    3    3    0    0  0.40808925495E+03  0.20850725241E+03 -0.55930167639E+03  0.72307017607E+03  0.00000000000E+00 0.  1.
        -11    1    3    3    0    0  0.24522988145E+03  0.10027091764E+03 -0.22216797747E+03  0.34576084493E+03  0.00000000000E+00 0. -1.
         22    1    1    2    0    0 -0.65331913640E+03 -0.30877817005E+03  0.19591391516E+03  0.74870028345E+03  0.00000000000E+00 0.  1.
<mgrwt>
<rscale>  0 0.17206233E+04</rscale>
<asrwt>0</asrwt>
<pdfrwt beam="1">  1        1 0.18485285E+00 0.17206233E+04</pdfrwt>
<pdfrwt beam="2">  1       -1 0.94767352E-01 0.17206233E+04</pdfrwt>
<totfact> 0.10902175E+01</totfact>
</mgrwt>
</event>
<event>
 6    1  0.2236204E-005  0.4942285E+04  0.7818608E-02  0.7837472E-01
         -2   -1    0    0    0  501 -0.00000000000E+00  0.00000000000E+00  0.15249888392E+04  0.15249888392E+04  0.00000000000E+00 0.  1.
          2   -1    0    0  501    0  0.00000000000E+00 -0.00000000000E+00 -0.40043217984E+04  0.40043217984E+04  0.00000000000E+00 0. -1.
         23    2    1    2    0    0 -0.22949013083E+03  0.23902847621E+04 -0.59136449718E+03  0.24747154308E+04  0.91528852545E+02 0.  0.
         13    1    3    3    0    0 -0.80537727732E+02  0.11602111407E+04 -0.32123629844E+03  0.12065525169E+04  0.00000000000E+00 0. -1.
        -13    1    3    3    0    0 -0.14895240310E+03  0.12300736213E+04 -0.27012819874E+03  0.12681629138E+04  0.00000000000E+00 0.  1.
         22    1    1    2    0    0  0.22949013083E+03 -0.23902847621E+04 -0.18879684620E+04  0.30545952068E+04  0.00000000000E+00 0. -1.
<mgrwt>
<rscale>  0 0.49422853E+04</rscale>
<asrwt>0</asrwt>
<pdfrwt beam="1">  1        2 0.61604950E+00 0.49422853E+04</pdfrwt>
<pdfrwt beam="2">  1       -2 0.23461367E+00 0.49422853E+04</pdfrwt>
<totfact> 0.19766618E-02</totfact>
</mgrwt>
</event>
<event>
 6    1  0.2236204E-005  0.9905073E+03  0.7818608E-02  0.9319018E-01
          2   -1    0    0  501    0  0.00000000000E+00  0.00000000000E+00  0.80824553547E+03  0.80824553547E+03  0.00000000000E+00 0. -1.
         -2   -1    0    0    0  501 -0.00000000000E+00 -0.00000000000E+00 -0.30346737935E+03  0.30346737935E+03  0.00000000000E+00 0.  1.
         23    2    1    2    0    0 -0.16008740196E+03  0.31543255646E+03 -0.12796560988E+03  0.38680578465E+03  0.90099077591E+02 0.  0.
         13    1    3    3    0    0 -0.12812006987E+02  0.22615766977E+02  0.14104007388E+02  0.29572681031E+02  0.00000000000E+00 0. -1.
        -13    1    3    3    0    0 -0.14727539497E+03  0.29281678949E+03 -0.14206961727E+03  0.35723310362E+03  0.00000000000E+00 0.  1.
         22    1    1    2    0    0  0.16008740196E+03 -0.31543255646E+03  0.63274376601E+03  0.72490713017E+03  0.00000000000E+00 0. -1.
<mgrwt>
<rscale>  0 0.99050725E+03</rscale>
<asrwt>0</asrwt>
<pdfrwt beam="1">  1        2 0.12434547E+00 0.99050725E+03</pdfrwt>
<pdfrwt beam="2">  1       -2 0.46687289E-01 0.99050725E+03</pdfrwt>
<totfact> 0.14757569E+02</totfact>
</mgrwt>
</event>
<event>
 6    1  0.2236204E-005  0.6468255E+03  0.7818608E-02  0.9812754E-01
          2   -1    0    0  501    0  0.00000000000E+00  0.00000000000E+00  0.70026545908E+03  0.70026545908E+03  0.00000000000E+00 0. -1.
         -2   -1    0    0    0  501 -0.00000000000E+00 -0.00000000000E+00 -0.14936595347E+03  0.14936595347E+03  0.00000000000E+00 0.  1.
         23    2    1    2    0    0 -0.32138280010E+02  0.17143797830E+03  0.62839468632E+03  0.65876666337E+03  0.93111683043E+02 0.  0.
         13    1    3    3    0    0 -0.58725669529E+02  0.15438252076E+03  0.50156438898E+03  0.52806202597E+03  0.00000000000E+00 0.  1.
        -13    1    3    3    0    0  0.26587389519E+02  0.17055457544E+02  0.12683029734E+03  0.13070463740E+03  0.00000000000E+00 0. -1.
         22    1    1    2    0    0  0.32138280010E+02 -0.17143797830E+03 -0.77495180707E+02  0.19086474918E+03  0.00000000000E+00 0.  1.
<mgrwt>
<rscale>  0 0.64682553E+03</rscale>
<asrwt>0</asrwt>
<pdfrwt beam="1">  1        2 0.10773315E+00 0.64682553E+03</pdfrwt>
<pdfrwt beam="2">  1       -2 0.22979378E-01 0.64682553E+03</pdfrwt>
<totfact> 0.68706164E+02</totfact>
</mgrwt>
</event>
<event>
 6    1  0.2236204E-005  0.3101429E+04  0.7818608E-02  0.8215346E-01
          1   -1    0    0  501    0  0.00000000000E+00  0.00000000000E+00  0.22613213445E+04  0.22613213445E+04  0.00000000000E+00 0. -1.
         -1   -1    0    0    0  501 -0.00000000000E+00 -0.00000000000E+00 -0.10634113709E+04  0.10634113709E+04  0.00000000000E+00 0.  1.
         23    2    1    2    0    0 -0.49686778077E+02 -0.88471177771E+03  0.19619927713E+04  0.21546873201E+04  0.89878291272E+02 0.  0.
         13    1    3    3    0    0 -0.12530758461E+02 -0.15311018781E+03  0.42862891318E+03  0.45532679993E+03  0.00000000000E+00 0. -1.
        -13    1    3    3    0    0 -0.37156019616E+02 -0.73160158990E+03  0.15333638581E+04  0.16993605201E+04  0.00000000000E+00 0.  1.
         22    1    1    2    0    0  0.49686778077E+02  0.88471177771E+03 -0.76408279760E+03  0.11700453953E+04  0.00000000000E+00 0.  1.
<mgrwt>
<rscale>  0 0.31014286E+04</rscale>
<asrwt>0</asrwt>
<pdfrwt beam="1">  1        1 0.34789559E+00 0.31014286E+04</pdfrwt>
<pdfrwt beam="2">  1       -1 0.16360175E+00 0.31014286E+04</pdfrwt>
<totfact> 0.45811797E-01</totfact>
</mgrwt>
</event>
<event>
 6    1  0.2236204E-005  0.4292072E+04  0.7818608E-02  0.7948086E-01
         -1   -1    0    0    0  501 -0.00000000000E+00  0.00000000000E+00  0.16118715508E+04  0.16118715508E+04  0.00000000000E+00 0.  1.
          1   -1    0    0  501    0  0.00000000000E+00 -0.00000000000E+00 -0.28572192079E+04  0.28572192079E+04  0.00000000000E+00 0. -1.
         23    2    1    2    0    0  0.13883612285E+04  0.82442807346E+02 -0.23233138050E+04  0.27094445632E+04  0.94652455354E+02 0.  0.
         11    1    3    3    0    0  0.51948061385E+03 -0.38603063163E+01 -0.92537780295E+03  0.10612252769E+04  0.00000000000E+00 0. -1.
        -11    1    3    3    0    0  0.86888061462E+03  0.86303113663E+02 -0.13979360021E+04  0.16482192863E+04  0.00000000000E+00 0.  1.
         22    1    1    2    0    0 -0.13883612285E+04 -0.82442807346E+02  0.10779661480E+04  0.17596461955E+04  0.00000000000E+00 0.  1.
<mgrwt>
<rscale>  0 0.42920719E+04</rscale>
<asrwt>0</asrwt>
<pdfrwt beam="1">  1        1 0.43957219E+00 0.42920719E+04</pdfrwt>
<pdfrwt beam="2">  1       -1 0.24798024E+00 0.42920719E+04</pdfrwt>
<totfact> 0.41649535E-02</totfact>
</mgrwt>
</event>
<event>
 6    1  0.2236204E-005  0.5387197E+04  0.7818608E-02  0.7771405E-01
         -2   -1    0    0    0  501 -0.00000000000E+00  0.00000000000E+00  0.27240247864E+04  0.27240247864E+04  0.00000000000E+00 0.  1.
          2   -1    0    0  501    0  0.00000000000E+00 -0.00000000000E+00 -0.26635116585E+04  0.26635116585E+04  0.00000000000E+00 0. -1.
         23    2    1    2    0    0 -0.65174156814E+03  0.24870639914E+04  0.83090963753E+03  0.27035533692E+04  0.92388449916E+02 0.  0.
         13    1    3    3    0    0 -0.29203037458E+03  0.10418349929E+04  0.30585097589E+03  0.11243872605E+04  0.00000000000E+00 0.  1.
        -13    1    3    3    0    0 -0.35971119356E+03  0.14452289985E+04  0.52505866164E+03  0.15791661087E+04  0.00000000000E+00 0. -1.
         22    1    1    2    0    0  0.65174156814E+03 -0.24870639914E+04 -0.77039650959E+03  0.26839830757E+04  0.00000000000E+00 0. -1.
<mgrwt>
<rscale>  0 0.53871966E+04</rscale>
<asrwt>0</asrwt>
<pdfrwt beam="1">  1        2 0.40977103E+00 0.53871966E+04</pdfrwt>
<pdfrwt beam="2">  1       -2 0.41908073E+00 0.53871966E+04</pdfrwt>
<totfact> 0.10977571E-02</totfact>
</mgrwt>
</event>
<event>
 6    1  0.2236204E-005  0.5963189E+04  0.7818608E-02  0.7694983E-01
          2   -1    0    0  501    0  0.00000000000E+00  0.00000000000E+00  0.36786095188E+04  0.36786095188E+04  0.00000000000E+00 0. -1.
         -2   -1    0    0    0  501 -0.00000000000E+00 -0.00000000000E+00 -0.24166482854E+04  0.24166482854E+04  0.00000000000E+00 0.  1.
         23    2    1    2    0    0  0.12337552732E+04  0.27013011252E+04  0.89499321897E+03  0.31029601308E+04  0.90381792419E+02 0.  0.
         11    1    3    3    0    0  0.40978588526E+03  0.79953923493E+03  0.27975845773E+03  0.94098472603E+03  0.00000000000E+00 0.  1.
        -11    1    3    3    0    0  0.82396938791E+03  0.19017618902E+04  0.61523476124E+03  0.21619754048E+04  0.00000000000E+00 0. -1.
         22    1    1    2    0    0 -0.12337552732E+04 -0.27013011252E+04  0.36696801444E+03  0.29922976735E+04  0.00000000000E+00 0. -1.
<mgrwt>
<rscale>  0 0.59631889E+04</rscale>
<asrwt>0</asrwt>
<pdfrwt beam="1">  1        2 0.56593993E+00 0.59631889E+04</pdfrwt>
<pdfrwt beam="2">  1       -2 0.37179204E+00 0.59631889E+04</pdfrwt>
<totfact> 0.46075278E-03</totfact>
</mgrwt>
</event>
<event>
 6    1  0.2236204E-005  0.1205836E+04  0.7818608E-02  0.9107764E-01
          2   -1    0    0  501    0  0.00000000000E+00  0.00000000000E+00  0.66591879489E+03  0.66591879489E+03  0.00000000000E+00 0. -1.
         -2   -1    0    0    0  501 -0.00000000000E+00 -0.00000000000E+00 -0.54587756710E+03  0.54587756710E+03  0.00000000000E+00 0.  1.
         23    2    1    2    0    0  0.16978503331E+03  0.13734399296E+03 -0.50139821084E+03  0.55310272620E+03  0.82656699431E+02 0.  0.
         11    1    3    3    0    0  0.84461266367E+02  0.90337090431E+02 -0.18898220744E+03  0.22585121242E+03  0.00000000000E+00 0. -1.
        -11    1    3    3    0    0  0.85323766946E+02  0.47006902531E+02 -0.31241600340E+03  0.32725151378E+03  0.00000000000E+00 0.  1.
         22    1    1    2    0    0 -0.16978503331E+03 -0.13734399296E+03  0.62143943863E+03  0.65869363578E+03  0.00000000000E+00 0. -1.
<mgrwt>
<rscale>  0 0.12058360E+04</rscale>
<asrwt>0</asrwt>
<pdfrwt beam="1">  1        2 0.10244905E+00 0.12058360E+04</pdfrwt>
<pdfrwt beam="2">  1       -2 0.83981163E-01 0.12058360E+04</pdfrwt>
<totfact> 0.53322129E+01</totfact>
</mgrwt>
</event>
<event>
 6    1  0.2236204E-005  0.4608948E+04  0.7818608E-02  0.7891836E-01
         -2   -1    0    0    0  501 -0.00000000000E+00  0.00000000000E+00  0.15781184410E+04  0.15781184410E+04  0.00000000000E+00 0.  1.
          2   -1    0    0  501    0  0.00000000000E+00 -0.00000000000E+00 -0.33651470017E+04  0.33651470017E+04  0.00000000000E+00 0. -1.
         23    2    1    2    0    0  0.91925858868E+03 -0.19856204600E+04 -0.12152590987E+03  0.21934247120E+04  0.92835642320E+02 0.  0.
         11    1    3    3    0    0  0.61017018114E+03 -0.13365124750E+04 -0.12453532371E+03  0.14744769556E+04  0.00000000000E+00 0.  1.
        -11    1    3    3    0    0  0.30908840754E+03 -0.64910798494E+03  0.30094138391E+01  0.71894775635E+03  0.00000000000E+00 0. -1.
         22    1    1    2    0    0 -0.91925858868E+03  0.19856204600E+04 -0.16655026509E+04  0.27498407307E+04  0.00000000000E+00 0. -1.
<mgrwt>
<rscale>  0 0.46089481E+04</rscale>
<asrwt>0</asrwt>
<pdfrwt beam="1">  1        2 0.51771492E+00 0.46089481E+04</pdfrwt>
<pdfrwt beam="2">  1       -2 0.24278745E+00 0.46089481E+04</pdfrwt>
<totfact> 0.53762067E-02</totfact>
</mgrwt>
</event>
<event>
 6    1  0.2236204E-005  0.3072466E+04  0.7818608E-02  0.8223335E-01
          2   -1    0    0  501    0  0.00000000000E+00  0.00000000000E+00  0.14410392098E+04  0.14410392098E+04  0.00000000000E+00 0. -1.
         -2   -1    0    0    0  501 -0.00000000000E+00 -0.00000000000E+00 -0.16377152438E+04  0.16377152438E+04  0.00000000000E+00 0.  1.
         23    2    1    2    0    0 -0.11961430998E+04 -0.77104592194E+03 -0.67445036127E+03  0.15775754381E+04  0.92686807817E+02 0.  0.
         13    1    3    3    0    0 -0.43116835072E+03 -0.32938088585E+03 -0.27043552940E+03  0.60624523931E+03  0.00000000000E+00 0. -1.
        -13    1    3    3    0    0 -0.76497474905E+03 -0.44166503609E+03 -0.40401483187E+03  0.97133019883E+03  0.00000000000E+00 0.  1.
         22    1    1    2    0    0  0.11961430998E+04  0.77104592194E+03  0.47777432728E+03  0.15011790155E+04  0.00000000000E+00 0. -1.
<mgrwt>
<rscale>  0 0.30724660E+04</rscale>
<asrwt>0</asrwt>
<pdfrwt beam="1">  1        2 0.22169834E+00 0.30724660E+04</pdfrwt>
<pdfrwt beam="2">  1       -2 0.25195619E+00 0.30724660E+04</pdfrwt>
<totfact> 0.72923495E-01</totfact>
</mgrwt>
</event>
<event>
 6    1  0.2236204E-005  0.2727850E+04  0.7818608E-02  0.8326025E-01
         -1   -1    0    0    0  501 -0.00000000000E+00  0.00000000000E+00  0.16364374009E+04  0.16364374009E+04  0.00000000000E+00 0.  1.
          1   -1    0    0  501    0  0.00000000000E+00 -0.00000000000E+00 -0.11367936783E+04  0.11367936783E+04  0.00000000000E+00 0. -1.
         23    2    1    2    0    0  0.42137188109E+03  0.86198878969E+03  0.12331740852E+04  0.15654870133E+04  0.97223086640E+02 0.  0.
         11    1    3    3    0    0  0.98460405379E+02  0.13016034443E+03  0.17985469903E+03  0.24286597014E+03  0.00000000000E+00 0. -1.
        -11    1    3    3    0    0  0.32291147571E+03  0.73182844526E+03  0.10533193862E+04  0.13226210432E+04  0.00000000000E+00 0.  1.
         22    1    1    2    0    0 -0.42137188109E+03 -0.86198878969E+03 -0.73353036263E+03  0.12077440659E+04  0.00000000000E+00 0. -1.
<mgrwt>
<rscale>  0 0.27278502E+04</rscale>
<asrwt>0</asrwt>
<pdfrwt beam="1">  1        1 0.17489134E+00 0.27278502E+04</pdfrwt>
<pdfrwt beam="2">  1       -1 0.25175960E+00 0.27278502E+04</pdfrwt>
<totfact> 0.70369507E-01</totfact>
</mgrwt>
</event>
<event>
 6    1  0.2236204E-005  0.8422052E+03  0.7818608E-02  0.9500859E-01
         -2   -1    0    0    0  501 -0.00000000000E+00  0.00000000000E+00  0.79276644855E+02  0.79276644855E+02  0.00000000000E+00 0.  1.
          2   -1    0    0  501    0  0.00000000000E+00 -0.00000000000E+00 -0.22368175141E+04  0.22368175141E+04  0.00000000000E+00 0. -1.
         23    2    1    2    0    0 -0.70635638249E+02 -0.22899747951E+02 -0.22174012411E+04  0.22207156710E+04  0.95895960628E+02 0.  0.
         13    1    3    3    0    0 -0.17455402402E+01 -0.37538964984E+02 -0.13275239563E+04  0.13280557501E+04  0.00000000000E+00 0. -1.
        -13    1    3    3    0    0 -0.68890098009E+02  0.14639217033E+02 -0.88987728485E+03  0.89265992090E+03  0.00000000000E+00 0.  1.
         22    1    1    2    0    0  0.70635638249E+02  0.22899747951E+02  0.59860371891E+02  0.95378487983E+02  0.00000000000E+00 0.  1.
<mgrwt>
<rscale>  0 0.84220517E+03</rscale>
<asrwt>0</asrwt>
<pdfrwt beam="1">  1        2 0.34412576E+00 0.84220517E+03</pdfrwt>
<pdfrwt beam="2">  1       -2 0.12196407E-01 0.84220517E+03</pdfrwt>
<totfact> 0.24923580E+02</totfact>
</mgrwt>
</event>
<event>
 6    1  0.2236204E-005  0.3602303E+04  0.7818608E-02  0.8089964E-01
         -2   -1    0    0    0  501 -0.00000000000E+00  0.00000000000E+00  0.26280284780E+04  0.26280284780E+04  0.00000000000E+00 0.  1.
          2   -1    0    0  501    0  0.00000000000E+00 -0.00000000000E+00 -0.12344413485E+04  0.12344413485E+04  0.00000000000E+00 0. -1.
         23    2    1    2    0    0 -0.37513382646E+03  0.24165265614E+03  0.25670187189E+04  0.26070563134E+04  0.89644431462E+02 0.  0.
         13    1    3    3    0    0 -0.11412935180E+03  0.51928624447E+02  0.52937602803E+03  0.54402304182E+03  0.00000000000E+00 0. -1.
        -13    1    3    3    0    0 -0.26100447466E+03  0.18972403169E+03  0.20376426909E+04  0.20630332716E+04  0.00000000000E+00 0.  1.
         22    1    1    2    0    0  0.37513382646E+03 -0.24165265614E+03 -0.11734315894E+04  0.12554135131E+04  0.00000000000E+00 0. -1.
<mgrwt>
<rscale>  0 0.36023032E+04</rscale>
<asrwt>0</asrwt>
<pdfrwt beam="1">  1        2 0.18991405E+00 0.36023032E+04</pdfrwt>
<pdfrwt beam="2">  1       -2 0.40431207E+00 0.36023032E+04</pdfrwt>
<totfact> 0.10230748E-01</totfact>
</mgrwt>
</event>
<event>
 6    1  0.2236204E-005  0.2735137E+04  0.7818608E-02  0.8323693E-01
         -2   -1    0    0    0  501 -0.00000000000E+00  0.00000000000E+00  0.53515722846E+03  0.53515722846E+03  0.00000000000E+00 0.  1.
          2   -1    0    0  501    0  0.00000000000E+00 -0.00000000000E+00 -0.34947554605E+04  0.34947554605E+04  0.00000000000E+00 0. -1.
         23    2    1    2    0    0 -0.12721125204E+04 -0.44078114946E+03 -0.18216257775E+04  0.22670912024E+04  0.93934872114E+02 0.  0.
         11    1    3    3    0    0 -0.13909739089E+03 -0.80061384161E+02 -0.21086916937E+03  0.26499757730E+03  0.00000000000E+00 0.  1.
        -11    1    3    3    0    0 -0.11330151295E+04 -0.36071976529E+03 -0.16107566082E+04  0.20020936251E+04  0.00000000000E+00 0. -1.
         22    1    1    2    0    0  0.12721125204E+04  0.44078114946E+03 -0.11379724545E+04  0.17628214866E+04  0.00000000000E+00 0.  1.
<mgrwt>
<rscale>  0 0.27351370E+04</rscale>
<asrwt>0</asrwt>
<pdfrwt beam="1">  1        2 0.53765471E+00 0.27351370E+04</pdfrwt>
<pdfrwt beam="2">  1       -2 0.82331878E-01 0.27351370E+04</pdfrwt>
<totfact> 0.92918520E-01</totfact>
</mgrwt>
</event>
<event>
 6    1  0.2236204E-005  0.3716792E+04  0.7818608E-02  0.8064251E-01
          2   -1    0    0  501    0  0.00000000000E+00  0.00000000000E+00  0.12733315528E+04  0.12733315528E+04  0.00000000000E+00 0.  1.
         -2   -1    0    0    0  501 -0.00000000000E+00 -0.00000000000E+00 -0.27122832517E+04  0.27122832517E+04  0.00000000000E+00 0. -1.
         23    2    1    2    0    0  0.50408526999E+03  0.84115183721E+01 -0.26364863345E+04  0.26862834702E+04  0.10433588754E+03 0.  0.
         11    1    3    3    0    0  0.23994500850E+03  0.16981332014E+02 -0.15219980284E+04  0.15408893442E+04  0.00000000000E+00 0. -1.
        -11    1    3    3    0    0  0.26414026149E+03 -0.85698136422E+01 -0.11144883061E+04  0.11453941260E+04  0.00000000000E+00 0.  1.
         22    1    1    2    0    0 -0.50408526999E+03 -0.84115183721E+01  0.11975346356E+04  0.12993313344E+04  0.00000000000E+00 0.  1.
<mgrwt>
<rscale>  0 0.37167921E+04</rscale>
<asrwt>0</asrwt>
<pdfrwt beam="1">  1        2 0.19589716E+00 0.37167921E+04</pdfrwt>
<pdfrwt beam="2">  1       -2 0.41727435E+00 0.37167921E+04</pdfrwt>
<totfact> 0.79000783E-02</totfact>
</mgrwt>
</event>
<event>
 6    1  0.2236204E-005  0.1789176E+04  0.7818608E-02  0.8712077E-01
         -1   -1    0    0    0  501 -0.00000000000E+00  0.00000000000E+00  0.66752555429E+03  0.66752555429E+03  0.00000000000E+00 0.  1.
          1   -1    0    0  501    0  0.00000000000E+00 -0.00000000000E+00 -0.11988871748E+04  0.11988871748E+04  0.00000000000E+00 0. -1.
         23    2    1    2    0    0 -0.65029555382E+03  0.39806617303E+03 -0.74975769812E+03  0.10732936761E+04  0.92096275245E+02 0.  0.
         13    1    3    3    0    0 -0.23483478085E+03  0.12205262283E+03 -0.31682844650E+03  0.41282500112E+03  0.00000000000E+00 0.  1.
        -13    1    3    3    0    0 -0.41546077297E+03  0.27601355020E+03 -0.43292925162E+03  0.66046867502E+03  0.00000000000E+00 0. -1.
         22    1    1    2    0    0  0.65029555382E+03 -0.39806617303E+03  0.21839607763E+03  0.79311905295E+03  0.00000000000E+00 0.  1.
<mgrwt>
<rscale>  0 0.17891762E+04</rscale>
<asrwt>0</asrwt>
<pdfrwt beam="1">  1        1 0.18444418E+00 0.17891762E+04</pdfrwt>
<pdfrwt beam="2">  1       -1 0.10269624E+00 0.17891762E+04</pdfrwt>
<totfact> 0.90649367E+00</totfact>
</mgrwt>
</event>
<event>
 6    1  0.2236204E-005  0.1803273E+04  0.7818608E-02  0.8704561E-01
          2   -1    0    0  501    0  0.00000000000E+00  0.00000000000E+00  0.21306084999E+04  0.21306084999E+04  0.00000000000E+00 0. -1.
         -2   -1    0    0    0  501 -0.00000000000E+00 -0.00000000000E+00 -0.38155673885E+03  0.38155673885E+03  0.00000000000E+00 0.  1.
         23    2    1    2    0    0 -0.64610409206E+03  0.60836746029E+03  0.10802860141E+04  0.14009455985E+04  0.89828910889E+02 0.  0.
         13    1    3    3    0    0 -0.26980773895E+03  0.19665951669E+03  0.42341279004E+03  0.53921199195E+03  0.00000000000E+00 0. -1.
        -13    1    3    3    0    0 -0.37629635311E+03  0.41170794360E+03  0.65687322404E+03  0.86173360655E+03  0.00000000000E+00 0.  1.
         22    1    1    2    0    0  0.64610409206E+03 -0.60836746029E+03  0.66876574692E+03  0.11112196402E+04  0.00000000000E+00 0.  1.
<mgrwt>
<rscale>  0 0.18032726E+04</rscale>
<asrwt>0</asrwt>
<pdfrwt beam="1">  1        2 0.32778592E+00 0.18032726E+04</pdfrwt>
<pdfrwt beam="2">  1       -2 0.58701038E-01 0.18032726E+04</pdfrwt>
<totfact> 0.14463381E+01</totfact>
</mgrwt>
</event>
<event>
 6    1  0.2236204E-005  0.1550814E+04  0.7818608E-02  0.8851348E-01
          2   -1    0    0  501    0  0.00000000000E+00  0.00000000000E+00  0.29182155966E+04  0.29182155966E+04  0.00000000000E+00 0. -1.
         -2   -1    0    0    0  501 -0.00000000000E+00 -0.00000000000E+00 -0.20603541585E+03  0.20603541585E+03  0.00000000000E+00 0.  1.
         23    2    1    2    0    0  0.62903986797E+03 -0.14419085671E+03  0.22170921243E+04  0.23108665140E+04  0.90135450556E+02 0.  0.
         11    1    3    3    0    0  0.19338090629E+03 -0.87013985509E+02  0.69732011885E+03  0.72885043510E+03  0.00000000000E+00 0.  1.
        -11    1    3    3    0    0  0.43565896168E+03 -0.57176871198E+02  0.15197720054E+04  0.15820160789E+04  0.00000000000E+00 0. -1.
         22    1    1    2    0    0 -0.62903986797E+03  0.14419085671E+03  0.49508805652E+03  0.81338449847E+03  0.00000000000E+00 0. -1.
<mgrwt>
<rscale>  0 0.15508137E+04</rscale>
<asrwt>0</asrwt>
<pdfrwt beam="1">  1        2 0.44895622E+00 0.15508137E+04</pdfrwt>
<pdfrwt beam="2">  1       -2 0.31697758E-01 0.15508137E+04</pdfrwt>
<totfact> 0.17527587E+01</totfact>
</mgrwt>
</event>
<event>
 6    1  0.2236204E-005  0.8830169E+03  0.7818608E-02  0.9447064E-01
          2   -1    0    0  501    0  0.00000000000E+00  0.00000000000E+00  0.79665353385E+03  0.79665353385E+03  0.00000000000E+00 0. -1.
         -2   -1    0    0    0  501 -0.00000000000E+00 -0.00000000000E+00 -0.24468570591E+03  0.24468570591E+03  0.00000000000E+00 0.  1.
         23    2    1    2    0    0  0.22834664778E+03 -0.35895037227E+03  0.39601366354E+03  0.58822858804E+03  0.90545506673E+02 0.  0.
         11    1    3    3    0    0  0.19308596009E+03 -0.33528613960E+03  0.32412165073E+03  0.50473144133E+03  0.00000000000E+00 0. -1.
        -11    1    3    3    0    0  0.35260687688E+02 -0.23664232665E+02  0.71892012806E+02  0.83497146713E+02  0.00000000000E+00 0.  1.
         22    1    1    2    0    0 -0.22834664778E+03  0.35895037227E+03  0.15595416441E+03  0.45311065172E+03  0.00000000000E+00 0.  1.
<mgrwt>
<rscale>  0 0.88301695E+03</rscale>
<asrwt>0</asrwt>
<pdfrwt beam="1">  1        2 0.12256208E+00 0.88301695E+03</pdfrwt>
<pdfrwt beam="2">  1       -2 0.37643955E-01 0.88301695E+03</pdfrwt>
<totfact> 0.23122488E+02</totfact>
</mgrwt>
</event>
<event>
 6    1  0.2236204E-005  0.2252714E+04  0.7818608E-02  0.8496802E-01
         -1   -1    0    0    0  501 -0.00000000000E+00  0.00000000000E+00  0.64630873248E+03  0.64630873248E+03  0.00000000000E+00 0.  1.
          1   -1    0    0  501    0  0.00000000000E+00 -0.00000000000E+00 -0.19629635105E+04  0.19629635105E+04  0.00000000000E+00 0. -1.
         23    2    1    2    0    0 -0.69036583704E+03 -0.17963148070E+03  0.34756149402E+03  0.79861262342E+03  0.90059271280E+02 0.  0.
         13    1    3    3    0    0 -0.12586308127E+03 -0.68726809313E+02  0.78917039407E+02  0.16368502880E+03  0.00000000000E+00 0. -1.
        -13    1    3    3    0    0 -0.56450275577E+03 -0.11090467138E+03  0.26864445461E+03  0.63492759462E+03  0.00000000000E+00 0.  1.
         22    1    1    2    0    0  0.69036583704E+03  0.17963148070E+03 -0.16642162721E+04  0.18106596196E+04  0.00000000000E+00 0. -1.
<mgrwt>
<rscale>  0 0.22527143E+04</rscale>
<asrwt>0</asrwt>
<pdfrwt beam="1">  1        1 0.30199439E+00 0.22527143E+04</pdfrwt>
<pdfrwt beam="2">  1       -1 0.99432113E-01 0.22527143E+04</pdfrwt>
<totfact> 0.27667398E+00</totfact>
</mgrwt>
</event>
<event>
 6    1  0.2236204E-005  0.8265418E+03  0.7818608E-02  0.9522374E-01
          2   -1    0    0  501    0  0.00000000000E+00  0.00000000000E+00  0.98605088114E+03  0.98605088114E+03  0.00000000000E+00 0. -1.
         -2   -1    0    0    0  501 -0.00000000000E+00 -0.00000000000E+00 -0.17320894029E+03  0.17320894029E+03  0.00000000000E+00 0.  1.
         23    2    1    2    0    0  0.38291108146E+03 -0.32474152185E+02  0.60413291199E+03  0.72195566458E+03  0.92563164381E+02 0.  0.
         11    1    3    3    0    0  0.36495590903E+03 -0.33821267436E+02  0.60060573726E+03  0.70360780645E+03  0.00000000000E+00 0. -1.
        -11    1    3    3    0    0  0.17955172430E+02  0.13471152514E+01  0.35271747385E+01  0.18347858135E+02  0.00000000000E+00 0.  1.
         22    1    1    2    0    0 -0.38291108146E+03  0.32474152185E+02  0.20870902885E+03  0.43730415684E+03  0.00000000000E+00 0.  1.
<mgrwt>
<rscale>  0 0.82654178E+03</rscale>
<asrwt>0</asrwt>
<pdfrwt beam="1">  1        2 0.15170013E+00 0.82654178E+03</pdfrwt>
<pdfrwt beam="2">  1       -2 0.26647530E-01 0.82654178E+03</pdfrwt>
<totfact> 0.32943861E+02</totfact>
</mgrwt>
</event>
<event>
 6    1  0.2236204E-005  0.2332327E+04  0.7818608E-02  0.8465283E-01
         -2   -1    0    0    0  501 -0.00000000000E+00  0.00000000000E+00  0.10862560748E+04  0.10862560748E+04  0.00000000000E+00 0.  1.
          2   -1    0    0  501    0  0.00000000000E+00 -0.00000000000E+00 -0.12519487328E+04  0.12519487328E+04  0.00000000000E+00 0. -1.
         23    2    1    2    0    0  0.32407943294E+03  0.72020220278E+03 -0.94095997534E+03  0.12315169089E+04  0.86657543520E+02 0.  0.
         11    1    3    3    0    0  0.32843364718E+03  0.71473992136E+03 -0.92587831884E+03  0.12148960767E+04  0.00000000000E+00 0.  1.
        -11    1    3    3    0    0 -0.43542142399E+01  0.54622814234E+01 -0.15081656499E+02  0.16620832191E+02  0.00000000000E+00 0. -1.
         22    1    1    2    0    0 -0.32407943294E+03 -0.72020220278E+03  0.77526731739E+03  0.11066878987E+04  0.00000000000E+00 0.  1.
<mgrwt>
<rscale>  0 0.23323267E+04</rscale>
<asrwt>0</asrwt>
<pdfrwt beam="1">  1        2 0.19260750E+00 0.23323267E+04</pdfrwt>
<pdfrwt beam="2">  1       -2 0.16711632E+00 0.23323267E+04</pdfrwt>
<totfact> 0.35654889E+00</totfact>
</mgrwt>
</event>
<event>
 6    1  0.2236204E-005  0.1523148E+04  0.7818608E-02  0.8869204E-01
         -2   -1    0    0    0  501 -0.00000000000E+00  0.00000000000E+00  0.31606027092E+03  0.31606027092E+03  0.00000000000E+00 0.  1.
          2   -1    0    0  501    0  0.00000000000E+00 -0.00000000000E+00 -0.18350767366E+04  0.18350767366E+04  0.00000000000E+00 0. -1.
         23    2    1    2    0    0 -0.59035116592E+03  0.46470029796E+03 -0.91321306563E+03  0.11860159656E+04  0.90636093629E+02 0.  0.
         13    1    3    3    0    0 -0.44947325659E+03  0.30189294351E+03 -0.65082403032E+03  0.84660349406E+03  0.00000000000E+00 0.  1.
        -13    1    3    3    0    0 -0.14087790933E+03  0.16280735445E+03 -0.26238903531E+03  0.33941247156E+03  0.00000000000E+00 0. -1.
         22    1    1    2    0    0  0.59035116592E+03 -0.46470029796E+03 -0.60580340009E+03  0.96512104193E+03  0.00000000000E+00 0. -1.
<mgrwt>
<rscale>  0 0.15231479E+04</rscale>
<asrwt>0</asrwt>
<pdfrwt beam="1">  1        2 0.28231949E+00 0.15231479E+04</pdfrwt>
<pdfrwt beam="2">  1       -2 0.48624658E-01 0.15231479E+04</pdfrwt>
<totfact> 0.31875221E+01</totfact>
</mgrwt>
</event>
<event>
 6    1  0.2236204E-005  0.5223442E+04  0.7818608E-02  0.7794934E-01
          1   -1    0    0  501    0  0.00000000000E+00  0.00000000000E+00  0.31973980212E+04  0.31973980212E+04  0.00000000000E+00 0.  1.
         -1   -1    0    0    0  501 -0.00000000000E+00 -0.00000000000E+00 -0.21333239757E+04  0.21333239757E+04  0.00000000000E+00 0. -1.
         23    2    1    2    0    0 -0.20862755864E+04  0.11857145552E+04  0.15821658128E+04  0.28757507327E+04  0.90712672513E+02 0.  0.
         11    1    3    3    0    0 -0.15834086698E+04  0.87088691746E+03  0.12265931155E+04  0.21840690716E+04  0.00000000000E+00 0. -1.
        -11    1    3    3    0    0 -0.50286691656E+03  0.31482763772E+03  0.35557269726E+03  0.69168166109E+03  0.00000000000E+00 0.  1.
         22    1    1    2    0    0  0.20862755864E+04 -0.11857145552E+04 -0.51809176726E+03  0.24549712642E+04  0.00000000000E+00 0.  1.
<mgrwt>
<rscale>  0 0.52234417E+04</rscale>
<asrwt>0</asrwt>
<pdfrwt beam="1">  1        1 0.49190739E+00 0.52234417E+04</pdfrwt>
<pdfrwt beam="2">  1       -1 0.32820369E+00 0.52234417E+04</pdfrwt>
<totfact> 0.65493818E-03</totfact>
</mgrwt>
</event>
<event>
 6    1  0.2236204E-005  0.1460199E+04  0.7818608E-02  0.8911360E-01
          2   -1    0    0  501    0  0.00000000000E+00  0.00000000000E+00  0.78554565427E+03  0.78554565427E+03  0.00000000000E+00 0. -1.
         -2   -1    0    0    0  501 -0.00000000000E+00 -0.00000000000E+00 -0.67856686566E+03  0.67856686566E+03  0.00000000000E+00 0.  1.
         23    2    1    2    0    0 -0.63692800222E+03 -0.33245481863E+03 -0.59319803852E+02  0.72664475230E+03  0.91050922413E+02 0.  0.
         13    1    3    3    0    0 -0.33389907418E+03 -0.16336660148E+03  0.13942330964E+02  0.37198336899E+03  0.00000000000E+00 0. -1.
        -13    1    3    3    0    0 -0.30302892804E+03 -0.16908821715E+03 -0.73262134816E+02  0.35466138330E+03  0.00000000000E+00 0.  1.
         22    1    1    2    0    0  0.63692800222E+03  0.33245481863E+03  0.16629859247E+03  0.73746776763E+03  0.00000000000E+00 0. -1.
<mgrwt>
<rscale>  0 0.14601990E+04</rscale>
<asrwt>0</asrwt>
<pdfrwt beam="1">  1        2 0.12085318E+00 0.14601990E+04</pdfrwt>
<pdfrwt beam="2">  1       -2 0.10439490E+00 0.14601990E+04</pdfrwt>
<totfact> 0.25494236E+01</totfact>
</mgrwt>
</event>
<event>
 6    1  0.2236204E-005  0.2538630E+04  0.7818608E-02  0.8389351E-01
         -2   -1    0    0    0  501 -0.00000000000E+00  0.00000000000E+00  0.10744620485E+04  0.10744620485E+04  0.00000000000E+00 0.  1.
          2   -1    0    0  501    0  0.00000000000E+00 -0.00000000000E+00 -0.14995045985E+04  0.14995045985E+04  0.00000000000E+00 0. -1.
         23    2    1    2    0    0  0.27692968273E+03 -0.37331454043E+02 -0.14664585171E+04  0.14957130111E+04  0.92591266759E+02 0.  0.
         11    1    3    3    0    0  0.15298063214E+03 -0.21613340117E+02 -0.56913293994E+03  0.58973088236E+03  0.00000000000E+00 0. -1.
        -11    1    3    3    0    0  0.12394905058E+03 -0.15718113926E+02 -0.89732557715E+03  0.90598212877E+03  0.00000000000E+00 0.  1.
         22    1    1    2    0    0 -0.27692968273E+03  0.37331454043E+02  0.10414159672E+04  0.10782536359E+04  0.00000000000E+00 0.  1.
<mgrwt>
<rscale>  0 0.25386302E+04</rscale>
<asrwt>0</asrwt>
<pdfrwt beam="1">  1        2 0.23069301E+00 0.25386302E+04</pdfrwt>
<pdfrwt beam="2">  1       -2 0.16530185E+00 0.25386302E+04</pdfrwt>
<totfact> 0.26017242E+00</totfact>
</mgrwt>
</event>
<event>
 6    1  0.2236204E-005  0.2136590E+04  0.7818608E-02  0.8545294E-01
         -2   -1    0    0    0  501 -0.00000000000E+00  0.00000000000E+00  0.58379570874E+03  0.58379570874E+03  0.00000000000E+00 0.  1.
          2   -1    0    0  501    0  0.00000000000E+00 -0.00000000000E+00 -0.19548870140E+04  0.19548870140E+04  0.00000000000E+00 0. -1.
         23    2    1    2    0    0  0.54698775169E+03  0.84849863068E+03 -0.10927550240E+04  0.14914880836E+04  0.10619620691E+03 0.  0.
         11    1    3    3    0    0  0.35551408586E+03  0.50370807928E+03 -0.59951546754E+03  0.85995981894E+03  0.00000000000E+00 0.  1.
        -11    1    3    3    0    0  0.19147366583E+03  0.34479055140E+03 -0.49323955643E+03  0.63152826466E+03  0.00000000000E+00 0. -1.
         22    1    1    2    0    0 -0.54698775169E+03 -0.84849863068E+03 -0.27833628129E+03  0.10471946391E+04  0.00000000000E+00 0. -1.
<mgrwt>
<rscale>  0 0.21365904E+04</rscale>
<asrwt>0</asrwt>
<pdfrwt beam="1">  1        2 0.30075186E+00 0.21365904E+04</pdfrwt>
<pdfrwt beam="2">  1       -2 0.89814722E-01 0.21365904E+04</pdfrwt>
<totfact> 0.69055653E+00</totfact>
</mgrwt>
</event>
<event>
 6    1  0.2236204E-005  0.4543734E+04  0.7818608E-02  0.7903025E-01
          2   -1    0    0  501    0  0.00000000000E+00  0.00000000000E+00  0.30368222977E+04  0.30368222977E+04  0.00000000000E+00 0. -1.
         -2   -1    0    0    0  501 -0.00000000000E+00 -0.00000000000E+00 -0.16995988861E+04  0.16995988861E+04  0.00000000000E+00 0.  1.
         23    2    1    2    0    0  0.21457806848E+04 -0.51277506280E+03  0.10775562344E+03  0.22107719495E+04  0.92673221996E+02 0.  0.
         13    1    3    3    0    0  0.18623549675E+04 -0.45119207825E+03  0.62716313485E+02  0.19172568039E+04  0.00000000000E+00 0. -1.
        -13    1    3    3    0    0  0.28342571735E+03 -0.61582984550E+02  0.45039309952E+02  0.29351514557E+03  0.00000000000E+00 0.  1.
         22    1    1    2    0    0 -0.21457806848E+04  0.51277506280E+03  0.12294677882E+04  0.25256492343E+04  0.00000000000E+00 0. -1.
<mgrwt>
<rscale>  0 0.45437341E+04</rscale>
<asrwt>0</asrwt>
<pdfrwt beam="1">  1        2 0.46720343E+00 0.45437341E+04</pdfrwt>
<pdfrwt beam="2">  1       -2 0.26147675E+00 0.45437341E+04</pdfrwt>
<totfact> 0.68062024E-02</totfact>
</mgrwt>
</event>
<event>
 6    1  0.2236204E-005  0.1018601E+04  0.7818608E-02  0.9288376E-01
         -2   -1    0    0    0  501 -0.00000000000E+00  0.00000000000E+00  0.32443929843E+03  0.32443929843E+03  0.00000000000E+00 0. -1.
          2   -1    0    0  501    0  0.00000000000E+00 -0.00000000000E+00 -0.79949266168E+03  0.79949266168E+03  0.00000000000E+00 0.  1.
         23    2    1    2    0    0  0.10244712513E+03  0.27388479816E+03  0.21600219237E+03  0.37355467030E+03  0.85894403080E+02 0.  0.
         11    1    3    3    0    0  0.99614380420E+02  0.14718697037E+03  0.13442957694E+03  0.22284151361E+03  0.00000000000E+00 0.  1.
        -11    1    3    3    0    0  0.28327447138E+01  0.12669782779E+03  0.81572615434E+02  0.15071315669E+03  0.00000000000E+00 0. -1.
         22    1    1    2    0    0 -0.10244712513E+03 -0.27388479816E+03 -0.69105555562E+03  0.75037728981E+03  0.00000000000E+00 0.  1.
<mgrwt>
<rscale>  0 0.10186007E+04</rscale>
<asrwt>0</asrwt>
<pdfrwt beam="1">  1        2 0.12299887E+00 0.10186007E+04</pdfrwt>
<pdfrwt beam="2">  1       -2 0.49913738E-01 0.10186007E+04</pdfrwt>
<totfact> 0.13058360E+02</totfact>
</mgrwt>
</event>
<event>
 6    1  0.2236204E-005  0.1612933E+04  0.7818608E-02  0.8812642E-01
         -2   -1    0    0    0  501 -0.00000000000E+00  0.00000000000E+00  0.33839412810E+03  0.33839412810E+03  0.00000000000E+00 0.  1.
          2   -1    0    0  501    0  0.00000000000E+00 -0.00000000000E+00 -0.19219853474E+04  0.19219853474E+04  0.00000000000E+00 0. -1.
         23    2    1    2    0    0  0.76276858138E+02  0.57538511143E+03 -0.14530944662E+02  0.58740717120E+03  0.89161936290E+02 0.  0.
         13    1    3    3    0    0 -0.19334134919E+02  0.13174094322E+03  0.38123838649E+01  0.13320667838E+03  0.00000000000E+00 0. -1.
        -13    1    3    3    0    0  0.95610993057E+02  0.44364416821E+03 -0.18343328527E+02  0.45420049282E+03  0.00000000000E+00 0.  1.
         22    1    1    2    0    0 -0.76276858138E+02 -0.57538511143E+03 -0.15690602747E+04  0.16729723043E+04  0.00000000000E+00 0. -1.
<mgrwt>
<rscale>  0 0.16129334E+04</rscale>
<asrwt>0</asrwt>
<pdfrwt beam="1">  1        2 0.29569005E+00 0.16129334E+04</pdfrwt>
<pdfrwt beam="2">  1       -2 0.52060636E-01 0.16129334E+04</pdfrwt>
<totfact> 0.24639044E+01</totfact>
</mgrwt>
</event>
<event>
 6    1  0.2236204E-005  0.2729018E+04  0.7818608E-02  0.8325651E-01
         -2   -1    0    0    0  501 -0.00000000000E+00  0.00000000000E+00  0.77772104225E+03  0.77772104225E+03  0.00000000000E+00 0.  1.
          2   -1    0    0  501    0  0.00000000000E+00 -0.00000000000E+00 -0.23940268476E+04  0.23940268476E+04  0.00000000000E+00 0. -1.
         23    2    1    2    0    0 -0.20588358840E+03 -0.11119740254E+04  0.75088276262E+02  0.11371255110E+04  0.92422364238E+02 0.  0.
         13    1    3    3    0    0 -0.13452612360E+02 -0.97661741703E+02 -0.19157871121E+02  0.10042814644E+03  0.00000000000E+00 0.  1.
        -13    1    3    3    0    0 -0.19243097604E+03 -0.10143122837E+04  0.94246147382E+02  0.10366973646E+04  0.00000000000E+00 0. -1.
         22    1    1    2    0    0  0.20588358840E+03  0.11119740254E+04 -0.16913940816E+04  0.20346223788E+04  0.00000000000E+00 0. -1.
<mgrwt>
<rscale>  0 0.27290182E+04</rscale>
<asrwt>0</asrwt>
<pdfrwt beam="1">  1        2 0.36831182E+00 0.27290182E+04</pdfrwt>
<pdfrwt beam="2">  1       -2 0.11964939E+00 0.27290182E+04</pdfrwt>
<totfact> 0.18754793E+00</totfact>
</mgrwt>
</event>
<event>
 6    1  0.2236204E-005  0.1882921E+04  0.7818608E-02  0.8663405E-01
          2   -1    0    0  501    0  0.00000000000E+00  0.00000000000E+00  0.78605775466E+03  0.78605775466E+03  0.00000000000E+00 0. -1.
         -2   -1    0    0    0  501 -0.00000000000E+00 -0.00000000000E+00 -0.11275862949E+04  0.11275862949E+04  0.00000000000E+00 0.  1.
         23    2    1    2    0    0 -0.13390665270E+03  0.92851126340E+03 -0.22212674237E+03  0.96795861180E+03  0.86829871545E+02 0.  0.
         11    1    3    3    0    0 -0.12560266049E+03  0.62024611844E+03 -0.12926248738E+03  0.64590252082E+03  0.00000000000E+00 0. -1.
        -11    1    3    3    0    0 -0.83039922130E+01  0.30826514496E+03 -0.92864254984E+02  0.32205609098E+03  0.00000000000E+00 0.  1.
         22    1    1    2    0    0  0.13390665270E+03 -0.92851126340E+03 -0.11940179789E+03  0.94568543778E+03  0.00000000000E+00 0. -1.
<mgrwt>
<rscale>  0 0.18829211E+04</rscale>
<asrwt>0</asrwt>
<pdfrwt beam="1">  1        2 0.12093196E+00 0.18829211E+04</pdfrwt>
<pdfrwt beam="2">  1       -2 0.17347481E+00 0.18829211E+04</pdfrwt>
<totfact> 0.66564057E+00</totfact>
</mgrwt>
</event>
<event>
 6    1  0.2236204E-005  0.1434396E+04  0.7818608E-02  0.8929291E-01
          1   -1    0    0  501    0  0.00000000000E+00  0.00000000000E+00  0.17082727295E+04  0.17082727295E+04  0.00000000000E+00 0. -1.
         -1   -1    0    0    0  501 -0.00000000000E+00 -0.00000000000E+00 -0.30110704143E+03  0.30110704143E+03  0.00000000000E+00 0.  1.
         23    2    1    2    0    0  0.35845490038E+03 -0.53743258696E+03  0.28258317535E+03  0.71245667028E+03  0.10206642395E+03 0.  0.
         13    1    3    3    0    0  0.16726482700E+03 -0.33327924234E+03  0.13814730527E+03  0.39766475036E+03  0.00000000000E+00 0.  1.
        -13    1    3    3    0    0  0.19119007338E+03 -0.20415334462E+03  0.14443587008E+03  0.31479191992E+03  0.00000000000E+00 0. -1.
         22    1    1    2    0    0 -0.35845490038E+03  0.53743258696E+03  0.11245825127E+04  0.12969231007E+04  0.00000000000E+00 0. -1.
<mgrwt>
<rscale>  0 0.14343960E+04</rscale>
<asrwt>0</asrwt>
<pdfrwt beam="1">  1        1 0.26281118E+00 0.14343960E+04</pdfrwt>
<pdfrwt beam="2">  1       -1 0.46324161E-01 0.14343960E+04</pdfrwt>
<totfact> 0.21221230E+01</totfact>
</mgrwt>
</event>
<event>
 6    1  0.2236204E-005  0.1101510E+04  0.7818608E-02  0.9203721E-01
         -2   -1    0    0    0  501 -0.00000000000E+00  0.00000000000E+00  0.14113262025E+03  0.14113262025E+03  0.00000000000E+00 0.  1.
          2   -1    0    0  501    0  0.00000000000E+00 -0.00000000000E+00 -0.21492623472E+04  0.21492623472E+04  0.00000000000E+00 0. -1.
         23    2    1    2    0    0  0.77853643096E+02 -0.46162325840E+03 -0.42284926647E+03  0.63743660111E+03  0.91469644380E+02 0.  0.
         13    1    3    3    0    0 -0.11736775389E+01 -0.26190039539E+03 -0.24358067728E+03  0.35766568324E+03  0.00000000000E+00 0. -1.
        -13    1    3    3    0    0  0.79027320635E+02 -0.19972286301E+03 -0.17926858919E+03  0.27977091787E+03  0.00000000000E+00 0.  1.
         22    1    1    2    0    0 -0.77853643096E+02  0.46162325840E+03 -0.15852804605E+04  0.16529583663E+04  0.00000000000E+00 0. -1.
<mgrwt>
<rscale>  0 0.11015099E+04</rscale>
<asrwt>0</asrwt>
<pdfrwt beam="1">  1        2 0.33065574E+00 0.11015099E+04</pdfrwt>
<pdfrwt beam="2">  1       -2 0.21712711E-01 0.11015099E+04</pdfrwt>
<totfact> 0.10156408E+02</totfact>
</mgrwt>
</event>
<event>
 6    1  0.2236204E-005  0.2205933E+04  0.7818608E-02  0.8515963E-01
          2   -1    0    0  501    0  0.00000000000E+00  0.00000000000E+00  0.33990331049E+04  0.33990331049E+04  0.00000000000E+00 0. -1.
         -2   -1    0    0    0  501 -0.00000000000E+00 -0.00000000000E+00 -0.35790626303E+03  0.35790626303E+03  0.00000000000E+00 0.  1.
         23    2    1    2    0    0 -0.65284683043E+03  0.56703481493E+03  0.36334756100E+03  0.94300274064E+03  0.97443591017E+02 0.  0.
         11    1    3    3    0    0 -0.31904169290E+03  0.34130531193E+03  0.19874891865E+03  0.50771847556E+03  0.00000000000E+00 0. -1.
        -11    1    3    3    0    0 -0.33380513753E+03  0.22572950300E+03  0.16459864234E+03  0.43528426508E+03  0.00000000000E+00 0.  1.
         22    1    1    2    0    0  0.65284683043E+03 -0.56703481493E+03  0.26777792809E+04  0.28139366273E+04  0.00000000000E+00 0. -1.
<mgrwt>
<rscale>  0 0.22059331E+04</rscale>
<asrwt>0</asrwt>
<pdfrwt beam="1">  1        2 0.52292815E+00 0.22059331E+04</pdfrwt>
<pdfrwt beam="2">  1       -2 0.55062504E-01 0.22059331E+04</pdfrwt>
<totfact> 0.27135788E+00</totfact>
</mgrwt>
</event>
<event>
 6    1  0.2236204E-005  0.9879074E+03  0.7818608E-02  0.9321908E-01
         -2   -1    0    0    0  501 -0.00000000000E+00  0.00000000000E+00  0.89435687718E+02  0.89435687718E+02  0.00000000000E+00 0.  1.
          2   -1    0    0  501    0  0.00000000000E+00 -0.00000000000E+00 -0.27281083702E+04  0.27281083702E+04  0.00000000000E+00 0. -1.
         23    2    1    2    0    0  0.29575015838E+03 -0.36473431713E+03 -0.17269615353E+04  0.17920117600E+04  0.91710005700E+02 0.  0.
         13    1    3    3    0    0  0.10189487686E+03 -0.19811185529E+03 -0.81618634880E+03  0.84604434228E+03  0.00000000000E+00 0.  1.
        -13    1    3    3    0    0  0.19385528152E+03 -0.16662246184E+03 -0.91077518650E+03  0.94596741768E+03  0.00000000000E+00 0. -1.
         22    1    1    2    0    0 -0.29575015838E+03  0.36473431713E+03 -0.91171114723E+03  0.10255322980E+04  0.00000000000E+00 0.  1.
<mgrwt>
<rscale>  0 0.98790738E+03</rscale>
<asrwt>0</asrwt>
<pdfrwt beam="1">  1        2 0.41970892E+00 0.98790738E+03</pdfrwt>
<pdfrwt beam="2">  1       -2 0.13759339E-01 0.98790738E+03</pdfrwt>
<totfact> 0.10556075E+02</totfact>
</mgrwt>
</event>
<event>
 6    1  0.2236204E-005  0.9357521E+03  0.7818608E-02  0.9381961E-01
          1   -1    0    0  501    0  0.00000000000E+00  0.00000000000E+00  0.22963373150E+04  0.22963373150E+04  0.00000000000E+00 0. -1.
         -1   -1    0    0    0  501 -0.00000000000E+00 -0.00000000000E+00 -0.95329202399E+02  0.95329202399E+02  0.00000000000E+00 0.  1.
         23    2    1    2    0    0  0.12006024421E+03  0.31255657508E+03  0.29033970602E+03  0.45188306691E+03  0.88289786532E+02 0.  0.
         11    1    3    3    0    0  0.11740083959E+03  0.27529036738E+03  0.28653163548E+03  0.41432851898E+03  0.00000000000E+00 0. -1.
        -11    1    3    3    0    0  0.26594046190E+01  0.37266207701E+02  0.38080705400E+01  0.37554547935E+02  0.00000000000E+00 0.  1.
         22    1    1    2    0    0 -0.12006024421E+03 -0.31255657508E+03  0.19106684066E+04  0.19397834505E+04  0.00000000000E+00 0. -1.
<mgrwt>
<rscale>  0 0.93575211E+03</rscale>
<asrwt>0</asrwt>
<pdfrwt beam="1">  1        1 0.35328262E+00 0.93575211E+03</pdfrwt>
<pdfrwt beam="2">  1       -1 0.14666033E-01 0.93575211E+03</pdfrwt>
<totfact> 0.65052274E+01</totfact>
</mgrwt>
</event>
<event>
 6    1  0.2236204E-005  0.1398770E+04  0.7818608E-02  0.8954709E-01
         -2   -1    0    0    0  501 -0.00000000000E+00  0.00000000000E+00  0.65015212763E+03  0.65015212763E+03  0.00000000000E+00 0.  1.
          2   -1    0    0  501    0  0.00000000000E+00 -0.00000000000E+00 -0.75234586303E+03  0.75234586303E+03  0.00000000000E+00 0. -1.
         23    2    1    2    0    0  0.58385710742E+03 -0.37265556553E+03 -0.12301523124E+03  0.70953707755E+03  0.92459855604E+02 0.  0.
         11    1    3    3    0    0  0.19174895193E+03 -0.14381462323E+03 -0.20482517593E+01  0.23969668699E+03  0.00000000000E+00 0. -1.
        -11    1    3    3    0    0  0.39210815549E+03 -0.22884094230E+03 -0.12096697948E+03  0.46984039056E+03  0.00000000000E+00 0.  1.
         22    1    1    2    0    0 -0.58385710742E+03  0.37265556553E+03  0.20821495837E+02  0.69296091311E+03  0.00000000000E+00 0. -1.
<mgrwt>
<rscale>  0 0.13987698E+04</rscale>
<asrwt>0</asrwt>
<pdfrwt beam="1">  1        2 0.11574552E+00 0.13987698E+04</pdfrwt>
<pdfrwt beam="2">  1       -2 0.10002340E+00 0.13987698E+04</pdfrwt>
<totfact> 0.30019411E+01</totfact>
</mgrwt>
</event>
<event>
 6    1  0.2236204E-005  0.3186502E+04  0.7818608E-02  0.8192391E-01
         -2   -1    0    0    0  501 -0.00000000000E+00  0.00000000000E+00  0.16756696471E+04  0.16756696471E+04  0.00000000000E+00 0.  1.
          2   -1    0    0  501    0  0.00000000000E+00 -0.00000000000E+00 -0.15148861982E+04  0.15148861982E+04  0.00000000000E+00 0. -1.
         23    2    1    2    0    0  0.13572046331E+04  0.31739752788E+03  0.85064624668E+03  0.16353528725E+04  0.89634669061E+02 0.  0.
         13    1    3    3    0    0  0.71618426654E+03  0.12197997549E+03  0.45004770941E+03  0.85460046736E+03  0.00000000000E+00 0.  1.
        -13    1    3    3    0    0  0.64102036658E+03  0.19541755239E+03  0.40059853727E+03  0.78075240519E+03  0.00000000000E+00 0. -1.
         22    1    1    2    0    0 -0.13572046331E+04 -0.31739752788E+03 -0.68986279779E+03  0.15552029728E+04  0.00000000000E+00 0. -1.
<mgrwt>
<rscale>  0 0.31865020E+04</rscale>
<asrwt>0</asrwt>
<pdfrwt beam="1">  1        2 0.23305942E+00 0.31865020E+04</pdfrwt>
<pdfrwt beam="2">  1       -2 0.25779533E+00 0.31865020E+04</pdfrwt>
<totfact> 0.60408347E-01</totfact>
</mgrwt>
</event>
<event>
 6    1  0.2236204E-005  0.5408110E+03  0.7818608E-02  0.1003643E+00
         -2   -1    0    0    0  501 -0.00000000000E+00  0.00000000000E+00  0.58087795606E+02  0.58087795606E+02  0.00000000000E+00 0.  1.
          2   -1    0    0  501    0  0.00000000000E+00 -0.00000000000E+00 -0.12587691626E+04  0.12587691626E+04  0.00000000000E+00 0. -1.
         23    2    1    2    0    0  0.10332217572E+03  0.17686218061E+03 -0.21682098349E+03  0.31190076158E+03  0.91186859050E+02 0.  0.
         11    1    3    3    0    0  0.78212272707E+02  0.45839253009E+02 -0.82178446989E+02  0.12235887327E+03  0.00000000000E+00 0.  1.
        -11    1    3    3    0    0  0.25109903013E+02  0.13102292760E+03 -0.13464253650E+03  0.18954188831E+03  0.00000000000E+00 0. -1.
         22    1    1    2    0    0 -0.10332217572E+03 -0.17686218061E+03 -0.98386038353E+03  0.10049561967E+04  0.00000000000E+00 0. -1.
<mgrwt>
<rscale>  0 0.54081097E+03</rscale>
<asrwt>0</asrwt>
<pdfrwt beam="1">  1        2 0.19365681E+00 0.54081097E+03</pdfrwt>
<pdfrwt beam="2">  1       -2 0.89365833E-02 0.54081097E+03</pdfrwt>
<totfact> 0.14585668E+03</totfact>
</mgrwt>
</event>
<event>
 6    1  0.2698961E-005  0.4974759E+04  0.7818608E-02  0.7832413E-01
          2   -1    0    0  501    0  0.00000000000E+00  0.00000000000E+00  0.28134837622E+04  0.28134837622E+04  0.00000000000E+00 0. -1.
         -2   -1    0    0    0  501 -0.00000000000E+00 -0.00000000000E+00 -0.21990729582E+04  0.21990729582E+04  0.00000000000E+00 0.  1.
         23    2    1    2    0    0 -0.21044800554E+04  0.13156196319E+04  0.15379095891E+03  0.24883019866E+04  0.91125177523E+02 0.  0.
         13    1    3    3    0    0 -0.10179314483E+04  0.59674496958E+03  0.10384938078E+03  0.11845141139E+04  0.00000000000E+00 0.  1.
        -13    1    3    3    0    0 -0.10865486071E+04  0.71887466228E+03  0.49941578136E+02  0.13037878727E+04  0.00000000000E+00 0. -1.
         22    1    1    2    0    0  0.21044800554E+04 -0.13156196319E+04  0.46061984505E+03  0.25242547338E+04  0.00000000000E+00 0. -1.
<mgrwt>
<rscale>  0 0.49747587E+04</rscale>
<asrwt>0</asrwt>
<pdfrwt beam="1">  1        2 0.43284365E+00 0.49747587E+04</pdfrwt>
<pdfrwt beam="2">  1       -2 0.33831892E+00 0.49747587E+04</pdfrwt>
<totfact> 0.30490681E-02</totfact>
</mgrwt>
</event>
<event>
 6    1  0.2236204E-005  0.2496373E+04  0.7818608E-02  0.8404279E-01
         -2   -1    0    0    0  501 -0.00000000000E+00  0.00000000000E+00  0.17571886688E+04  0.17571886688E+04  0.00000000000E+00 0.  1.
          2   -1    0    0  501    0  0.00000000000E+00 -0.00000000000E+00 -0.88662600484E+03  0.88662600484E+03  0.00000000000E+00 0. -1.
         23    2    1    2    0    0 -0.45706121820E+03  0.10763840875E+04  0.89260104795E+03  0.14742021944E+04  0.95014831930E+02 0.  0.
         13    1    3    3    0    0 -0.55597128997E+02  0.15477104414E+03  0.87489851622E+02  0.18627826227E+03  0.00000000000E+00 0.  1.
        -13    1    3    3    0    0 -0.40146408920E+03  0.92161304337E+03  0.80511119633E+03  0.12879239322E+04  0.00000000000E+00 0. -1.
         22    1    1    2    0    0  0.45706121820E+03 -0.10763840875E+04 -0.22038384037E+02  0.11696124792E+04  0.00000000000E+00 0. -1.
<mgrwt>
<rscale>  0 0.24963727E+04</rscale>
<asrwt>0</asrwt>
<pdfrwt beam="1">  1        2 0.13640400E+00 0.24963727E+04</pdfrwt>
<pdfrwt beam="2">  1       -2 0.27033672E+00 0.24963727E+04</pdfrwt>
<totfact> 0.12885339E+00</totfact>
</mgrwt>
</event>
<event>
 6    1  0.2236204E-005  0.2702575E+04  0.7818608E-02  0.8334170E-01
         -1   -1    0    0    0  501 -0.00000000000E+00  0.00000000000E+00  0.14566643431E+04  0.14566643431E+04  0.00000000000E+00 0.  1.
          1   -1    0    0  501    0  0.00000000000E+00 -0.00000000000E+00 -0.12535341978E+04  0.12535341978E+04  0.00000000000E+00 0. -1.
         23    2    1    2    0    0  0.23368960979E+03 -0.10102243767E+04  0.96816575738E+03  0.14216165246E+04  0.92111260632E+02 0.  0.
         13    1    3    3    0    0  0.16291994073E+03 -0.83930476952E+03  0.81943365254E+03  0.11842495152E+04  0.00000000000E+00 0. -1.
        -13    1    3    3    0    0  0.70769669061E+02 -0.17091960719E+03  0.14873210484E+03  0.23736700949E+03  0.00000000000E+00 0.  1.
         22    1    1    2    0    0 -0.23368960979E+03  0.10102243767E+04 -0.76503561206E+03  0.12885820163E+04  0.00000000000E+00 0. -1.
<mgrwt>
<rscale>  0 0.27025755E+04</rscale>
<asrwt>0</asrwt>
<pdfrwt beam="1">  1        1 0.19285142E+00 0.27025755E+04</pdfrwt>
<pdfrwt beam="2">  1       -1 0.22410221E+00 0.27025755E+04</pdfrwt>
<totfact> 0.88107650E-01</totfact>
</mgrwt>
</event>
<event>
 6    1  0.2236204E-005  0.1228094E+04  0.7818608E-02  0.9088615E-01
         -2   -1    0    0    0  501 -0.00000000000E+00  0.00000000000E+00  0.10279796636E+04  0.10279796636E+04  0.00000000000E+00 0.  1.
          2   -1    0    0  501    0  0.00000000000E+00 -0.00000000000E+00 -0.36679131664E+03  0.36679131664E+03  0.00000000000E+00 0. -1.
         23    2    1    2    0    0  0.15106652554E+02 -0.36197330774E+03 -0.22574773998E+03  0.43669556108E+03  0.92130801002E+02 0.  0.
         13    1    3    3    0    0 -0.33912343576E+01 -0.34860968606E+03 -0.22266925959E+03  0.41366872356E+03  0.00000000000E+00 0.  1.
        -13    1    3    3    0    0  0.18497886912E+02 -0.13363621678E+02 -0.30784803882E+01  0.23026837517E+02  0.00000000000E+00 0. -1.
         22    1    1    2    0    0 -0.15106652554E+02  0.36197330774E+03  0.88693608692E+03  0.95807541914E+03  0.00000000000E+00 0.  1.
<mgrwt>
<rscale>  0 0.12280945E+04</rscale>
<asrwt>0</asrwt>
<pdfrwt beam="1">  1        2 0.56429434E-01 0.12280945E+04</pdfrwt>
<pdfrwt beam="2">  1       -2 0.15815072E+00 0.12280945E+04</pdfrwt>
<totfact> 0.22424428E+01</totfact>
</mgrwt>
</event>
<event>
 6    1  0.2236204E-005  0.1530037E+04  0.7818608E-02  0.8864721E-01
         -2   -1    0    0    0  501 -0.00000000000E+00  0.00000000000E+00  0.26576176468E+03  0.26576176468E+03  0.00000000000E+00 0.  1.
          2   -1    0    0  501    0  0.00000000000E+00 -0.00000000000E+00 -0.22021733855E+04  0.22021733855E+04  0.00000000000E+00 0. -1.
         23    2    1    2    0    0 -0.38868605187E+03 -0.63125804621E+03 -0.68496542649E+03  0.10133970293E+04  0.90732219473E+02 0.  0.
         13    1    3    3    0    0 -0.24560790446E+03 -0.46657533519E+03 -0.45543142898E+03  0.69673063134E+03  0.00000000000E+00 0. -1.
        -13    1    3    3    0    0 -0.14307814741E+03 -0.16468271102E+03 -0.22953399750E+03  0.31666639794E+03  0.00000000000E+00 0.  1.
         22    1    1    2    0    0  0.38868605187E+03  0.63125804621E+03 -0.12514461943E+04  0.14545381209E+04  0.00000000000E+00 0. -1.
<mgrwt>
<rscale>  0 0.15300372E+04</rscale>
<asrwt>0</asrwt>
<pdfrwt beam="1">  1        2 0.33879592E+00 0.15300372E+04</pdfrwt>
<pdfrwt beam="2">  1       -2 0.40886423E-01 0.15300372E+04</pdfrwt>
<totfact> 0.28148693E+01</totfact>
</mgrwt>
</event>
<event>
 6    1  0.2236204E-005  0.4504370E+04  0.7818608E-02  0.7909872E-01
         -2   -1    0    0    0  501 -0.00000000000E+00  0.00000000000E+00  0.24365250407E+04  0.24365250407E+04  0.00000000000E+00 0.  1.
          2   -1    0    0  501    0  0.00000000000E+00 -0.00000000000E+00 -0.20817912008E+04  0.20817912008E+04  0.00000000000E+00 0. -1.
         23    2    1    2    0    0  0.17143517870E+04  0.12920474892E+03  0.16354468752E+04  0.23745061298E+04  0.88864852775E+02 0.  0.
         11    1    3    3    0    0  0.25325259598E+03  0.19683465395E+02  0.19962943679E+03  0.32307310041E+03  0.00000000000E+00 0.  1.
        -11    1    3    3    0    0  0.14610991910E+04  0.10952128352E+03  0.14358174384E+04  0.20514330293E+04  0.00000000000E+00 0. -1.
         22    1    1    2    0    0 -0.17143517870E+04 -0.12920474892E+03 -0.12807130352E+04  0.21438101118E+04  0.00000000000E+00 0. -1.
<mgrwt>
<rscale>  0 0.45043696E+04</rscale>
<asrwt>0</asrwt>
<pdfrwt beam="1">  1        2 0.32027557E+00 0.45043696E+04</pdfrwt>
<pdfrwt beam="2">  1       -2 0.37485001E+00 0.45043696E+04</pdfrwt>
<totfact> 0.49238450E-02</totfact>
</mgrwt>
</event>
<event>
 6    1  0.2236204E-005  0.2804794E+04  0.7818608E-02  0.8301781E-01
         -2   -1    0    0    0  501 -0.00000000000E+00  0.00000000000E+00  0.73663998203E+03  0.73663998203E+03  0.00000000000E+00 0. -1.
          2   -1    0    0  501    0  0.00000000000E+00 -0.00000000000E+00 -0.26698492307E+04  0.26698492307E+04  0.00000000000E+00 0.  1.
         23    2    1    2    0    0 -0.27245412473E+03 -0.96848189391E+03 -0.21515149109E+04  0.23770010919E+04  0.94495238156E+02 0.  0.
         11    1    3    3    0    0 -0.19589173765E+03 -0.67016150619E+03 -0.15905532406E+04  0.17370519936E+04  0.00000000000E+00 0. -1.
        -11    1    3    3    0    0 -0.76562387075E+02 -0.29832038772E+03 -0.56096167026E+03  0.63994909825E+03  0.00000000000E+00 0.  1.
         22    1    1    2    0    0  0.27245412473E+03  0.96848189391E+03  0.21830566220E+03  0.10294881209E+04  0.00000000000E+00 0. -1.
<mgrwt>
<rscale>  0 0.28047942E+04</rscale>
<asrwt>0</asrwt>
<pdfrwt beam="1">  1        2 0.41074603E+00 0.28047942E+04</pdfrwt>
<pdfrwt beam="2">  1       -2 0.11332923E+00 0.28047942E+04</pdfrwt>
<totfact> 0.14705303E+00</totfact>
</mgrwt>
</event>
<event>
 6    1  0.2236204E-005  0.3052826E+04  0.7818608E-02  0.8228805E-01
         -2   -1    0    0    0  501 -0.00000000000E+00  0.00000000000E+00  0.63578197056E+03  0.63578197056E+03  0.00000000000E+00 0.  1.
          2   -1    0    0  501    0  0.00000000000E+00 -0.00000000000E+00 -0.36646795911E+04  0.36646795911E+04  0.00000000000E+00 0. -1.
         23    2    1    2    0    0  0.60710472075E+03 -0.90932190089E+03 -0.30134915931E+04  0.32069901139E+04  0.90617591091E+02 0.  0.
         11    1    3    3    0    0  0.53951830322E+03 -0.76987035091E+03 -0.25145881289E+04  0.26845733022E+04  0.00000000000E+00 0. -1.
        -11    1    3    3    0    0  0.67586417523E+02 -0.13945154997E+03 -0.49890346418E+03  0.52241681175E+03  0.00000000000E+00 0.  1.
         22    1    1    2    0    0 -0.60710472075E+03  0.90932190089E+03 -0.15406027470E+02  0.10934714478E+04  0.00000000000E+00 0.  1.
<mgrwt>
<rscale>  0 0.30528264E+04</rscale>
<asrwt>0</asrwt>
<pdfrwt beam="1">  1        2 0.56379688E+00 0.30528264E+04</pdfrwt>
<pdfrwt beam="2">  1       -2 0.97812607E-01 0.30528264E+04</pdfrwt>
<totfact> 0.45922889E-01</totfact>
</mgrwt>
</event>
<event>
 6    1  0.2236204E-005  0.1250574E+04  0.7818608E-02  0.9069706E-01
          2   -1    0    0  501    0  0.00000000000E+00  0.00000000000E+00  0.26806683166E+04  0.26806683166E+04  0.00000000000E+00 0. -1.
         -2   -1    0    0    0  501 -0.00000000000E+00 -0.00000000000E+00 -0.14585314106E+03  0.14585314106E+03  0.00000000000E+00 0.  1.
         23    2    1    2    0    0 -0.14696918808E+03  0.32721423135E+03  0.24224949421E+04  0.24506425805E+04  0.92185776982E+02 0.  0.
         13    1    3    3    0    0 -0.96162739783E+02  0.12257821383E+03  0.86180744552E+03  0.87577666342E+03  0.00000000000E+00 0. -1.
        -13    1    3    3    0    0 -0.50806448301E+02  0.20463601751E+03  0.15606874965E+04  0.15748659171E+04  0.00000000000E+00 0.  1.
         22    1    1    2    0    0  0.14696918808E+03 -0.32721423135E+03  0.11232023344E+03  0.37587887714E+03  0.00000000000E+00 0.  1.
<mgrwt>
<rscale>  0 0.12505741E+04</rscale>
<asrwt>0</asrwt>
<pdfrwt beam="1">  1        2 0.41241047E+00 0.12505741E+04</pdfrwt>
<pdfrwt beam="2">  1       -2 0.22438947E-01 0.12505741E+04</pdfrwt>
<totfact> 0.47108301E+01</totfact>
</mgrwt>
</event>
<event>
 6    1  0.2236204E-005  0.3603701E+04  0.7818608E-02  0.8089645E-01
         -2   -1    0    0    0  501 -0.00000000000E+00  0.00000000000E+00  0.10565189828E+04  0.10565189828E+04  0.00000000000E+00 0.  1.
          2   -1    0    0  501    0  0.00000000000E+00 -0.00000000000E+00 -0.30729830110E+04  0.30729830110E+04  0.00000000000E+00 0. -1.
         23    2    1    2    0    0 -0.14708246171E+04  0.44327478289E+03  0.67704409587E+02  0.15403755650E+04  0.91407914821E+02 0.  0.
         11    1    3    3    0    0 -0.33811681264E+03  0.10152464212E+03  0.54143696823E+02  0.35715790885E+03  0.00000000000E+00 0.  1.
        -11    1    3    3    0    0 -0.11327078044E+04  0.34175014077E+03  0.13560712765E+02  0.11832176562E+04  0.00000000000E+00 0. -1.
         22    1    1    2    0    0  0.14708246171E+04 -0.44327478289E+03 -0.20841684377E+04  0.25891264288E+04  0.00000000000E+00 0. -1.
<mgrwt>
<rscale>  0 0.36037008E+04</rscale>
<asrwt>0</asrwt>
<pdfrwt beam="1">  1        2 0.47276662E+00 0.36037008E+04</pdfrwt>
<pdfrwt beam="2">  1       -2 0.16254138E+00 0.36037008E+04</pdfrwt>
<totfact> 0.30755636E-01</totfact>
</mgrwt>
</event>
<event>
 6    1  0.2236204E-005  0.2549206E+04  0.7818608E-02  0.8385662E-01
         -1   -1    0    0    0  501 -0.00000000000E+00  0.00000000000E+00  0.12675175458E+04  0.12675175458E+04  0.00000000000E+00 0.  1.
          1   -1    0    0  501    0  0.00000000000E+00 -0.00000000000E+00 -0.12817277171E+04  0.12817277171E+04  0.00000000000E+00 0. -1.
         23    2    1    2    0    0  0.10030412406E+04 -0.50030592743E+03  0.59629957271E+03  0.12728754501E+04  0.90779842263E+02 0.  0.
         13    1    3    3    0    0  0.69968994327E+03 -0.31071718332E+03  0.37810017914E+03  0.85385650445E+03  0.00000000000E+00 0. -1.
        -13    1    3    3    0    0  0.30335129733E+03 -0.18958874411E+03  0.21819939357E+03  0.41901894568E+03  0.00000000000E+00 0.  1.
         22    1    1    2    0    0 -0.10030412406E+04  0.50030592743E+03 -0.61050974398E+03  0.12763698127E+04  0.00000000000E+00 0. -1.
<mgrwt>
<rscale>  0 0.25492057E+04</rscale>
<asrwt>0</asrwt>
<pdfrwt beam="1">  1        1 0.19718888E+00 0.25492057E+04</pdfrwt>
<pdfrwt beam="2">  1       -1 0.19500270E+00 0.25492057E+04</pdfrwt>
<totfact> 0.13444211E+00</totfact>
</mgrwt>
</event>
<event>
 6    1  0.2236204E-005  0.3309071E+04  0.7818608E-02  0.8160591E-01
         -1   -1    0    0    0  501 -0.00000000000E+00  0.00000000000E+00  0.25630733046E+04  0.25630733046E+04  0.00000000000E+00 0.  1.
          1   -1    0    0  501    0  0.00000000000E+00 -0.00000000000E+00 -0.10680490425E+04  0.10680490425E+04  0.00000000000E+00 0. -1.
         23    2    1    2    0    0  0.47085304554E+03  0.12840775123E+04  0.17672266226E+04  0.22366146301E+04  0.93794561436E+02 0.  0.
         11    1    3    3    0    0  0.40207369868E+03  0.10761611773E+04  0.14265408622E+04  0.18316126693E+04  0.00000000000E+00 0. -1.
        -11    1    3    3    0    0  0.68779346864E+02  0.20791633491E+03  0.34068576040E+03  0.40500196076E+03  0.00000000000E+00 0.  1.
         22    1    1    2    0    0 -0.47085304554E+03 -0.12840775123E+04 -0.27220236053E+03  0.13945077171E+04  0.00000000000E+00 0. -1.
<mgrwt>
<rscale>  0 0.33090712E+04</rscale>
<asrwt>0</asrwt>
<pdfrwt beam="1">  1        1 0.16431524E+00 0.33090712E+04</pdfrwt>
<pdfrwt beam="2">  1       -1 0.39431897E+00 0.33090712E+04</pdfrwt>
<totfact> 0.86860984E-02</totfact>
</mgrwt>
</event>
<event>
 6    1  0.2236204E-005  0.3285151E+04  0.7818608E-02  0.8166684E-01
         -2   -1    0    0    0  501 -0.00000000000E+00  0.00000000000E+00  0.86007452144E+03  0.86007452144E+03  0.00000000000E+00 0.  1.
          2   -1    0    0  501    0  0.00000000000E+00 -0.00000000000E+00 -0.31370010749E+04  0.31370010749E+04  0.00000000000E+00 0. -1.
         23    2    1    2    0    0  0.11845774599E+04  0.46913015020E+03 -0.23981361348E+04  0.27172323954E+04  0.94805657655E+02 0.  0.
         11    1    3    3    0    0  0.92705670905E+03  0.32974161513E+03 -0.18886027751E+04  0.21295502146E+04  0.00000000000E+00 0. -1.
        -11    1    3    3    0    0  0.25752075089E+03  0.13938853507E+03 -0.50953335978E+03  0.58768218075E+03  0.00000000000E+00 0.  1.
         22    1    1    2    0    0 -0.11845774599E+04 -0.46913015020E+03  0.12120958139E+03  0.12798432010E+04  0.00000000000E+00 0.  1.
<mgrwt>
<rscale>  0 0.32851513E+04</rscale>
<asrwt>0</asrwt>
<pdfrwt beam="1">  1        2 0.48261555E+00 0.32851513E+04</pdfrwt>
<pdfrwt beam="2">  1       -2 0.13231916E+00 0.32851513E+04</pdfrwt>
<totfact> 0.49424885E-01</totfact>
</mgrwt>
</event>
<event>
 6    1  0.2236204E-005  0.2157408E+04  0.7818608E-02  0.8536368E-01
          2   -1    0    0  501    0  0.00000000000E+00  0.00000000000E+00  0.19503681315E+04  0.19503681315E+04  0.00000000000E+00 0. -1.
         -2   -1    0    0    0  501 -0.00000000000E+00 -0.00000000000E+00 -0.59660640813E+03  0.59660640813E+03  0.00000000000E+00 0.  1.
         23    2    1    2    0    0  0.69967195534E+03 -0.17899390010E+03 -0.26467788727E+03  0.77470863558E+03  0.92409007540E+02 0.  0.
         13    1    3    3    0    0  0.39881379201E+02 -0.25268647294E+02 -0.37092802713E+02  0.60040860721E+02  0.00000000000E+00 0.  1.
        -13    1    3    3    0    0  0.65979057614E+03 -0.15372525281E+03 -0.22758508455E+03  0.71466777486E+03  0.00000000000E+00 0. -1.
         22    1    1    2    0    0 -0.69967195534E+03  0.17899390010E+03  0.16184396107E+04  0.17722659041E+04  0.00000000000E+00 0. -1.
<mgrwt>
<rscale>  0 0.21574078E+04</rscale>
<asrwt>0</asrwt>
<pdfrwt beam="1">  1        2 0.30005663E+00 0.21574078E+04</pdfrwt>
<pdfrwt beam="2">  1       -2 0.91785602E-01 0.21574078E+04</pdfrwt>
<totfact> 0.65941091E+00</totfact>
</mgrwt>
</event>
<event>
 6    1  0.2236204E-005  0.1765371E+04  0.7818608E-02  0.8724935E-01
         -2   -1    0    0    0  501 -0.00000000000E+00  0.00000000000E+00  0.30042509147E+03  0.30042509147E+03  0.00000000000E+00 0.  1.
          2   -1    0    0  501    0  0.00000000000E+00 -0.00000000000E+00 -0.25934371691E+04  0.25934371691E+04  0.00000000000E+00 0. -1.
         23    2    1    2    0    0 -0.59300237271E+03 -0.63846877840E+03 -0.13546026653E+04  0.16132739503E+04  0.91707486381E+02 0.  0.
         11    1    3    3    0    0 -0.42658393059E+03 -0.45570379406E+03 -0.89107614720E+03  0.10879597869E+04  0.00000000000E+00 0.  1.
        -11    1    3    3    0    0 -0.16641844213E+03 -0.18276498435E+03 -0.46352651808E+03  0.52531416348E+03  0.00000000000E+00 0. -1.
         22    1    1    2    0    0  0.59300237271E+03  0.63846877840E+03 -0.93840941232E+03  0.12805883102E+04  0.00000000000E+00 0.  1.
<mgrwt>
<rscale>  0 0.17653709E+04</rscale>
<asrwt>0</asrwt>
<pdfrwt beam="1">  1        2 0.39899033E+00 0.17653709E+04</pdfrwt>
<pdfrwt beam="2">  1       -2 0.46219245E-01 0.17653709E+04</pdfrwt>
<totfact> 0.12923321E+01</totfact>
</mgrwt>
</event>
<event>
 6    1  0.2236204E-005  0.8394588E+03  0.7818608E-02  0.9504595E-01
         -2   -1    0    0    0  501 -0.00000000000E+00  0.00000000000E+00  0.63559237086E+02  0.63559237086E+02  0.00000000000E+00 0.  1.
          2   -1    0    0  501    0  0.00000000000E+00 -0.00000000000E+00 -0.27717888159E+04  0.27717888159E+04  0.00000000000E+00 0. -1.
         23    2    1    2    0    0  0.17836157648E+03  0.64954560332E+02 -0.26155498182E+04  0.26241100713E+04  0.93919476274E+02 0.  0.
         13    1    3    3    0    0  0.61529545856E+02  0.20893486745E+02 -0.41847489978E+03  0.42348986357E+03  0.00000000000E+00 0. -1.
        -13    1    3    3    0    0  0.11683203063E+03  0.44061073587E+02 -0.21970749184E+04  0.22006202077E+04  0.00000000000E+00 0.  1.
         22    1    1    2    0    0 -0.17836157648E+03 -0.64954560332E+02 -0.92679760618E+02  0.21123798167E+03  0.00000000000E+00 0.  1.
<mgrwt>
<rscale>  0 0.83945883E+03</rscale>
<asrwt>0</asrwt>
<pdfrwt beam="1">  1        2 0.42642905E+00 0.83945883E+03</pdfrwt>
<pdfrwt beam="2">  1       -2 0.97783442E-02 0.83945883E+03</pdfrwt>
<totfact> 0.17757164E+02</totfact>
</mgrwt>
</event>
<event>
 6    1  0.2236204E-005  0.5254142E+04  0.7818608E-02  0.7790456E-01
          2   -1    0    0  501    0  0.00000000000E+00  0.00000000000E+00  0.38195468224E+04  0.38195468224E+04  0.00000000000E+00 0. -1.
         -2   -1    0    0    0  501 -0.00000000000E+00 -0.00000000000E+00 -0.18068904401E+04  0.18068904401E+04  0.00000000000E+00 0.  1.
         23    2    1    2    0    0 -0.42120415186E+03  0.19103793164E+04 -0.86974227909E+03  0.21428781468E+04  0.92266190290E+02 0.  0.
         13    1    3    3    0    0 -0.21221408678E+03  0.11677728226E+04 -0.53683533223E+03  0.13026589568E+04  0.00000000000E+00 0. -1.
        -13    1    3    3    0    0 -0.20899006508E+03  0.74260649378E+03 -0.33290694686E+03  0.84021918996E+03  0.00000000000E+00 0.  1.
         22    1    1    2    0    0  0.42120415186E+03 -0.19103793164E+04  0.28823986614E+04  0.34835591158E+04  0.00000000000E+00 0. -1.
<mgrwt>
<rscale>  0 0.52541422E+04</rscale>
<asrwt>0</asrwt>
<pdfrwt beam="1">  1        2 0.58762259E+00 0.52541422E+04</pdfrwt>
<pdfrwt beam="2">  1       -2 0.27798315E+00 0.52541422E+04</pdfrwt>
<totfact> 0.14615088E-02</totfact>
</mgrwt>
</event>
<event>
 6    1  0.2236204E-005  0.3666429E+04  0.7818608E-02  0.8075443E-01
          2   -1    0    0  501    0  0.00000000000E+00  0.00000000000E+00  0.57804640507E+04  0.57804640507E+04  0.00000000000E+00 0. -1.
         -2   -1    0    0    0  501 -0.00000000000E+00 -0.00000000000E+00 -0.58138491536E+03  0.58138491536E+03  0.00000000000E+00 0.  1.
         23    2    1    2    0    0  0.66375379061E+03  0.22383405506E+03  0.55385787516E+04  0.55834334163E+04  0.90572333741E+02 0.  0.
         13    1    3    3    0    0  0.43743814834E+03  0.19133836628E+03  0.38096536104E+04  0.38394560989E+04  0.00000000000E+00 0.  1.
        -13    1    3    3    0    0  0.22631564227E+03  0.32495688784E+02  0.17289251412E+04  0.17439773174E+04  0.00000000000E+00 0. -1.
         22    1    1    2    0    0 -0.66375379061E+03 -0.22383405506E+03 -0.33949961623E+03  0.77841554980E+03  0.00000000000E+00 0.  1.
<mgrwt>
<rscale>  0 0.36664286E+04</rscale>
<asrwt>0</asrwt>
<pdfrwt beam="1">  1        2 0.88930212E+00 0.36664286E+04</pdfrwt>
<pdfrwt beam="2">  1       -2 0.89443837E-01 0.36664286E+04</pdfrwt>
<totfact> 0.12799265E-03</totfact>
</mgrwt>
</event>
<event>
 6    1  0.2236204E-005  0.2432066E+04  0.7818608E-02  0.8427595E-01
         -2   -1    0    0    0  501 -0.00000000000E+00  0.00000000000E+00  0.58981103964E+03  0.58981103964E+03  0.00000000000E+00 0.  1.
          2   -1    0    0  501    0  0.00000000000E+00 -0.00000000000E+00 -0.25071354663E+04  0.25071354663E+04  0.00000000000E+00 0. -1.
         23    2    1    2    0    0 -0.46707030122E+03 -0.12689967999E+02  0.46726078316E+03  0.66701598749E+03  0.90895470279E+02 0.  0.
         11    1    3    3    0    0 -0.28175120044E+03 -0.39984216892E+02  0.32375886072E+03  0.43104788184E+03  0.00000000000E+00 0.  1.
        -11    1    3    3    0    0 -0.18531910078E+03  0.27294248893E+02  0.14350192244E+03  0.23596810565E+03  0.00000000000E+00 0. -1.
         22    1    1    2    0    0  0.46707030122E+03  0.12689967999E+02 -0.23845852099E+04  0.24299305185E+04  0.00000000000E+00 0. -1.
<mgrwt>
<rscale>  0 0.24320659E+04</rscale>
<asrwt>0</asrwt>
<pdfrwt beam="1">  1        2 0.38571315E+00 0.24320659E+04</pdfrwt>
<pdfrwt beam="2">  1       -2 0.90740160E-01 0.24320659E+04</pdfrwt>
<totfact> 0.32064446E+00</totfact>
</mgrwt>
</event>
<event>
 6    1  0.2236204E-005  0.1490445E+04  0.7818608E-02  0.8890832E-01
          2   -1    0    0  501    0  0.00000000000E+00  0.00000000000E+00  0.92480447354E+03  0.92480447354E+03  0.00000000000E+00 0. -1.
         -2   -1    0    0    0  501 -0.00000000000E+00 -0.00000000000E+00 -0.60051223339E+03  0.60051223339E+03  0.00000000000E+00 0.  1.
         23    2    1    2    0    0  0.52291292536E+03 -0.44442729842E+02 -0.37462967290E+03  0.65130016001E+03  0.91822779640E+02 0.  0.
         11    1    3    3    0    0  0.25968604563E+03 -0.67244484542E+02 -0.17768330172E+03  0.32176080977E+03  0.00000000000E+00 0.  1.
        -11    1    3    3    0    0  0.26322687974E+03  0.22801754700E+02 -0.19694637117E+03  0.32953935023E+03  0.00000000000E+00 0. -1.
         22    1    1    2    0    0 -0.52291292536E+03  0.44442729842E+02  0.69892191305E+03  0.87401654692E+03  0.00000000000E+00 0. -1.
<mgrwt>
<rscale>  0 0.14904448E+04</rscale>
<asrwt>0</asrwt>
<pdfrwt beam="1">  1        2 0.14227761E+00 0.14904448E+04</pdfrwt>
<pdfrwt beam="2">  1       -2 0.92386497E-01 0.14904448E+04</pdfrwt>
<totfact> 0.27142195E+01</totfact>
</mgrwt>
</event>
<event>
 6    1  0.2236204E-005  0.1969182E+04  0.7818608E-02  0.8621166E-01
          2   -1    0    0  501    0  0.00000000000E+00  0.00000000000E+00  0.35009577867E+04  0.35009577867E+04  0.00000000000E+00 0. -1.
         -2   -1    0    0    0  501 -0.00000000000E+00 -0.00000000000E+00 -0.27690114944E+03  0.27690114944E+03  0.00000000000E+00 0.  1.
         23    2    1    2    0    0  0.94179864246E+03 -0.99912269710E+02  0.21163659701E+04  0.23204826090E+04  0.93099275087E+02 0.  0.
         11    1    3    3    0    0  0.51353977832E+02 -0.19450666597E+02  0.16859085891E+03  0.17730887507E+03  0.00000000000E+00 0. -1.
        -11    1    3    3    0    0  0.89044466463E+03 -0.80461603113E+02  0.19477751112E+04  0.21431737340E+04  0.00000000000E+00 0.  1.
         22    1    1    2    0    0 -0.94179864246E+03  0.99912269710E+02  0.11076906672E+04  0.14573763271E+04  0.00000000000E+00 0.  1.
<mgrwt>
<rscale>  0 0.19691818E+04</rscale>
<asrwt>0</asrwt>
<pdfrwt beam="1">  1        2 0.53860886E+00 0.19691818E+04</pdfrwt>
<pdfrwt beam="2">  1       -2 0.42600179E-01 0.19691818E+04</pdfrwt>
<totfact> 0.39729673E+00</totfact>
</mgrwt>
</event>
<event>
 6    1  0.2236204E-005  0.3981630E+03  0.7818608E-02  0.1044418E+00
         -2   -1    0    0    0  501 -0.00000000000E+00  0.00000000000E+00  0.81053924886E+02  0.81053924886E+02  0.00000000000E+00 0.  1.
          2   -1    0    0  501    0  0.00000000000E+00 -0.00000000000E+00 -0.48897630696E+03  0.48897630696E+03  0.00000000000E+00 0. -1.
         23    2    1    2    0    0  0.53783616598E+02  0.10962405171E+03 -0.42059986569E+03  0.44726692822E+03  0.90737797669E+02 0.  0.
         11    1    3    3    0    0  0.14884920179E+02 -0.11174096614E+02 -0.11289917677E+03  0.11442309819E+03  0.00000000000E+00 0. -1.
        -11    1    3    3    0    0  0.38898696419E+02  0.12079814833E+03 -0.30770068892E+03  0.33284383002E+03  0.00000000000E+00 0.  1.
         22    1    1    2    0    0 -0.53783616598E+02 -0.10962405171E+03  0.12677483616E+02  0.12276330363E+03  0.00000000000E+00 0.  1.
<mgrwt>
<rscale>  0 0.39816303E+03</rscale>
<asrwt>0</asrwt>
<pdfrwt beam="1">  1        2 0.75227124E-01 0.39816303E+03</pdfrwt>
<pdfrwt beam="2">  1       -2 0.12469835E-01 0.39816303E+03</pdfrwt>
<totfact> 0.29818971E+03</totfact>
</mgrwt>
</event>
<event>
 6    1  0.2236204E-005  0.6514061E+04  0.7818608E-02  0.7629738E-01
         -1   -1    0    0    0  501 -0.00000000000E+00  0.00000000000E+00  0.37400444908E+04  0.37400444908E+04  0.00000000000E+00 0.  1.
          1   -1    0    0  501    0  0.00000000000E+00 -0.00000000000E+00 -0.28363961701E+04  0.28363961701E+04  0.00000000000E+00 0. -1.
         23    2    1    2    0    0  0.18047257587E+04 -0.14616382119E+04  0.27564479547E+04  0.36055337606E+04  0.91907811022E+02 0.  0.
         11    1    3    3    0    0  0.93571908607E+03 -0.70371228114E+03  0.13600050303E+04  0.17945458660E+04  0.00000000000E+00 0. -1.
        -11    1    3    3    0    0  0.86900667261E+03 -0.75792593073E+03  0.13964429243E+04  0.18109878946E+04  0.00000000000E+00 0.  1.
         22    1    1    2    0    0 -0.18047257587E+04  0.14616382119E+04 -0.18527996340E+04  0.29709069003E+04  0.00000000000E+00 0. -1.
<mgrwt>
<rscale>  0 0.65140611E+04</rscale>
<asrwt>0</asrwt>
<pdfrwt beam="1">  1        1 0.43636864E+00 0.65140611E+04</pdfrwt>
<pdfrwt beam="2">  1       -1 0.57539146E+00 0.65140611E+04</pdfrwt>
<totfact> 0.29011987E-04</totfact>
</mgrwt>
</event>
<event>
 6    1  0.2287129E-005  0.2460787E+04  0.7818608E-02  0.8417090E-01
          2   -1    0    0  501    0  0.00000000000E+00  0.00000000000E+00  0.19172581305E+04  0.19172581305E+04  0.00000000000E+00 0.  1.
         -2   -1    0    0    0  501 -0.00000000000E+00 -0.00000000000E+00 -0.78960073514E+03  0.78960073514E+03  0.00000000000E+00 0. -1.
         23    2    1    2    0    0 -0.36004226304E+03  0.11096511040E+04  0.14046781436E+03  0.11786248284E+04  0.92028666058E+02 0.  0.
         11    1    3    3    0    0 -0.12653818640E+03  0.31461021572E+03  0.59565546827E+01  0.33915627813E+03  0.00000000000E+00 0. -1.
        -11    1    3    3    0    0 -0.23350407664E+03  0.79504088830E+03  0.13451125967E+03  0.83946855025E+03  0.00000000000E+00 0.  1.
         22    1    1    2    0    0  0.36004226304E+03 -0.11096511040E+04  0.98718958103E+03  0.15282340373E+04  0.00000000000E+00 0.  1.
<mgrwt>
<rscale>  0 0.24607872E+04</rscale>
<asrwt>0</asrwt>
<pdfrwt beam="1">  1        2 0.29496279E+00 0.24607872E+04</pdfrwt>
<pdfrwt beam="2">  1       -2 0.12147704E+00 0.24607872E+04</pdfrwt>
<totfact> 0.34232374E+00</totfact>
</mgrwt>
</event>
<event>
 6    1  0.2236204E-005  0.2346959E+04  0.7818608E-02  0.8459633E-01
         -2   -1    0    0    0  501 -0.00000000000E+00  0.00000000000E+00  0.10744684355E+04  0.10744684355E+04  0.00000000000E+00 0.  1.
          2   -1    0    0  501    0  0.00000000000E+00 -0.00000000000E+00 -0.12816141651E+04  0.12816141651E+04  0.00000000000E+00 0. -1.
         23    2    1    2    0    0 -0.17732288317E+03 -0.31467822561E+03 -0.12226887264E+04  0.12782174100E+04  0.91685522474E+02 0.  0.
         11    1    3    3    0    0 -0.11453327402E+03 -0.18016492851E+03 -0.56511835044E+03  0.60409934806E+03  0.00000000000E+00 0. -1.
        -11    1    3    3    0    0 -0.62789609151E+02 -0.13451329711E+03 -0.65757037599E+03  0.67411806198E+03  0.00000000000E+00 0.  1.
         22    1    1    2    0    0  0.17732288317E+03  0.31467822561E+03  0.10155429968E+04  0.10778651905E+04  0.00000000000E+00 0.  1.
<mgrwt>
<rscale>  0 0.23469589E+04</rscale>
<asrwt>0</asrwt>
<pdfrwt beam="1">  1        2 0.19717141E+00 0.23469589E+04</pdfrwt>
<pdfrwt beam="2">  1       -2 0.16530284E+00 0.23469589E+04</pdfrwt>
<totfact> 0.35257492E+00</totfact>
</mgrwt>
</event>
<event>
 6    1  0.2236204E-005  0.1649220E+04  0.7818608E-02  0.8790868E-01
         -2   -1    0    0    0  501 -0.00000000000E+00  0.00000000000E+00  0.30056605916E+03  0.30056605916E+03  0.00000000000E+00 0.  1.
          2   -1    0    0  501    0  0.00000000000E+00 -0.00000000000E+00 -0.22623363723E+04  0.22623363723E+04  0.00000000000E+00 0. -1.
         23    2    1    2    0    0  0.42132522065E+03 -0.22583031112E+03 -0.20236227251E+04  0.20808858427E+04  0.80763144384E+02 0.  0.
         11    1    3    3    0    0  0.22157030802E+03 -0.73090264761E+02 -0.98605993966E+03  0.10132866291E+04  0.00000000000E+00 0. -1.
        -11    1    3    3    0    0  0.19975491264E+03 -0.15274004636E+03 -0.10375627855E+04  0.10675992135E+04  0.00000000000E+00 0.  1.
         22    1    1    2    0    0 -0.42132522065E+03  0.22583031112E+03  0.61852412020E+02  0.48201658877E+03  0.00000000000E+00 0.  1.
<mgrwt>
<rscale>  0 0.16492198E+04</rscale>
<asrwt>0</asrwt>
<pdfrwt beam="1">  1        2 0.34805176E+00 0.16492198E+04</pdfrwt>
<pdfrwt beam="2">  1       -2 0.46240931E-01 0.16492198E+04</pdfrwt>
<totfact> 0.20189374E+01</totfact>
</mgrwt>
</event>
<event>
 6    1  0.2236204E-005  0.1527956E+04  0.7818608E-02  0.8866072E-01
          2   -1    0    0  501    0  0.00000000000E+00  0.00000000000E+00  0.10653745532E+04  0.10653745532E+04  0.00000000000E+00 0. -1.
         -2   -1    0    0    0  501 -0.00000000000E+00 -0.00000000000E+00 -0.54784706577E+03  0.54784706577E+03  0.00000000000E+00 0.  1.
         23    2    1    2    0    0 -0.43858016211E+03 -0.24148426422E+03  0.86507875599E+03  0.10037471792E+04  0.92086574598E+02 0.  0.
         13    1    3    3    0    0 -0.13494272751E+03 -0.92914883955E+02  0.36560220951E+03  0.40063411109E+03  0.00000000000E+00 0. -1.
        -13    1    3    3    0    0 -0.30363743460E+03 -0.14856938026E+03  0.49947654648E+03  0.60311306811E+03  0.00000000000E+00 0.  1.
         22    1    1    2    0    0  0.43858016211E+03  0.24148426422E+03 -0.34755126856E+03  0.60947443978E+03  0.00000000000E+00 0.  1.
<mgrwt>
<rscale>  0 0.15279559E+04</rscale>
<asrwt>0</asrwt>
<pdfrwt beam="1">  1        2 0.16390378E+00 0.15279559E+04</pdfrwt>
<pdfrwt beam="2">  1       -2 0.84284164E-01 0.15279559E+04</pdfrwt>
<totfact> 0.27119463E+01</totfact>
</mgrwt>
</event>
<event>
 6    1  0.2236204E-005  0.3963524E+04  0.7818608E-02  0.8011946E-01
         -2   -1    0    0    0  501 -0.00000000000E+00  0.00000000000E+00  0.11574531233E+04  0.11574531233E+04  0.00000000000E+00 0.  1.
          2   -1    0    0  501    0  0.00000000000E+00 -0.00000000000E+00 -0.33931228299E+04  0.33931228299E+04  0.00000000000E+00 0. -1.
         23    2    1    2    0    0  0.47001818537E+03 -0.12553311867E+04  0.55571437440E+03  0.14540297207E+04  0.92792670747E+02 0.  0.
         13    1    3    3    0    0  0.10211519121E+03 -0.19770296492E+03  0.68345576359E+02  0.23277691557E+03  0.00000000000E+00 0.  1.
        -13    1    3    3    0    0  0.36790299415E+03 -0.10576282218E+04  0.48736879804E+03  0.12212528051E+04  0.00000000000E+00 0. -1.
         22    1    1    2    0    0 -0.47001818537E+03  0.12553311867E+04 -0.27913840809E+04  0.30965462325E+04  0.00000000000E+00 0. -1.
<mgrwt>
<rscale>  0 0.39635240E+04</rscale>
<asrwt>0</asrwt>
<pdfrwt beam="1">  1        2 0.52201888E+00 0.39635240E+04</pdfrwt>
<pdfrwt beam="2">  1       -2 0.17806972E+00 0.39635240E+04</pdfrwt>
<totfact> 0.14238342E-01</totfact>
</mgrwt>
</event>
<event>
 6    1  0.2236204E-005  0.3474903E+04  0.7818608E-02  0.8119763E-01
          2   -1    0    0  501    0  0.00000000000E+00  0.00000000000E+00  0.44748287522E+04  0.44748287522E+04  0.00000000000E+00 0.  1.
         -2   -1    0    0    0  501 -0.00000000000E+00 -0.00000000000E+00 -0.67460408026E+03  0.67460408026E+03  0.00000000000E+00 0. -1.
         23    2    1    2    0    0  0.10755601873E+04  0.12075714426E+04  0.96235498974E+03  0.18831562308E+04  0.71356555910E+02 0.  0.
         11    1    3    3    0    0  0.55427161039E+03  0.57503122502E+03  0.49455354037E+03  0.93939402389E+03  0.00000000000E+00 0.  1.
        -11    1    3    3    0    0  0.52128857686E+03  0.63254021754E+03  0.46780144937E+03  0.94376220692E+03  0.00000000000E+00 0. -1.
         22    1    1    2    0    0 -0.10755601873E+04 -0.12075714426E+04  0.28378696822E+04  0.32662766017E+04  0.00000000000E+00 0.  1.
<mgrwt>
<rscale>  0 0.34749030E+04</rscale>
<asrwt>0</asrwt>
<pdfrwt beam="1">  1        2 0.68843518E+00 0.34749030E+04</pdfrwt>
<pdfrwt beam="2">  1       -2 0.10378525E+00 0.34749030E+04</pdfrwt>
<totfact> 0.80686627E-02</totfact>
</mgrwt>
</event>
<event>
 6    1  0.2236204E-005  0.5239230E+04  0.7818608E-02  0.7792627E-01
          2   -1    0    0  501    0  0.00000000000E+00  0.00000000000E+00  0.25310612628E+04  0.25310612628E+04  0.00000000000E+00 0. -1.
         -2   -1    0    0    0  501 -0.00000000000E+00 -0.00000000000E+00 -0.27112669587E+04  0.27112669587E+04  0.00000000000E+00 0.  1.
         23    2    1    2    0    0  0.14861790641E+04 -0.84343479460E+03 -0.20757359549E+04  0.26902417366E+04  0.92792152440E+02 0.  0.
         11    1    3    3    0    0  0.76598635490E+03 -0.38136482127E+03 -0.10379137266E+04  0.13451539416E+04  0.00000000000E+00 0. -1.
        -11    1    3    3    0    0  0.72019270917E+03 -0.46206997333E+03 -0.10378222283E+04  0.13450877950E+04  0.00000000000E+00 0.  1.
         22    1    1    2    0    0 -0.14861790641E+04  0.84343479460E+03  0.18955302591E+04  0.25520864849E+04  0.00000000000E+00 0. -1.
<mgrwt>
<rscale>  0 0.52392300E+04</rscale>
<asrwt>0</asrwt>
<pdfrwt beam="1">  1        2 0.38939404E+00 0.52392300E+04</pdfrwt>
<pdfrwt beam="2">  1       -2 0.41711799E+00 0.52392300E+04</pdfrwt>
<totfact> 0.13686043E-02</totfact>
</mgrwt>
</event>
<event>
 6    1  0.2236204E-005  0.9473129E+03  0.7818608E-02  0.9368297E-01
          2   -1    0    0  501    0  0.00000000000E+00  0.00000000000E+00  0.98183062498E+03  0.98183062498E+03  0.00000000000E+00 0. -1.
         -2   -1    0    0    0  501 -0.00000000000E+00 -0.00000000000E+00 -0.22850216502E+03  0.22850216502E+03  0.00000000000E+00 0.  1.
         23    2    1    2    0    0 -0.15200690094E+03 -0.16561299366E+03  0.90604215809E+03  0.93856959308E+03  0.97297107915E+02 0.  0.
         13    1    3    3    0    0 -0.21255984849E+02 -0.69790218357E+02  0.41775370774E+03  0.42407623348E+03  0.00000000000E+00 0. -1.
        -13    1    3    3    0    0 -0.13075091610E+03 -0.95822775300E+02  0.48828845035E+03  0.51449335960E+03  0.00000000000E+00 0.  1.
         22    1    1    2    0    0  0.15200690094E+03  0.16561299366E+03 -0.15271369813E+03  0.27176319692E+03  0.00000000000E+00 0.  1.
<mgrwt>
<rscale>  0 0.94731288E+03</rscale>
<asrwt>0</asrwt>
<pdfrwt beam="1">  1        2 0.15105086E+00 0.94731288E+03</pdfrwt>
<pdfrwt beam="2">  1       -2 0.35154180E-01 0.94731288E+03</pdfrwt>
<totfact> 0.19651294E+02</totfact>
</mgrwt>
</event>
<event>
 6    1  0.2236204E-005  0.4590069E+04  0.7818608E-02  0.7895055E-01
          2   -1    0    0  501    0  0.00000000000E+00  0.00000000000E+00  0.20594014504E+04  0.20594014504E+04  0.00000000000E+00 0. -1.
         -2   -1    0    0    0  501 -0.00000000000E+00 -0.00000000000E+00 -0.25576280610E+04  0.25576280610E+04  0.00000000000E+00 0.  1.
         23    2    1    2    0    0 -0.12802867846E+04  0.48109872041E+03  0.16034361618E+04  0.21095254458E+04  0.92194641782E+02 0.  0.
         11    1    3    3    0    0 -0.75524627249E+03  0.33129419408E+03  0.95276740525E+03  0.12601263840E+04  0.00000000000E+00 0.  1.
        -11    1    3    3    0    0 -0.52504051211E+03  0.14980452633E+03  0.65066875659E+03  0.84939906185E+03  0.00000000000E+00 0. -1.
         22    1    1    2    0    0  0.12802867846E+04 -0.48109872041E+03 -0.21016627724E+04  0.25075040655E+04  0.00000000000E+00 0.  1.
<mgrwt>
<rscale>  0 0.45900688E+04</rscale>
<asrwt>0</asrwt>
<pdfrwt beam="1">  1        2 0.31683099E+00 0.45900688E+04</pdfrwt>
<pdfrwt beam="2">  1       -2 0.39348124E+00 0.45900688E+04</pdfrwt>
<totfact> 0.38131132E-02</totfact>
</mgrwt>
</event>
<event>
 6    1  0.2236204E-005  0.3406399E+04  0.7818608E-02  0.8136338E-01
         -2   -1    0    0    0  501 -0.00000000000E+00  0.00000000000E+00  0.77087719416E+03  0.77087719416E+03  0.00000000000E+00 0.  1.
          2   -1    0    0  501    0  0.00000000000E+00 -0.00000000000E+00 -0.37631005912E+04  0.37631005912E+04  0.00000000000E+00 0. -1.
         23    2    1    2    0    0 -0.65678962258E+03  0.90033123516E+03 -0.32093921620E+04  0.33985786425E+04  0.90386935601E+02 0.  0.
         11    1    3    3    0    0 -0.21904214348E+03  0.37475439166E+03 -0.12567493060E+04  0.13296011179E+04  0.00000000000E+00 0. -1.
        -11    1    3    3    0    0 -0.43774747910E+03  0.52557684350E+03 -0.19526428560E+04  0.20689775245E+04  0.00000000000E+00 0.  1.
         22    1    1    2    0    0  0.65678962258E+03 -0.90033123516E+03  0.21716876493E+03  0.11353991429E+04  0.00000000000E+00 0.  1.
<mgrwt>
<rscale>  0 0.34063989E+04</rscale>
<asrwt>0</asrwt>
<pdfrwt beam="1">  1        2 0.57893857E+00 0.34063989E+04</pdfrwt>
<pdfrwt beam="2">  1       -2 0.11859649E+00 0.34063989E+04</pdfrwt>
<totfact> 0.23663822E-01</totfact>
</mgrwt>
</event>
<event>
 6    1  0.2236204E-005  0.3472532E+04  0.7818608E-02  0.8120331E-01
         -2   -1    0    0    0  501 -0.00000000000E+00  0.00000000000E+00  0.26664245691E+04  0.26664245691E+04  0.00000000000E+00 0.  1.
          2   -1    0    0  501    0  0.00000000000E+00 -0.00000000000E+00 -0.11305847278E+04  0.11305847278E+04  0.00000000000E+00 0. -1.
         23    2    1    2    0    0  0.81719012930E+03  0.83460465240E+03 -0.63433874799E+03  0.13324525939E+04  0.93164556144E+02 0.  0.
         11    1    3    3    0    0  0.45147087130E+03  0.49416628149E+03 -0.40832103402E+03  0.78406143141E+03  0.00000000000E+00 0. -1.
        -11    1    3    3    0    0  0.36571925800E+03  0.34043837091E+03 -0.22601771397E+03  0.54839116248E+03  0.00000000000E+00 0.  1.
         22    1    1    2    0    0 -0.81719012930E+03 -0.83460465240E+03  0.21701785893E+04  0.24645567031E+04  0.00000000000E+00 0.  1.
<mgrwt>
<rscale>  0 0.34725316E+04</rscale>
<asrwt>0</asrwt>
<pdfrwt beam="1">  1        2 0.17393611E+00 0.34725316E+04</pdfrwt>
<pdfrwt beam="2">  1       -2 0.41021916E+00 0.34725316E+04</pdfrwt>
<totfact> 0.10918520E-01</totfact>
</mgrwt>
</event>
<event>
 6    1  0.2236204E-005  0.9643822E+03  0.7818608E-02  0.9348496E-01
         -2   -1    0    0    0  501 -0.00000000000E+00  0.00000000000E+00  0.13453255534E+04  0.13453255534E+04  0.00000000000E+00 0.  1.
          2   -1    0    0  501    0  0.00000000000E+00 -0.00000000000E+00 -0.17282676005E+03  0.17282676005E+03  0.00000000000E+00 0. -1.
         23    2    1    2    0    0 -0.19101399370E+03 -0.33192696841E+03  0.14097084517E+03  0.41782883100E+03  0.89701140948E+02 0.  0.
         13    1    3    3    0    0 -0.11230598301E+03 -0.21535920758E+03  0.43610362047E+02  0.24676727049E+03  0.00000000000E+00 0. -1.
        -13    1    3    3    0    0 -0.78708010690E+02 -0.11656776082E+03  0.97360483121E+02  0.17106156051E+03  0.00000000000E+00 0.  1.
         22    1    1    2    0    0  0.19101399370E+03  0.33192696841E+03  0.10315279482E+04  0.11003234825E+04  0.00000000000E+00 0. -1.
<mgrwt>
<rscale>  0 0.96438220E+03</rscale>
<asrwt>0</asrwt>
<pdfrwt beam="1">  1        2 0.26588733E-01 0.96438220E+03</pdfrwt>
<pdfrwt beam="2">  1       -2 0.20697315E+00 0.96438220E+03</pdfrwt>
<totfact> 0.24537208E+01</totfact>
</mgrwt>
</event>
<event>
 6    1  0.2236204E-005  0.3065976E+04  0.7818608E-02  0.8225138E-01
         -1   -1    0    0    0  501 -0.00000000000E+00  0.00000000000E+00  0.12092917901E+04  0.12092917901E+04  0.00000000000E+00 0.  1.
          1   -1    0    0  501    0  0.00000000000E+00 -0.00000000000E+00 -0.19433287325E+04  0.19433287325E+04  0.00000000000E+00 0. -1.
         23    2    1    2    0    0 -0.79809751955E+03 -0.12504445633E+04 -0.75927519362E+03  0.16689735882E+04  0.91666579661E+02 0.  0.
         11    1    3    3    0    0 -0.44665840029E+03 -0.66120766632E+03 -0.45387971220E+03  0.91799024924E+03  0.00000000000E+00 0. -1.
        -11    1    3    3    0    0 -0.35143911926E+03 -0.58923689700E+03 -0.30539548143E+03  0.75098333897E+03  0.00000000000E+00 0.  1.
         22    1    1    2    0    0  0.79809751955E+03  0.12504445633E+04  0.25238251205E+02  0.14836469344E+04  0.00000000000E+00 0.  1.
<mgrwt>
<rscale>  0 0.30659755E+04</rscale>
<asrwt>0</asrwt>
<pdfrwt beam="1">  1        1 0.29897365E+00 0.30659755E+04</pdfrwt>
<pdfrwt beam="2">  1       -1 0.18604489E+00 0.30659755E+04</pdfrwt>
<totfact> 0.51921641E-01</totfact>
</mgrwt>
</event>
<event>
 6    1  0.2236204E-005  0.4237510E+04  0.7818608E-02  0.7958275E-01
          2   -1    0    0  501    0  0.00000000000E+00  0.00000000000E+00  0.28105088230E+04  0.28105088230E+04  0.00000000000E+00 0. -1.
         -2   -1    0    0    0  501 -0.00000000000E+00 -0.00000000000E+00 -0.15972631757E+04  0.15972631757E+04  0.00000000000E+00 0.  1.
         23    2    1    2    0    0  0.20600736973E+04  0.18145234045E+03  0.13248068124E+03  0.20743450121E+04  0.92344509609E+02 0.  0.
         13    1    3    3    0    0  0.38185362236E+03  0.64531010367E+02  0.43534277644E+02  0.38970716383E+03  0.00000000000E+00 0. -1.
        -13    1    3    3    0    0  0.16782200749E+04  0.11692133008E+03  0.88946403595E+02  0.16846378483E+04  0.00000000000E+00 0.  1.
         22    1    1    2    0    0 -0.20600736973E+04 -0.18145234045E+03  0.10807649660E+04  0.23334269866E+04  0.00000000000E+00 0. -1.
<mgrwt>
<rscale>  0 0.42375098E+04</rscale>
<asrwt>0</asrwt>
<pdfrwt beam="1">  1        2 0.43238597E+00 0.42375098E+04</pdfrwt>
<pdfrwt beam="2">  1       -2 0.24573280E+00 0.42375098E+04</pdfrwt>
<totfact> 0.12037237E-01</totfact>
</mgrwt>
</event>
<event>
 6    1  0.2236204E-005  0.2897133E+04  0.7818608E-02  0.8273731E-01
          2   -1    0    0  501    0  0.00000000000E+00  0.00000000000E+00  0.11520402452E+04  0.11520402452E+04  0.00000000000E+00 0. -1.
         -2   -1    0    0    0  501 -0.00000000000E+00 -0.00000000000E+00 -0.18214166882E+04  0.18214166882E+04  0.00000000000E+00 0.  1.
         23    2    1    2    0    0 -0.61092759441E+03  0.12642836191E+04  0.23958248612E+02  0.14074561066E+04  0.93343982442E+02 0.  0.
         13    1    3    3    0    0 -0.51753562159E+03  0.10486784233E+04  0.53433733709E+02  0.11706514080E+04  0.00000000000E+00 0.  1.
        -13    1    3    3    0    0 -0.93391972812E+02  0.21560519585E+03 -0.29475485097E+02  0.23680469862E+03  0.00000000000E+00 0. -1.
         22    1    1    2    0    0  0.61092759441E+03 -0.12642836191E+04 -0.69333469154E+03  0.15660008268E+04  0.00000000000E+00 0.  1.
<mgrwt>
<rscale>  0 0.28971333E+04</rscale>
<asrwt>0</asrwt>
<pdfrwt beam="1">  1        2 0.17723696E+00 0.28971333E+04</pdfrwt>
<pdfrwt beam="2">  1       -2 0.28021795E+00 0.28971333E+04</pdfrwt>
<totfact> 0.73370308E-01</totfact>
</mgrwt>
</event>
<event>
 6    1  0.2236204E-005  0.1964237E+04  0.7818608E-02  0.8623526E-01
          1   -1    0    0  501    0  0.00000000000E+00  0.00000000000E+00  0.70361544857E+03  0.70361544857E+03  0.00000000000E+00 0. -1.
         -1   -1    0    0    0  501 -0.00000000000E+00 -0.00000000000E+00 -0.13708575574E+04  0.13708575574E+04  0.00000000000E+00 0.  1.
         23    2    1    2    0    0 -0.11747589114E+03  0.63787069998E+03 -0.11102069479E+04  0.12890448020E+04  0.91637434564E+02 0.  0.
         11    1    3    3    0    0 -0.45471513811E+02  0.12756013720E+03 -0.17549330877E+03  0.22166900684E+03  0.00000000000E+00 0.  1.
        -11    1    3    3    0    0 -0.72004377326E+02  0.51031056278E+03 -0.93471363916E+03  0.10673757952E+04  0.00000000000E+00 0. -1.
         22    1    1    2    0    0  0.11747589114E+03 -0.63787069998E+03  0.44296483911E+03  0.78542820396E+03  0.00000000000E+00 0. -1.
<mgrwt>
<rscale>  0 0.19642368E+04</rscale>
<asrwt>0</asrwt>
<pdfrwt beam="1">  1        1 0.10824853E+00 0.19642368E+04</pdfrwt>
<pdfrwt beam="2">  1       -1 0.21090116E+00 0.19642368E+04</pdfrwt>
<totfact> 0.31878340E+00</totfact>
</mgrwt>
</event>
<event>
 6    1  0.2812852E-005  0.4032943E+04  0.7818608E-02  0.7997934E-01
          2   -1    0    0  501    0  0.00000000000E+00  0.00000000000E+00  0.16475744554E+04  0.16475744554E+04  0.00000000000E+00 0. -1.
         -2   -1    0    0    0  501 -0.00000000000E+00 -0.00000000000E+00 -0.24679660163E+04  0.24679660163E+04  0.00000000000E+00 0.  1.
         23    2    1    2    0    0  0.87188566110E+03  0.11529210644E+04  0.10227829548E+04  0.17731690490E+04  0.92908109569E+02 0.  0.
         13    1    3    3    0    0  0.48010129290E+03  0.69819372810E+03  0.56772459314E+03  0.10199426195E+04  0.00000000000E+00 0. -1.
        -13    1    3    3    0    0  0.39178436820E+03  0.45472733631E+03  0.45505836168E+03  0.75322642949E+03  0.00000000000E+00 0.  1.
         22    1    1    2    0    0 -0.87188566110E+03 -0.11529210644E+04 -0.18431745157E+04  0.23423714227E+04  0.00000000000E+00 0. -1.
<mgrwt>
<rscale>  0 0.40329432E+04</rscale>
<asrwt>0</asrwt>
<pdfrwt beam="1">  1        2 0.25347299E+00 0.40329432E+04</pdfrwt>
<pdfrwt beam="2">  1       -2 0.37968708E+00 0.40329432E+04</pdfrwt>
<totfact> 0.82983004E-02</totfact>
</mgrwt>
</event>
<event>
 6    1  0.2236204E-005  0.4164265E+04  0.7818608E-02  0.7972205E-01
          2   -1    0    0  501    0  0.00000000000E+00  0.00000000000E+00  0.33038756899E+04  0.33038756899E+04  0.00000000000E+00 0.  1.
         -2   -1    0    0    0  501 -0.00000000000E+00 -0.00000000000E+00 -0.13121786612E+04  0.13121786612E+04  0.00000000000E+00 0. -1.
         23    2    1    2    0    0  0.60745738672E+02  0.12001235919E+04  0.28798148668E+04  0.31218187690E+04  0.91826353559E+02 0.  0.
         13    1    3    3    0    0  0.25769361344E+02  0.98989411099E+02  0.28569316870E+03  0.30345271483E+03  0.00000000000E+00 0.  1.
        -13    1    3    3    0    0  0.34976377327E+02  0.11011341808E+04  0.25941216981E+04  0.28183660542E+04  0.00000000000E+00 0. -1.
         22    1    1    2    0    0 -0.60745738672E+02 -0.12001235919E+04 -0.88811783804E+03  0.14942355821E+04  0.00000000000E+00 0. -1.
<mgrwt>
<rscale>  0 0.41642647E+04</rscale>
<asrwt>0</asrwt>
<pdfrwt beam="1">  1        2 0.50828857E+00 0.41642647E+04</pdfrwt>
<pdfrwt beam="2">  1       -2 0.20187364E+00 0.41642647E+04</pdfrwt>
<totfact> 0.11130528E-01</totfact>
</mgrwt>
</event>
<event>
 6    1  0.2236204E-005  0.1922810E+04  0.7818608E-02  0.8643585E-01
         -2   -1    0    0    0  501 -0.00000000000E+00  0.00000000000E+00  0.25552537911E+03  0.25552537911E+03  0.00000000000E+00 0. -1.
          2   -1    0    0  501    0  0.00000000000E+00 -0.00000000000E+00 -0.36172503335E+04  0.36172503335E+04  0.00000000000E+00 0.  1.
         23    2    1    2    0    0  0.48413438251E+02  0.86281914792E+03 -0.25232558803E+04  0.26686863757E+04  0.90917498055E+02 0.  0.
         13    1    3    3    0    0  0.28380582759E+02  0.57154745667E+03 -0.17980317304E+04  0.18868995883E+04  0.00000000000E+00 0.  1.
        -13    1    3    3    0    0  0.20032855492E+02  0.29127169124E+03 -0.72522414986E+03  0.78178678740E+03  0.00000000000E+00 0. -1.
         22    1    1    2    0    0 -0.48413438251E+02 -0.86281914792E+03 -0.83846907407E+03  0.12040893369E+04  0.00000000000E+00 0. -1.
<mgrwt>
<rscale>  0 0.19228097E+04</rscale>
<asrwt>0</asrwt>
<pdfrwt beam="1">  1        2 0.55650002E+00 0.19228097E+04</pdfrwt>
<pdfrwt beam="2">  1       -2 0.39311599E-01 0.19228097E+04</pdfrwt>
<totfact> 0.38671961E+00</totfact>
</mgrwt>
</event>
<event>
 6    1  0.2236204E-005  0.3352295E+04  0.7818608E-02  0.8149715E-01
          2   -1    0    0  501    0  0.00000000000E+00  0.00000000000E+00  0.18361874001E+04  0.18361874001E+04  0.00000000000E+00 0. -1.
         -2   -1    0    0    0  501 -0.00000000000E+00 -0.00000000000E+00 -0.15300563800E+04  0.15300563800E+04  0.00000000000E+00 0.  1.
         23    2    1    2    0    0 -0.11983817153E+04 -0.11534860324E+04 -0.43992721936E+02  0.16664686782E+04  0.92378208318E+02 0.  0.
         13    1    3    3    0    0 -0.37557644500E+03 -0.30872286417E+03  0.49640389570E+01  0.48620172212E+03  0.00000000000E+00 0. -1.
        -13    1    3    3    0    0 -0.82280527030E+03 -0.84476316819E+03 -0.48956760893E+02  0.11802669561E+04  0.00000000000E+00 0.  1.
         22    1    1    2    0    0  0.11983817153E+04  0.11534860324E+04  0.35012374196E+03  0.16997751019E+04  0.00000000000E+00 0.  1.
<mgrwt>
<rscale>  0 0.33522949E+04</rscale>
<asrwt>0</asrwt>
<pdfrwt beam="1">  1        2 0.28249037E+00 0.33522949E+04</pdfrwt>
<pdfrwt beam="2">  1       -2 0.23539329E+00 0.33522949E+04</pdfrwt>
<totfact> 0.54215145E-01</totfact>
</mgrwt>
</event>
<event>
 6    1  0.2236204E-005  0.1770008E+04  0.7818608E-02  0.8722413E-01
          1   -1    0    0  501    0  0.00000000000E+00  0.00000000000E+00  0.21002711731E+04  0.21002711731E+04  0.00000000000E+00 0. -1.
         -1   -1    0    0    0  501 -0.00000000000E+00 -0.00000000000E+00 -0.37291970825E+03  0.37291970825E+03  0.00000000000E+00 0.  1.
         23    2    1    2    0    0 -0.33017127879E+02 -0.41833464714E+03 -0.21911871183E+03  0.48200024346E+03  0.90648867002E+02 0.  0.
         11    1    3    3    0    0  0.26138887197E+02 -0.53608946481E+02 -0.25677023816E+02  0.64934352378E+02  0.00000000000E+00 0.  1.
        -11    1    3    3    0    0 -0.59156015077E+02 -0.36472570066E+03 -0.19344168801E+03  0.41706589108E+03  0.00000000000E+00 0. -1.
         22    1    1    2    0    0  0.33017127879E+02  0.41833464714E+03  0.19464701766E+04  0.19911906379E+04  0.00000000000E+00 0. -1.
<mgrwt>
<rscale>  0 0.17700085E+04</rscale>
<asrwt>0</asrwt>
<pdfrwt beam="1">  1        1 0.32311863E+00 0.17700085E+04</pdfrwt>
<pdfrwt beam="2">  1       -1 0.57372264E-01 0.17700085E+04</pdfrwt>
<totfact> 0.74165405E+00</totfact>
</mgrwt>
</event>
<event>
 6    1  0.2236204E-005  0.7898902E+03  0.7818608E-02  0.9574767E-01
          1   -1    0    0  501    0  0.00000000000E+00  0.00000000000E+00  0.87693315477E+03  0.87693315477E+03  0.00000000000E+00 0. -1.
         -1   -1    0    0    0  501 -0.00000000000E+00 -0.00000000000E+00 -0.17787174911E+03  0.17787174911E+03  0.00000000000E+00 0.  1.
         23    2    1    2    0    0  0.31046825820E+02 -0.18436230815E+03 -0.10876793832E+03  0.22562361185E+03  0.64204234739E+02 0.  0.
         13    1    3    3    0    0  0.39112166393E+02 -0.52582672251E+02 -0.32475073949E+02  0.73139109983E+02  0.00000000000E+00 0.  1.
        -13    1    3    3    0    0 -0.80653405730E+01 -0.13177963590E+03 -0.76292864374E+02  0.15248450187E+03  0.00000000000E+00 0. -1.
         22    1    1    2    0    0 -0.31046825820E+02  0.18436230815E+03  0.80782934398E+03  0.82918129203E+03  0.00000000000E+00 0. -1.
<mgrwt>
<rscale>  0 0.78989021E+03</rscale>
<asrwt>0</asrwt>
<pdfrwt beam="1">  1        1 0.13491279E+00 0.78989021E+03</pdfrwt>
<pdfrwt beam="2">  1       -1 0.27364885E-01 0.78989021E+03</pdfrwt>
<totfact> 0.23006769E+02</totfact>
</mgrwt>
</event>
<event>
 6    1  0.2236204E-005  0.9903621E+03  0.7818608E-02  0.9319179E-01
         -2   -1    0    0    0  501 -0.00000000000E+00  0.00000000000E+00  0.15305595238E+03  0.15305595238E+03  0.00000000000E+00 0. -1.
          2   -1    0    0  501    0  0.00000000000E+00 -0.00000000000E+00 -0.16020564233E+04  0.16020564233E+04  0.00000000000E+00 0.  1.
         23    2    1    2    0    0 -0.14452181317E+03  0.45609630456E+03 -0.53396084197E+03  0.72253893224E+03  0.89654527630E+02 0.  0.
         11    1    3    3    0    0 -0.32890394990E+02  0.70919129530E+02 -0.14016035304E+03  0.16048746238E+03  0.00000000000E+00 0. -1.
        -11    1    3    3    0    0 -0.11163141818E+03  0.38517717503E+03 -0.39380048893E+03  0.56205146986E+03  0.00000000000E+00 0.  1.
         22    1    1    2    0    0  0.14452181317E+03 -0.45609630456E+03 -0.91503962892E+03  0.10325734434E+04  0.00000000000E+00 0.  1.
<mgrwt>
<rscale>  0 0.99036210E+03</rscale>
<asrwt>0</asrwt>
<pdfrwt beam="1">  1        2 0.24647022E+00 0.99036210E+03</pdfrwt>
<pdfrwt beam="2">  1       -2 0.23547070E-01 0.99036210E+03</pdfrwt>
<totfact> 0.17756317E+02</totfact>
</mgrwt>
</event>
<event>
 6    1  0.2236204E-005  0.3003323E+04  0.7818608E-02  0.8242783E-01
         -2   -1    0    0    0  501 -0.00000000000E+00  0.00000000000E+00  0.18969656495E+04  0.18969656495E+04  0.00000000000E+00 0.  1.
          2   -1    0    0  501    0  0.00000000000E+00 -0.00000000000E+00 -0.11887336704E+04  0.11887336704E+04  0.00000000000E+00 0. -1.
         23    2    1    2    0    0 -0.14952492624E+04 -0.65208872161E+02  0.24836160040E+03  0.15199715917E+04  0.92777159486E+02 0.  0.
         11    1    3    3    0    0 -0.12314148826E+04 -0.42816623932E+02  0.16996281946E+03  0.12438260475E+04  0.00000000000E+00 0.  1.
        -11    1    3    3    0    0 -0.26383437971E+03 -0.22392248229E+02  0.78398780937E+02  0.27614554414E+03  0.00000000000E+00 0. -1.
         22    1    1    2    0    0  0.14952492624E+04  0.65208872161E+02  0.45987037873E+03  0.15657277282E+04  0.00000000000E+00 0.  1.
<mgrwt>
<rscale>  0 0.30033228E+04</rscale>
<asrwt>0</asrwt>
<pdfrwt beam="1">  1        2 0.18288210E+00 0.30033228E+04</pdfrwt>
<pdfrwt beam="2">  1       -2 0.29184087E+00 0.30033228E+04</pdfrwt>
<totfact> 0.58695331E-01</totfact>
</mgrwt>
</event>
<event>
 6    1  0.2236204E-005  0.3701962E+04  0.7818608E-02  0.8067527E-01
         -2   -1    0    0    0  501 -0.00000000000E+00  0.00000000000E+00  0.10882394771E+04  0.10882394771E+04  0.00000000000E+00 0.  1.
          2   -1    0    0  501    0  0.00000000000E+00 -0.00000000000E+00 -0.31483249830E+04  0.31483249830E+04  0.00000000000E+00 0. -1.
         23    2    1    2    0    0  0.15435365555E+04 -0.10123063603E+04 -0.89056570190E+03  0.20513766336E+04  0.88145098333E+02 0.  0.
         11    1    3    3    0    0  0.48881776759E+03 -0.30865755295E+03 -0.23523740334E+03  0.62413855099E+03  0.00000000000E+00 0. -1.
        -11    1    3    3    0    0  0.10547187879E+04 -0.70364880738E+03 -0.65532829856E+03  0.14272380826E+04  0.00000000000E+00 0.  1.
         22    1    1    2    0    0 -0.15435365555E+04  0.10123063603E+04 -0.11695198040E+04  0.21851878265E+04  0.00000000000E+00 0. -1.
<mgrwt>
<rscale>  0 0.37019625E+04</rscale>
<asrwt>0</asrwt>
<pdfrwt beam="1">  1        2 0.48435768E+00 0.37019625E+04</pdfrwt>
<pdfrwt beam="2">  1       -2 0.16742146E+00 0.37019625E+04</pdfrwt>
<totfact> 0.25157799E-01</totfact>
</mgrwt>
</event>
<event>
 6    1  0.2236204E-005  0.4636997E+04  0.7818608E-02  0.7887082E-01
          2   -1    0    0  501    0  0.00000000000E+00  0.00000000000E+00  0.35690938958E+04  0.35690938958E+04  0.00000000000E+00 0. -1.
         -2   -1    0    0    0  501 -0.00000000000E+00 -0.00000000000E+00 -0.15061065931E+04  0.15061065931E+04  0.00000000000E+00 0.  1.
         23    2    1    2    0    0  0.17545904976E+03 -0.10666083724E+04  0.32757508392E+04  0.34506283318E+04  0.88617298582E+02 0.  0.
         13    1    3    3    0    0  0.10509862993E+03 -0.78446614646E+03  0.22925136860E+04  0.24252941796E+04  0.00000000000E+00 0.  1.
        -13    1    3    3    0    0  0.70360419836E+02 -0.28214222596E+03  0.98323715315E+03  0.10253341522E+04  0.00000000000E+00 0. -1.
         22    1    1    2    0    0 -0.17545904976E+03  0.10666083724E+04 -0.12127635364E+04  0.16245721571E+04  0.00000000000E+00 0.  1.
<mgrwt>
<rscale>  0 0.46369972E+04</rscale>
<asrwt>0</asrwt>
<pdfrwt beam="1">  1        2 0.54909136E+00 0.46369972E+04</pdfrwt>
<pdfrwt beam="2">  1       -2 0.23170871E+00 0.46369972E+04</pdfrwt>
<totfact> 0.45315441E-02</totfact>
</mgrwt>
</event>
<event>
 6    1  0.2236204E-005  0.9198477E+03  0.7818608E-02  0.9401105E-01
          2   -1    0    0  501    0  0.00000000000E+00  0.00000000000E+00  0.23226847477E+04  0.23226847477E+04  0.00000000000E+00 0.  1.
         -2   -1    0    0    0  501 -0.00000000000E+00 -0.00000000000E+00 -0.91071315167E+02  0.91071315167E+02  0.00000000000E+00 0. -1.
         23    2    1    2    0    0  0.15812500426E+03 -0.22691074984E+03  0.20759605586E+04  0.20963921983E+04  0.93573516440E+02 0.  0.
         13    1    3    3    0    0  0.10942567891E+03 -0.97881825750E+02  0.13007710414E+04  0.13090302262E+04  0.00000000000E+00 0.  1.
        -13    1    3    3    0    0  0.48699325349E+02 -0.12902892409E+03  0.77518951720E+03  0.78736197211E+03  0.00000000000E+00 0. -1.
         22    1    1    2    0    0 -0.15812500426E+03  0.22691074984E+03  0.15565287397E+03  0.31736386458E+03  0.00000000000E+00 0. -1.
<mgrwt>
<rscale>  0 0.91984771E+03</rscale>
<asrwt>0</asrwt>
<pdfrwt beam="1">  1        2 0.35733607E+00 0.91984771E+03</pdfrwt>
<pdfrwt beam="2">  1       -2 0.14010973E-01 0.91984771E+03</pdfrwt>
<totfact> 0.17590426E+02</totfact>
</mgrwt>
</event>
<event>
 6    1  0.2236204E-005  0.6636077E+03  0.7818608E-02  0.9781575E-01
          2   -1    0    0  501    0  0.00000000000E+00  0.00000000000E+00  0.15724470675E+04  0.15724470675E+04  0.00000000000E+00 0.  1.
         -2   -1    0    0    0  501 -0.00000000000E+00 -0.00000000000E+00 -0.70014302399E+02  0.70014302399E+02  0.00000000000E+00 0. -1.
         23    2    1    2    0    0 -0.74420348674E+02 -0.11890945301E+03  0.14925139679E+04  0.15018333896E+04  0.90706888039E+02 0.  0.
         11    1    3    3    0    0 -0.49316817789E+02 -0.88790305482E+02  0.13560493646E+04  0.13598476922E+04  0.00000000000E+00 0.  1.
        -11    1    3    3    0    0 -0.25103530885E+02 -0.30119147528E+02  0.13646460330E+03  0.14198569740E+03  0.00000000000E+00 0. -1.
         22    1    1    2    0    0  0.74420348674E+02  0.11890945301E+03  0.99187972650E+01  0.14062798033E+03  0.00000000000E+00 0. -1.
<mgrwt>
<rscale>  0 0.66360767E+03</rscale>
<asrwt>0</asrwt>
<pdfrwt beam="1">  1        2 0.24191491E+00 0.66360767E+03</pdfrwt>
<pdfrwt beam="2">  1       -2 0.10771432E-01 0.66360767E+03</pdfrwt>
<totfact> 0.71533628E+02</totfact>
</mgrwt>
</event>
<event>
 6    1  0.2236204E-005  0.1648287E+04  0.7818608E-02  0.8791421E-01
          2   -1    0    0  501    0  0.00000000000E+00  0.00000000000E+00  0.41895830460E+04  0.41895830460E+04  0.00000000000E+00 0. -1.
         -2   -1    0    0    0  501 -0.00000000000E+00 -0.00000000000E+00 -0.16211928737E+03  0.16211928737E+03  0.00000000000E+00 0.  1.
         23    2    1    2    0    0 -0.26211429470E+03 -0.60869690951E+03  0.33021912221E+04  0.33692380422E+04  0.89901539289E+02 0.  0.
         11    1    3    3    0    0 -0.16240255831E+03 -0.26919515097E+03  0.14842072168E+04  0.15171393089E+04  0.00000000000E+00 0. -1.
        -11    1    3    3    0    0 -0.99711736387E+02 -0.33950175853E+03  0.18179840053E+04  0.18520987333E+04  0.00000000000E+00 0.  1.
         22    1    1    2    0    0  0.26211429470E+03  0.60869690951E+03  0.72527253655E+03  0.98246429116E+03  0.00000000000E+00 0.  1.
<mgrwt>
<rscale>  0 0.16482866E+04</rscale>
<asrwt>0</asrwt>
<pdfrwt beam="1">  1        2 0.64455116E+00 0.16482866E+04</pdfrwt>
<pdfrwt beam="2">  1       -2 0.24941432E-01 0.16482866E+04</pdfrwt>
<totfact> 0.33413608E+00</totfact>
</mgrwt>
</event>
<event>
 6    1  0.2236204E-005  0.1384038E+04  0.7818608E-02  0.8965455E-01
          2   -1    0    0  501    0  0.00000000000E+00  0.00000000000E+00  0.79967689168E+03  0.79967689168E+03  0.00000000000E+00 0.  1.
         -2   -1    0    0    0  501 -0.00000000000E+00 -0.00000000000E+00 -0.59885450834E+03  0.59885450834E+03  0.00000000000E+00 0. -1.
         23    2    1    2    0    0 -0.11599879613E+03 -0.65927588141E+03  0.26637731293E+03  0.72592612402E+03  0.88946366887E+02 0.  0.
         13    1    3    3    0    0 -0.79610974600E+02 -0.24740880952E+03  0.12957287010E+03  0.29041032173E+03  0.00000000000E+00 0.  1.
        -13    1    3    3    0    0 -0.36387821526E+02 -0.41186707189E+03  0.13680444283E+03  0.43551580229E+03  0.00000000000E+00 0. -1.
         22    1    1    2    0    0  0.11599879613E+03  0.65927588141E+03 -0.65554929599E+02  0.67260527600E+03  0.00000000000E+00 0. -1.
<mgrwt>
<rscale>  0 0.13840377E+04</rscale>
<asrwt>0</asrwt>
<pdfrwt beam="1">  1        2 0.12302721E+00 0.13840377E+04</pdfrwt>
<pdfrwt beam="2">  1       -2 0.92131463E-01 0.13840377E+04</pdfrwt>
<totfact> 0.33628928E+01</totfact>
</mgrwt>
</event>
<event>
 6    1  0.2236204E-005  0.1082322E+04  0.7818608E-02  0.9222596E-01
         -2   -1    0    0    0  501 -0.00000000000E+00  0.00000000000E+00  0.27807312077E+03  0.27807312077E+03  0.00000000000E+00 0.  1.
          2   -1    0    0  501    0  0.00000000000E+00 -0.00000000000E+00 -0.10531586804E+04  0.10531586804E+04  0.00000000000E+00 0. -1.
         23    2    1    2    0    0 -0.43409942802E+03 -0.41392625843E+02 -0.77646171046E+03  0.89516121434E+03  0.90912864673E+02 0.  0.
         11    1    3    3    0    0 -0.27451037259E+03 -0.55304791098E+02 -0.42561843053E+03  0.50947582178E+03  0.00000000000E+00 0.  1.
        -11    1    3    3    0    0 -0.15958905543E+03  0.13912165255E+02 -0.35084327993E+03  0.38568539255E+03  0.00000000000E+00 0. -1.
         22    1    1    2    0    0  0.43409942802E+03  0.41392625843E+02  0.13761508673E+01  0.43607058680E+03  0.00000000000E+00 0.  1.
<mgrwt>
<rscale>  0 0.10823218E+04</rscale>
<asrwt>0</asrwt>
<pdfrwt beam="1">  1        2 0.16202441E+00 0.10823218E+04</pdfrwt>
<pdfrwt beam="2">  1       -2 0.42780480E-01 0.10823218E+04</pdfrwt>
<totfact> 0.11988990E+02</totfact>
</mgrwt>
</event>
<event>
 6    1  0.2236204E-005  0.3509671E+04  0.7818608E-02  0.8111502E-01
          2   -1    0    0  501    0  0.00000000000E+00  0.00000000000E+00  0.22636840622E+04  0.22636840622E+04  0.00000000000E+00 0. -1.
         -2   -1    0    0    0  501 -0.00000000000E+00 -0.00000000000E+00 -0.13603701942E+04  0.13603701942E+04  0.00000000000E+00 0.  1.
         23    2    1    2    0    0 -0.73773939431E+03  0.27804308388E+03 -0.11655729750E+04  0.14100397714E+04  0.89913437374E+02 0.  0.
         11    1    3    3    0    0 -0.36688843662E+03  0.90551547870E+02 -0.56351583537E+03  0.67849598706E+03  0.00000000000E+00 0. -1.
        -11    1    3    3    0    0 -0.37085095769E+03  0.18749153601E+03 -0.60205713968E+03  0.73154378429E+03  0.00000000000E+00 0.  1.
         22    1    1    2    0    0  0.73773939431E+03 -0.27804308388E+03  0.20688868431E+04  0.22140144850E+04  0.00000000000E+00 0. -1.
<mgrwt>
<rscale>  0 0.35096714E+04</rscale>
<asrwt>0</asrwt>
<pdfrwt beam="1">  1        2 0.34825909E+00 0.35096714E+04</pdfrwt>
<pdfrwt beam="2">  1       -2 0.20928772E+00 0.35096714E+04</pdfrwt>
<totfact> 0.45168848E-01</totfact>
</mgrwt>
</event>
<event>
 6    1  0.2236204E-005  0.3523156E+04  0.7818608E-02  0.8108324E-01
          2   -1    0    0  501    0  0.00000000000E+00  0.00000000000E+00  0.20535960083E+04  0.20535960083E+04  0.00000000000E+00 0. -1.
         -2   -1    0    0    0  501 -0.00000000000E+00 -0.00000000000E+00 -0.15110846413E+04  0.15110846413E+04  0.00000000000E+00 0.  1.
         23    2    1    2    0    0  0.13503573208E+04 -0.72043792805E+03 -0.60854437127E+03  0.16496284272E+04  0.91934726511E+02 0.  0.
         11    1    3    3    0    0  0.99078472377E+03 -0.57258951036E+03 -0.44388251814E+03  0.12274138691E+04  0.00000000000E+00 0.  1.
        -11    1    3    3    0    0  0.35957259705E+03 -0.14784841769E+03 -0.16466185313E+03  0.42221455806E+03  0.00000000000E+00 0. -1.
         22    1    1    2    0    0 -0.13503573208E+04  0.72043792805E+03  0.11510557382E+04  0.19150522224E+04  0.00000000000E+00 0. -1.
<mgrwt>
<rscale>  0 0.35231562E+04</rscale>
<asrwt>0</asrwt>
<pdfrwt beam="1">  1        2 0.31593785E+00 0.35231562E+04</pdfrwt>
<pdfrwt beam="2">  1       -2 0.23247456E+00 0.35231562E+04</pdfrwt>
<totfact> 0.42208536E-01</totfact>
</mgrwt>
</event>
<event>
 6    1  0.2236204E-005  0.4100890E+04  0.7818608E-02  0.7984497E-01
         -2   -1    0    0    0  501 -0.00000000000E+00  0.00000000000E+00  0.22738198317E+04  0.22738198317E+04  0.00000000000E+00 0.  1.
          2   -1    0    0  501    0  0.00000000000E+00 -0.00000000000E+00 -0.18490140412E+04  0.18490140412E+04  0.00000000000E+00 0. -1.
         23    2    1    2    0    0 -0.98440858563E+03 -0.17592105311E+04 -0.15911677142E+03  0.20240610138E+04  0.87309131741E+02 0.  0.
         11    1    3    3    0    0 -0.32288715927E+03 -0.55974237172E+03 -0.11062402608E+02  0.64628942206E+03  0.00000000000E+00 0.  1.
        -11    1    3    3    0    0 -0.66152142636E+03 -0.11994681593E+04 -0.14805436881E+03  0.13777715917E+04  0.00000000000E+00 0. -1.
         22    1    1    2    0    0  0.98440858563E+03  0.17592105311E+04  0.58392256196E+03  0.20987728592E+04  0.00000000000E+00 0. -1.
<mgrwt>
<rscale>  0 0.41008900E+04</rscale>
<asrwt>0</asrwt>
<pdfrwt beam="1">  1        2 0.28446370E+00 0.41008900E+04</pdfrwt>
<pdfrwt beam="2">  1       -2 0.34981844E+00 0.41008900E+04</pdfrwt>
<totfact> 0.98909557E-02</totfact>
</mgrwt>
</event>
<event>
 6    1  0.2236204E-005  0.1507168E+04  0.7818608E-02  0.8879701E-01
         -2   -1    0    0    0  501 -0.00000000000E+00  0.00000000000E+00  0.62582266376E+03  0.62582266376E+03  0.00000000000E+00 0.  1.
          2   -1    0    0  501    0  0.00000000000E+00 -0.00000000000E+00 -0.90742720378E+03  0.90742720378E+03  0.00000000000E+00 0. -1.
         23    2    1    2    0    0 -0.51597689074E+03 -0.41296949314E+03 -0.50368681080E+03  0.83604366487E+03  0.92155586670E+02 0.  0.
         13    1    3    3    0    0 -0.31462131387E+03 -0.19658144194E+03 -0.26101413343E+03  0.45360689182E+03  0.00000000000E+00 0. -1.
        -13    1    3    3    0    0 -0.20135557687E+03 -0.21638805121E+03 -0.24267267737E+03  0.38243677305E+03  0.00000000000E+00 0.  1.
         22    1    1    2    0    0  0.51597689074E+03  0.41296949314E+03  0.22208227078E+03  0.69720620267E+03  0.00000000000E+00 0.  1.
<mgrwt>
<rscale>  0 0.15071676E+04</rscale>
<asrwt>0</asrwt>
<pdfrwt beam="1">  1        2 0.13960418E+00 0.15071676E+04</pdfrwt>
<pdfrwt beam="2">  1       -2 0.96280410E-01 0.15071676E+04</pdfrwt>
<totfact> 0.25286869E+01</totfact>
</mgrwt>
</event>
<event>
 6    1  0.2236204E-005  0.3902454E+04  0.7818608E-02  0.8024519E-01
          2   -1    0    0  501    0  0.00000000000E+00  0.00000000000E+00  0.21468303049E+04  0.21468303049E+04  0.00000000000E+00 0. -1.
         -2   -1    0    0    0  501 -0.00000000000E+00 -0.00000000000E+00 -0.17734458200E+04  0.17734458200E+04  0.00000000000E+00 0.  1.
         23    2    1    2    0    0 -0.13233460591E+03 -0.12983283272E+04  0.16432710744E+04  0.20993475587E+04  0.61249121660E+02 0.  0.
         11    1    3    3    0    0 -0.66188021748E+02 -0.82355540374E+03  0.10776284736E+04  0.13579055506E+04  0.00000000000E+00 0.  1.
        -11    1    3    3    0    0 -0.66146584165E+02 -0.47477292347E+03  0.56564260080E+03  0.74144200804E+03  0.00000000000E+00 0. -1.
         22    1    1    2    0    0  0.13233460591E+03  0.12983283272E+04 -0.12698865895E+04  0.18209285663E+04  0.00000000000E+00 0.  1.
<mgrwt>
<rscale>  0 0.39024542E+04</rscale>
<asrwt>0</asrwt>
<pdfrwt beam="1">  1        2 0.33028159E+00 0.39024542E+04</pdfrwt>
<pdfrwt beam="2">  1       -2 0.27283782E+00 0.39024542E+04</pdfrwt>
<totfact> 0.20484412E-01</totfact>
</mgrwt>
</event>
<event>
 6    1  0.2236204E-005  0.1511353E+04  0.7818608E-02  0.8876938E-01
         -2   -1    0    0    0  501 -0.00000000000E+00  0.00000000000E+00  0.18004979588E+03  0.18004979588E+03  0.00000000000E+00 0.  1.
          2   -1    0    0  501    0  0.00000000000E+00 -0.00000000000E+00 -0.31716043474E+04  0.31716043474E+04  0.00000000000E+00 0. -1.
         23    2    1    2    0    0 -0.35575238794E+03 -0.18248233112E+03 -0.29160351397E+04  0.29447601224E+04  0.92150308370E+02 0.  0.
         13    1    3    3    0    0 -0.10046137680E+03 -0.12781760625E+02 -0.87313966360E+03  0.87899302260E+03  0.00000000000E+00 0.  1.
        -13    1    3    3    0    0 -0.25529101114E+03 -0.16970057049E+03 -0.20428954761E+04  0.20657670998E+04  0.00000000000E+00 0. -1.
         22    1    1    2    0    0  0.35575238794E+03  0.18248233112E+03 -0.75519411755E+02  0.40689402090E+03  0.00000000000E+00 0.  1.
<mgrwt>
<rscale>  0 0.15113527E+04</rscale>
<asrwt>0</asrwt>
<pdfrwt beam="1">  1        2 0.48793911E+00 0.15113527E+04</pdfrwt>
<pdfrwt beam="2">  1       -2 0.27699970E-01 0.15113527E+04</pdfrwt>
<totfact> 0.15677283E+01</totfact>
</mgrwt>
</event>
<event>
 6    1  0.2236204E-005  0.1669573E+04  0.7818608E-02  0.8778911E-01
         -2   -1    0    0    0  501 -0.00000000000E+00  0.00000000000E+00  0.40888678780E+03  0.40888678780E+03  0.00000000000E+00 0.  1.
          2   -1    0    0  501    0  0.00000000000E+00 -0.00000000000E+00 -0.17043070518E+04  0.17043070518E+04  0.00000000000E+00 0. -1.
         23    2    1    2    0    0 -0.17539954694E+03 -0.29141638813E+03  0.31193179658E+03  0.47024856996E+03  0.90242780864E+02 0.  0.
         11    1    3    3    0    0 -0.25940577061E+02 -0.12165995277E+03  0.13056192221E+03  0.18033433722E+03  0.00000000000E+00 0. -1.
        -11    1    3    3    0    0 -0.14945896988E+03 -0.16975643536E+03  0.18136987437E+03  0.28991423275E+03  0.00000000000E+00 0.  1.
         22    1    1    2    0    0  0.17539954694E+03  0.29141638813E+03 -0.16073520606E+04  0.16429452697E+04  0.00000000000E+00 0. -1.
<mgrwt>
<rscale>  0 0.16695732E+04</rscale>
<asrwt>0</asrwt>
<pdfrwt beam="1">  1        2 0.26220109E+00 0.16695732E+04</pdfrwt>
<pdfrwt beam="2">  1       -2 0.62905659E-01 0.16695732E+04</pdfrwt>
<totfact> 0.21784241E+01</totfact>
</mgrwt>
</event>
<event>
 6    1  0.2236204E-005  0.2943174E+04  0.7818608E-02  0.8260147E-01
          2   -1    0    0  501    0  0.00000000000E+00  0.00000000000E+00  0.23254483352E+04  0.23254483352E+04  0.00000000000E+00 0. -1.
         -2   -1    0    0    0  501 -0.00000000000E+00 -0.00000000000E+00 -0.93124768480E+03  0.93124768480E+03  0.00000000000E+00 0.  1.
         23    2    1    2    0    0 -0.61396276849E+03 -0.12286869897E+04  0.11791401665E+03  0.13817214678E+04  0.92889717484E+02 0.  0.
         11    1    3    3    0    0 -0.17177427777E+03 -0.30940517826E+03  0.68246576420E+02  0.36041026904E+03  0.00000000000E+00 0. -1.
        -11    1    3    3    0    0 -0.44218849072E+03 -0.91928181144E+03  0.49667440230E+02  0.10213111988E+04  0.00000000000E+00 0.  1.
         22    1    1    2    0    0  0.61396276849E+03  0.12286869897E+04  0.12762866337E+04  0.18749745521E+04  0.00000000000E+00 0. -1.
<mgrwt>
<rscale>  0 0.29431741E+04</rscale>
<asrwt>0</asrwt>
<pdfrwt beam="1">  1        2 0.35776128E+00 0.29431741E+04</pdfrwt>
<pdfrwt beam="2">  1       -2 0.14326888E+00 0.29431741E+04</pdfrwt>
<totfact> 0.12751696E+00</totfact>
</mgrwt>
</event>
<event>
 6    1  0.2236204E-005  0.1153527E+04  0.7818608E-02  0.9154536E-01
         -2   -1    0    0    0  501 -0.00000000000E+00  0.00000000000E+00  0.15193553339E+03  0.15193553339E+03  0.00000000000E+00 0.  1.
          2   -1    0    0  501    0  0.00000000000E+00 -0.00000000000E+00 -0.21894543393E+04  0.21894543393E+04  0.00000000000E+00 0. -1.
         23    2    1    2    0    0 -0.56635483015E+03 -0.67863179420E+02 -0.91113366802E+03  0.10788104955E+04  0.91128039189E+02 0.  0.
         13    1    3    3    0    0 -0.51342482233E+03 -0.62837579150E+02 -0.86761218690E+03  0.10101012407E+04  0.00000000000E+00 0. -1.
        -13    1    3    3    0    0 -0.52930007825E+02 -0.50256002704E+01 -0.43521481120E+02  0.68709254874E+02  0.00000000000E+00 0.  1.
         22    1    1    2    0    0  0.56635483015E+03  0.67863179420E+02 -0.11263851378E+04  0.12625793771E+04  0.00000000000E+00 0.  1.
<mgrwt>
<rscale>  0 0.11535266E+04</rscale>
<asrwt>0</asrwt>
<pdfrwt beam="1">  1        2 0.33683908E+00 0.11535266E+04</pdfrwt>
<pdfrwt beam="2">  1       -2 0.23374701E-01 0.11535266E+04</pdfrwt>
<totfact> 0.84211589E+01</totfact>
</mgrwt>
</event>
<event>
 6    1  0.2236204E-005  0.3495069E+04  0.7818608E-02  0.8114959E-01
         -2   -1    0    0    0  501 -0.00000000000E+00  0.00000000000E+00  0.24037452961E+04  0.24037452961E+04  0.00000000000E+00 0.  1.
          2   -1    0    0  501    0  0.00000000000E+00 -0.00000000000E+00 -0.12704661846E+04  0.12704661846E+04  0.00000000000E+00 0. -1.
         23    2    1    2    0    0  0.63541196932E+03  0.11261058989E+04  0.18010033667E+04  0.22189731678E+04  0.91465438679E+02 0.  0.
         13    1    3    3    0    0  0.49703261789E+03  0.83573984746E+03  0.12957403076E+04  0.16200140310E+04  0.00000000000E+00 0.  1.
        -13    1    3    3    0    0  0.13837935143E+03  0.29036605142E+03  0.50526305906E+03  0.59895913681E+03  0.00000000000E+00 0. -1.
         22    1    1    2    0    0 -0.63541196932E+03 -0.11261058989E+04 -0.66772425518E+03  0.14552383129E+04  0.00000000000E+00 0. -1.
<mgrwt>
<rscale>  0 0.34950692E+04</rscale>
<asrwt>0</asrwt>
<pdfrwt beam="1">  1        2 0.19545634E+00 0.34950692E+04</pdfrwt>
<pdfrwt beam="2">  1       -2 0.36980697E+00 0.34950692E+04</pdfrwt>
<totfact> 0.16455478E-01</totfact>
</mgrwt>
</event>
<event>
 6    1  0.2236204E-005  0.3070795E+04  0.7818608E-02  0.8223799E-01
         -2   -1    0    0    0  501 -0.00000000000E+00  0.00000000000E+00  0.93373144361E+03  0.93373144361E+03  0.00000000000E+00 0.  1.
          2   -1    0    0  501    0  0.00000000000E+00 -0.00000000000E+00 -0.25247577015E+04  0.25247577015E+04  0.00000000000E+00 0. -1.
         23    2    1    2    0    0 -0.13254486847E+03  0.85226690002E+03  0.63275204599E+03  0.10733021596E+04  0.87609149399E+02 0.  0.
         13    1    3    3    0    0 -0.11550545780E+02  0.14190704096E+03  0.14462363355E+03  0.20294585180E+03  0.00000000000E+00 0.  1.
        -13    1    3    3    0    0 -0.12099432269E+03  0.71035985906E+03  0.48812841244E+03  0.87035630780E+03  0.00000000000E+00 0. -1.
         22    1    1    2    0    0  0.13254486847E+03 -0.85226690002E+03 -0.22237783039E+04  0.23851869855E+04  0.00000000000E+00 0. -1.
<mgrwt>
<rscale>  0 0.30707951E+04</rscale>
<asrwt>0</asrwt>
<pdfrwt beam="1">  1        2 0.38842426E+00 0.30707951E+04</pdfrwt>
<pdfrwt beam="2">  1       -2 0.14365099E+00 0.30707951E+04</pdfrwt>
<totfact> 0.96225952E-01</totfact>
</mgrwt>
</event>
<event>
 6    1  0.2236204E-005  0.1580798E+04  0.7818608E-02  0.8832432E-01
         -2   -1    0    0    0  501 -0.00000000000E+00  0.00000000000E+00  0.12964855671E+03  0.12964855671E+03  0.00000000000E+00 0.  1.
          2   -1    0    0  501    0  0.00000000000E+00 -0.00000000000E+00 -0.48186482054E+04  0.48186482054E+04  0.00000000000E+00 0. -1.
         23    2    1    2    0    0  0.49875941610E+03 -0.59132094234E+03 -0.18833440451E+04  0.20379488829E+04  0.88484151793E+02 0.  0.
         11    1    3    3    0    0  0.47636310820E+03 -0.58488245943E+03 -0.18423449783E+04  0.19907898737E+04  0.00000000000E+00 0. -1.
        -11    1    3    3    0    0  0.22396307896E+02 -0.64384829106E+01 -0.40999066805E+02  0.47159009198E+02  0.00000000000E+00 0.  1.
         22    1    1    2    0    0 -0.49875941610E+03  0.59132094234E+03 -0.28056556036E+04  0.29103478792E+04  0.00000000000E+00 0. -1.
<mgrwt>
<rscale>  0 0.15807983E+04</rscale>
<asrwt>0</asrwt>
<pdfrwt beam="1">  1        2 0.74133049E+00 0.15807983E+04</pdfrwt>
<pdfrwt beam="2">  1       -2 0.19945932E-01 0.15807983E+04</pdfrwt>
<totfact> 0.12173256E+00</totfact>
</mgrwt>
</event>
<event>
 6    1  0.2236204E-005  0.5125255E+04  0.7818608E-02  0.7809471E-01
          2   -1    0    0  501    0  0.00000000000E+00  0.00000000000E+00  0.43650730363E+04  0.43650730363E+04  0.00000000000E+00 0.  1.
         -2   -1    0    0    0  501 -0.00000000000E+00 -0.00000000000E+00 -0.15044558701E+04  0.15044558701E+04  0.00000000000E+00 0. -1.
         23    2    1    2    0    0 -0.10340788535E+04 -0.16288328652E+04  0.33609170623E+04  0.38763616871E+04  0.89447481221E+02 0.  0.
         13    1    3    3    0    0 -0.56189309790E+03 -0.93669876168E+03  0.18321800887E+04  0.21330757842E+04  0.00000000000E+00 0. -1.
        -13    1    3    3    0    0 -0.47218575563E+03 -0.69213410348E+03  0.15287369735E+04  0.17432859029E+04  0.00000000000E+00 0.  1.
         22    1    1    2    0    0  0.10340788535E+04  0.16288328652E+04 -0.50029989606E+03  0.19931672193E+04  0.00000000000E+00 0. -1.
<mgrwt>
<rscale>  0 0.51252550E+04</rscale>
<asrwt>0</asrwt>
<pdfrwt beam="1">  1        2 0.67154969E+00 0.51252550E+04</pdfrwt>
<pdfrwt beam="2">  1       -2 0.23145475E+00 0.51252550E+04</pdfrwt>
<totfact> 0.99009490E-03</totfact>
</mgrwt>
</event>
<event>
 6    1  0.2236204E-005  0.8580895E+03  0.7818608E-02  0.9479543E-01
          2   -1    0    0  501    0  0.00000000000E+00  0.00000000000E+00  0.13379894346E+04  0.13379894346E+04  0.00000000000E+00 0. -1.
         -2   -1    0    0    0  501 -0.00000000000E+00 -0.00000000000E+00 -0.13757911454E+03  0.13757911454E+03  0.00000000000E+00 0.  1.
         23    2    1    2    0    0  0.32204975009E+03  0.11680465762E+03  0.17746929947E+03  0.39678789433E+03  0.92660192393E+02 0.  0.
         13    1    3    3    0    0  0.55119868105E+02  0.40350838893E+02  0.20252427262E+01  0.68340995511E+02  0.00000000000E+00 0. -1.
        -13    1    3    3    0    0  0.26692988198E+03  0.76453818731E+02  0.17544405675E+03  0.32844689882E+03  0.00000000000E+00 0.  1.
         22    1    1    2    0    0 -0.32204975009E+03 -0.11680465762E+03  0.10229410205E+04  0.10787806548E+04  0.00000000000E+00 0. -1.
<mgrwt>
<rscale>  0 0.85808951E+03</rscale>
<asrwt>0</asrwt>
<pdfrwt beam="1">  1        2 0.20584452E+00 0.85808951E+03</pdfrwt>
<pdfrwt beam="2">  1       -2 0.21166019E-01 0.85808951E+03</pdfrwt>
<totfact> 0.30483987E+02</totfact>
</mgrwt>
</event>
<event>
 6    1  0.2236204E-005  0.2859108E+04  0.7818608E-02  0.8285149E-01
          2   -1    0    0  501    0  0.00000000000E+00  0.00000000000E+00  0.19741304593E+04  0.19741304593E+04  0.00000000000E+00 0. -1.
         -2   -1    0    0    0  501 -0.00000000000E+00 -0.00000000000E+00 -0.10352024490E+04  0.10352024490E+04  0.00000000000E+00 0.  1.
         23    2    1    2    0    0 -0.11794410641E+04  0.35260222040E+03 -0.29197221308E+03  0.12684926199E+04  0.91739871293E+02 0.  0.
         13    1    3    3    0    0 -0.58745075572E+03  0.13279409829E+03 -0.16357011893E+03  0.62408961435E+03  0.00000000000E+00 0. -1.
        -13    1    3    3    0    0 -0.59199030841E+03  0.21980812211E+03 -0.12840209415E+03  0.64440300556E+03  0.00000000000E+00 0.  1.
         22    1    1    2    0    0  0.11794410641E+04 -0.35260222040E+03  0.12309002234E+04  0.17408402883E+04  0.00000000000E+00 0. -1.
<mgrwt>
<rscale>  0 0.28591080E+04</rscale>
<asrwt>0</asrwt>
<pdfrwt beam="1">  1        2 0.30371238E+00 0.28591080E+04</pdfrwt>
<pdfrwt beam="2">  1       -2 0.15926192E+00 0.28591080E+04</pdfrwt>
<totfact> 0.15256938E+00</totfact>
</mgrwt>
</event>
<event>
 6    1  0.2236204E-005  0.2823598E+04  0.7818608E-02  0.8295979E-01
          2   -1    0    0  501    0  0.00000000000E+00  0.00000000000E+00  0.15568985371E+04  0.15568985371E+04  0.00000000000E+00 0. -1.
         -2   -1    0    0    0  501 -0.00000000000E+00 -0.00000000000E+00 -0.12802226804E+04  0.12802226804E+04  0.00000000000E+00 0.  1.
         23    2    1    2    0    0  0.11402522734E+04  0.76277763931E+03  0.46696082348E+03  0.14521254260E+04  0.92794764524E+02 0.  0.
         11    1    3    3    0    0  0.31901881612E+03  0.19790140240E+03  0.86657061592E+02  0.38528874424E+03  0.00000000000E+00 0. -1.
        -11    1    3    3    0    0  0.82123345725E+03  0.56487623691E+03  0.38030376189E+03  0.10668366818E+04  0.00000000000E+00 0.  1.
         22    1    1    2    0    0 -0.11402522734E+04 -0.76277763931E+03 -0.19028496677E+03  0.13849957915E+04  0.00000000000E+00 0. -1.
<mgrwt>
<rscale>  0 0.28235983E+04</rscale>
<asrwt>0</asrwt>
<pdfrwt beam="1">  1        2 0.23952285E+00 0.28235983E+04</pdfrwt>
<pdfrwt beam="2">  1       -2 0.19695733E+00 0.28235983E+04</pdfrwt>
<totfact> 0.14264512E+00</totfact>
</mgrwt>
</event>
<event>
 6    1  0.2236204E-005  0.1434038E+04  0.7818608E-02  0.8929542E-01
          2   -1    0    0  501    0  0.00000000000E+00  0.00000000000E+00  0.10753925809E+04  0.10753925809E+04  0.00000000000E+00 0. -1.
         -2   -1    0    0    0  501 -0.00000000000E+00 -0.00000000000E+00 -0.47807331877E+03  0.47807331877E+03  0.00000000000E+00 0.  1.
         23    2    1    2    0    0 -0.44935780604E+02 -0.69085957791E+03  0.48909798801E+03  0.85273911627E+03  0.92956859740E+02 0.  0.
         13    1    3    3    0    0 -0.66565731931E+02 -0.32352414970E+03  0.24296440712E+03  0.41003728517E+03  0.00000000000E+00 0.  1.
        -13    1    3    3    0    0  0.21629951327E+02 -0.36733542822E+03  0.24613358089E+03  0.44270183110E+03  0.00000000000E+00 0. -1.
         22    1    1    2    0    0  0.44935780604E+02  0.69085957791E+03  0.10822127409E+03  0.70072678338E+03  0.00000000000E+00 0.  1.
<mgrwt>
<rscale>  0 0.14340384E+04</rscale>
<asrwt>0</asrwt>
<pdfrwt beam="1">  1        2 0.16544501E+00 0.14340384E+04</pdfrwt>
<pdfrwt beam="2">  1       -2 0.73549742E-01 0.14340384E+04</pdfrwt>
<totfact> 0.36538770E+01</totfact>
</mgrwt>
</event>
<event>
 6    1  0.2739688E-005  0.3322825E+04  0.7818608E-02  0.8157112E-01
          2   -1    0    0  501    0  0.00000000000E+00  0.00000000000E+00  0.14857250880E+04  0.14857250880E+04  0.00000000000E+00 0. -1.
         -2   -1    0    0    0  501 -0.00000000000E+00 -0.00000000000E+00 -0.18578745414E+04  0.18578745414E+04  0.00000000000E+00 0.  1.
         23    2    1    2    0    0 -0.36397229688E+03 -0.22280162892E+03  0.14281489514E+04  0.14934129509E+04  0.92500897022E+02 0.  0.
         13    1    3    3    0    0 -0.77613478642E+02 -0.64101502453E+02  0.22454247166E+03  0.24607351800E+03  0.00000000000E+00 0. -1.
        -13    1    3    3    0    0 -0.28635881824E+03 -0.15870012647E+03  0.12036064797E+04  0.12473394329E+04  0.00000000000E+00 0.  1.
         22    1    1    2    0    0  0.36397229688E+03  0.22280162892E+03 -0.18002984048E+04  0.18501866785E+04  0.00000000000E+00 0.  1.
<mgrwt>
<rscale>  0 0.33228246E+04</rscale>
<asrwt>0</asrwt>
<pdfrwt beam="1">  1        2 0.22857309E+00 0.33228246E+04</pdfrwt>
<pdfrwt beam="2">  1       -2 0.28582685E+00 0.33228246E+04</pdfrwt>
<totfact> 0.41829568E-01</totfact>
</mgrwt>
</event>
<event>
 6    1  0.2236204E-005  0.2091741E+04  0.7818608E-02  0.8564890E-01
         -2   -1    0    0    0  501 -0.00000000000E+00  0.00000000000E+00  0.10940821945E+04  0.10940821945E+04  0.00000000000E+00 0.  1.
          2   -1    0    0  501    0  0.00000000000E+00 -0.00000000000E+00 -0.99978310226E+03  0.99978310226E+03  0.00000000000E+00 0. -1.
         23    2    1    2    0    0  0.20241499716E+03 -0.86483891979E+02  0.10691747254E+04  0.10944485695E+04  0.78941645297E+02 0.  0.
         11    1    3    3    0    0  0.84875320996E+02 -0.44845808178E+02  0.29309239843E+03  0.30841225761E+03  0.00000000000E+00 0. -1.
        -11    1    3    3    0    0  0.11753967616E+03 -0.41638083802E+02  0.77608232694E+03  0.78603631193E+03  0.00000000000E+00 0.  1.
         22    1    1    2    0    0 -0.20241499716E+03  0.86483891979E+02 -0.97487563312E+03  0.99941672724E+03  0.00000000000E+00 0. -1.
<mgrwt>
<rscale>  0 0.20917408E+04</rscale>
<asrwt>0</asrwt>
<pdfrwt beam="1">  1        2 0.15381279E+00 0.20917408E+04</pdfrwt>
<pdfrwt beam="2">  1       -2 0.16832034E+00 0.20917408E+04</pdfrwt>
<totfact> 0.50900467E+00</totfact>
</mgrwt>
</event>
<event>
 6    1  0.2236204E-005  0.2014703E+04  0.7818608E-02  0.8599777E-01
         -2   -1    0    0    0  501 -0.00000000000E+00  0.00000000000E+00  0.84688677903E+03  0.84688677903E+03  0.00000000000E+00 0.  1.
          2   -1    0    0  501    0  0.00000000000E+00 -0.00000000000E+00 -0.11982206095E+04  0.11982206095E+04  0.00000000000E+00 0. -1.
         23    2    1    2    0    0  0.50873362602E+03  0.38531481958E+03  0.61260891502E+03  0.88905244648E+03  0.88584182509E+02 0.  0.
         13    1    3    3    0    0  0.29722471478E+03  0.22543192630E+03  0.41736932086E+03  0.55978498950E+03  0.00000000000E+00 0. -1.
        -13    1    3    3    0    0  0.21150891124E+03  0.15988289328E+03  0.19523959416E+03  0.32926745698E+03  0.00000000000E+00 0.  1.
         22    1    1    2    0    0 -0.50873362602E+03 -0.38531481958E+03 -0.96394274544E+03  0.11560549420E+04  0.00000000000E+00 0. -1.
<mgrwt>
<rscale>  0 0.20147031E+04</rscale>
<asrwt>0</asrwt>
<pdfrwt beam="1">  1        2 0.18434163E+00 0.20147031E+04</pdfrwt>
<pdfrwt beam="2">  1       -2 0.13029027E+00 0.20147031E+04</pdfrwt>
<totfact> 0.76100424E+00</totfact>
</mgrwt>
</event>
<event>
 6    1  0.2236204E-005  0.2429998E+04  0.7818608E-02  0.8428357E-01
          2   -1    0    0  501    0  0.00000000000E+00  0.00000000000E+00  0.14489873057E+04  0.14489873057E+04  0.00000000000E+00 0.  1.
         -2   -1    0    0    0  501 -0.00000000000E+00 -0.00000000000E+00 -0.10187964827E+04  0.10187964827E+04  0.00000000000E+00 0. -1.
         23    2    1    2    0    0  0.64003263080E+03 -0.57642109997E+03  0.10832562894E+04  0.13868593894E+04  0.89619889037E+02 0.  0.
         11    1    3    3    0    0  0.49963530516E+03 -0.42721033427E+03  0.76858770923E+03  0.10113709382E+04  0.00000000000E+00 0. -1.
        -11    1    3    3    0    0  0.14039732564E+03 -0.14921076570E+03  0.31466858015E+03  0.37548845119E+03  0.00000000000E+00 0.  1.
         22    1    1    2    0    0 -0.64003263080E+03  0.57642109997E+03 -0.65306546635E+03  0.10809243990E+04  0.00000000000E+00 0. -1.
<mgrwt>
<rscale>  0 0.24299985E+04</rscale>
<asrwt>0</asrwt>
<pdfrwt beam="1">  1        2 0.22292112E+00 0.24299985E+04</pdfrwt>
<pdfrwt beam="2">  1       -2 0.15673792E+00 0.24299985E+04</pdfrwt>
<totfact> 0.32426430E+00</totfact>
</mgrwt>
</event>
<event>
 6    1  0.2236204E-005  0.1141430E+04  0.7818608E-02  0.9165727E-01
          2   -1    0    0  501    0  0.00000000000E+00  0.00000000000E+00  0.88998665623E+03  0.88998665623E+03  0.00000000000E+00 0. -1.
         -2   -1    0    0    0  501 -0.00000000000E+00 -0.00000000000E+00 -0.36597793016E+03  0.36597793016E+03  0.00000000000E+00 0.  1.
         23    2    1    2    0    0 -0.23111936143E+02 -0.47268450512E+03 -0.80203097581E+02  0.48847730259E+03  0.90624143065E+02 0.  0.
         11    1    3    3    0    0 -0.33714369421E+02 -0.35903104103E+03 -0.24440014875E+02  0.36143776983E+03  0.00000000000E+00 0.  1.
        -11    1    3    3    0    0  0.10602433278E+02 -0.11365346409E+03 -0.55763082706E+02  0.12703953276E+03  0.00000000000E+00 0. -1.
         22    1    1    2    0    0  0.23111936143E+02  0.47268450512E+03  0.60421182365E+03  0.76748728381E+03  0.00000000000E+00 0. -1.
<mgrwt>
<rscale>  0 0.11414298E+04</rscale>
<asrwt>0</asrwt>
<pdfrwt beam="1">  1        2 0.13692102E+00 0.11414298E+04</pdfrwt>
<pdfrwt beam="2">  1       -2 0.56304297E-01 0.11414298E+04</pdfrwt>
<totfact> 0.87345270E+01</totfact>
</mgrwt>
</event>
<event>
 6    1  0.2236204E-005  0.2515339E+04  0.7818608E-02  0.8397541E-01
          4   -1    0    0  501    0  0.00000000000E+00  0.00000000000E+00  0.15833059966E+04  0.15833059966E+04  0.00000000000E+00 0. -1.
         -4   -1    0    0    0  501 -0.00000000000E+00 -0.00000000000E+00 -0.99900649590E+03  0.99900649590E+03  0.00000000000E+00 0.  1.
         23    2    1    2    0    0  0.10355746536E+04 -0.67934091314E+03  0.78128557790E+02  0.12443558553E+04  0.91643240973E+02 0.  0.
         13    1    3    3    0    0  0.31506278549E+03 -0.24491796597E+03 -0.33549647691E+01  0.39907471061E+03  0.00000000000E+00 0. -1.
        -13    1    3    3    0    0  0.72051186816E+03 -0.43442294716E+03  0.81483522559E+02  0.84528114472E+03  0.00000000000E+00 0.  1.
         22    1    1    2    0    0 -0.10355746536E+04  0.67934091314E+03  0.50617094292E+03  0.13379566372E+04  0.00000000000E+00 0. -1.
<mgrwt>
<rscale>  0 0.25153393E+04</rscale>
<asrwt>0</asrwt>
<pdfrwt beam="1">  1        4 0.24358554E+00 0.25153393E+04</pdfrwt>
<pdfrwt beam="2">  1       -4 0.15369331E+00 0.25153393E+04</pdfrwt>
<totfact> 0.34331920E-02</totfact>
</mgrwt>
</event>
<event>
 6    1  0.2236204E-005  0.1635613E+04  0.7818608E-02  0.8798963E-01
         -1   -1    0    0    0  501 -0.00000000000E+00  0.00000000000E+00  0.10332223103E+04  0.10332223103E+04  0.00000000000E+00 0.  1.
          1   -1    0    0  501    0  0.00000000000E+00 -0.00000000000E+00 -0.64730260089E+03  0.64730260089E+03  0.00000000000E+00 0. -1.
         23    2    1    2    0    0 -0.16180776397E+03  0.75685614233E+03 -0.69742042091E+02  0.78239318120E+03  0.90896451420E+02 0.  0.
         13    1    3    3    0    0 -0.56248191034E+02  0.39643291357E+03  0.32128596713E-01  0.40040344028E+03  0.00000000000E+00 0.  1.
        -13    1    3    3    0    0 -0.10555957294E+03  0.36042322876E+03 -0.69774170688E+02  0.38198974092E+03  0.00000000000E+00 0. -1.
         22    1    1    2    0    0  0.16180776397E+03 -0.75685614233E+03  0.45566175152E+03  0.89813173002E+03  0.00000000000E+00 0.  1.
<mgrwt>
<rscale>  0 0.16356130E+04</rscale>
<asrwt>0</asrwt>
<pdfrwt beam="1">  1        1 0.99585015E-01 0.16356130E+04</pdfrwt>
<pdfrwt beam="2">  1       -1 0.15895728E+00 0.16356130E+04</pdfrwt>
<totfact> 0.87258870E+00</totfact>
</mgrwt>
</event>
<event>
 6    1  0.2236204E-005  0.1944583E+04  0.7818608E-02  0.8632977E-01
         -2   -1    0    0    0  501 -0.00000000000E+00  0.00000000000E+00  0.28948778287E+03  0.28948778287E+03  0.00000000000E+00 0.  1.
          2   -1    0    0  501    0  0.00000000000E+00 -0.00000000000E+00 -0.32655974377E+04  0.32655974377E+04  0.00000000000E+00 0. -1.
         23    2    1    2    0    0 -0.69782456086E+03  0.13429608633E+03 -0.26987067049E+04  0.27922307435E+04  0.92412604438E+02 0.  0.
         11    1    3    3    0    0 -0.44842996266E+03  0.12044443029E+03 -0.16405039671E+04  0.17049485500E+04  0.00000000000E+00 0. -1.
        -11    1    3    3    0    0 -0.24939459820E+03  0.13851656038E+02 -0.10582027378E+04  0.10872821935E+04  0.00000000000E+00 0.  1.
         22    1    1    2    0    0  0.69782456086E+03 -0.13429608633E+03 -0.27740294996E+03  0.76285447707E+03  0.00000000000E+00 0.  1.
<mgrwt>
<rscale>  0 0.19445828E+04</rscale>
<asrwt>0</asrwt>
<pdfrwt beam="1">  1        2 0.50239961E+00 0.19445828E+04</pdfrwt>
<pdfrwt beam="2">  1       -2 0.44536582E-01 0.19445828E+04</pdfrwt>
<totfact> 0.52620965E+00</totfact>
</mgrwt>
</event>
<event>
 6    1  0.2236204E-005  0.2817758E+04  0.7818608E-02  0.8297776E-01
         -2   -1    0    0    0  501 -0.00000000000E+00  0.00000000000E+00  0.33098497894E+04  0.33098497894E+04  0.00000000000E+00 0.  1.
          2   -1    0    0  501    0  0.00000000000E+00 -0.00000000000E+00 -0.59970693711E+03  0.59970693711E+03  0.00000000000E+00 0. -1.
         23    2    1    2    0    0  0.53648710715E+03  0.27200367255E+03  0.31218926869E+04  0.31806243975E+04  0.91395818840E+02 0.  0.
         11    1    3    3    0    0  0.91424597831E+02  0.85629765493E+02  0.58665510016E+03  0.59987925483E+03  0.00000000000E+00 0. -1.
        -11    1    3    3    0    0  0.44506250932E+03  0.18637390706E+03  0.25352375867E+04  0.25807451427E+04  0.00000000000E+00 0.  1.
         22    1    1    2    0    0 -0.53648710715E+03 -0.27200367255E+03 -0.41174983456E+03  0.72893232901E+03  0.00000000000E+00 0. -1.
<mgrwt>
<rscale>  0 0.28177579E+04</rscale>
<asrwt>0</asrwt>
<pdfrwt beam="1">  1        2 0.92262608E-01 0.28177579E+04</pdfrwt>
<pdfrwt beam="2">  1       -2 0.50920765E+00 0.28177579E+04</pdfrwt>
<totfact> 0.62182180E-02</totfact>
</mgrwt>
</event>
<event>
 6    1  0.2236204E-005  0.4932630E+04  0.7818608E-02  0.7838984E-01
          2   -1    0    0  501    0  0.00000000000E+00  0.00000000000E+00  0.17404822444E+04  0.17404822444E+04  0.00000000000E+00 0. -1.
         -2   -1    0    0    0  501 -0.00000000000E+00 -0.00000000000E+00 -0.34948420861E+04  0.34948420861E+04  0.00000000000E+00 0.  1.
         23    2    1    2    0    0 -0.43466637369E+03  0.23111396213E+04 -0.16633756919E+04  0.28819056850E+04  0.90887180515E+02 0.  0.
         13    1    3    3    0    0 -0.12418922980E+03  0.62744797145E+03 -0.40398903917E+03  0.75651904500E+03  0.00000000000E+00 0. -1.
        -13    1    3    3    0    0 -0.31047714389E+03  0.16836916498E+04 -0.12593866527E+04  0.21253866400E+04  0.00000000000E+00 0.  1.
         22    1    1    2    0    0  0.43466637369E+03 -0.23111396213E+04 -0.90984149836E+02  0.23534186455E+04  0.00000000000E+00 0. -1.
<mgrwt>
<rscale>  0 0.49326304E+04</rscale>
<asrwt>0</asrwt>
<pdfrwt beam="1">  1        2 0.26776650E+00 0.49326304E+04</pdfrwt>
<pdfrwt beam="2">  1       -2 0.53766801E+00 0.49326304E+04</pdfrwt>
<totfact> 0.68246164E-03</totfact>
</mgrwt>
</event>
<event>
 6    1  0.2236204E-005  0.5690101E+04  0.7818608E-02  0.7730060E-01
         -2   -1    0    0    0  501 -0.00000000000E+00  0.00000000000E+00  0.28803542659E+04  0.28803542659E+04  0.00000000000E+00 0.  1.
          2   -1    0    0  501    0  0.00000000000E+00 -0.00000000000E+00 -0.28101792235E+04  0.28101792235E+04  0.00000000000E+00 0. -1.
         23    2    1    2    0    0  0.22575055654E+04 -0.14160128342E+02  0.17653799805E+04  0.28673700741E+04  0.93342269819E+02 0.  0.
         11    1    3    3    0    0  0.11547449512E+04 -0.52528154854E+02  0.91746836780E+03  0.14757856603E+04  0.00000000000E+00 0.  1.
        -11    1    3    3    0    0  0.11027606142E+04  0.38368026512E+02  0.84791161273E+03  0.13915844138E+04  0.00000000000E+00 0. -1.
         22    1    1    2    0    0 -0.22575055654E+04  0.14160128342E+02 -0.16952049382E+04  0.28231634153E+04  0.00000000000E+00 0. -1.
<mgrwt>
<rscale>  0 0.56901008E+04</rscale>
<asrwt>0</asrwt>
<pdfrwt beam="1">  1        2 0.43233526E+00 0.56901008E+04</pdfrwt>
<pdfrwt beam="2">  1       -2 0.44313143E+00 0.56901008E+04</pdfrwt>
<totfact> 0.60782227E-03</totfact>
</mgrwt>
</event>
<event>
 6    1  0.2236204E-005  0.3514083E+04  0.7818608E-02  0.8110460E-01
         -2   -1    0    0    0  501 -0.00000000000E+00  0.00000000000E+00  0.17070875338E+04  0.17070875338E+04  0.00000000000E+00 0.  1.
          2   -1    0    0  501    0  0.00000000000E+00 -0.00000000000E+00 -0.18084577231E+04  0.18084577231E+04  0.00000000000E+00 0. -1.
         23    2    1    2    0    0 -0.15717039120E+04  0.39383240744E+03  0.62634732868E+03  0.17393330122E+04  0.87242186879E+02 0.  0.
         11    1    3    3    0    0 -0.23249336293E+03  0.89095539881E+02  0.10644988253E+03  0.27078175072E+03  0.00000000000E+00 0.  1.
        -11    1    3    3    0    0 -0.13392105490E+04  0.30473686756E+03  0.51989744615E+03  0.14685512615E+04  0.00000000000E+00 0. -1.
         22    1    1    2    0    0  0.15717039120E+04 -0.39383240744E+03 -0.72771751797E+03  0.17762122446E+04  0.00000000000E+00 0. -1.
<mgrwt>
<rscale>  0 0.35140835E+04</rscale>
<asrwt>0</asrwt>
<pdfrwt beam="1">  1        2 0.27822426E+00 0.35140835E+04</pdfrwt>
<pdfrwt beam="2">  1       -2 0.26262885E+00 0.35140835E+04</pdfrwt>
<totfact> 0.37669341E-01</totfact>
</mgrwt>
</event>
<event>
 6    1  0.2236204E-005  0.2329245E+04  0.7818608E-02  0.8466479E-01
         -1   -1    0    0    0  501 -0.00000000000E+00  0.00000000000E+00  0.17486540744E+04  0.17486540744E+04  0.00000000000E+00 0.  1.
          1   -1    0    0  501    0  0.00000000000E+00 -0.00000000000E+00 -0.77565116945E+03  0.77565116945E+03  0.00000000000E+00 0. -1.
         23    2    1    2    0    0  0.12435566818E+03  0.11369959582E+04  0.71416391787E+03  0.13516067479E+04  0.92663684315E+02 0.  0.
         11    1    3    3    0    0  0.10874211187E+03  0.10747914909E+04  0.64931882288E+03  0.12604033202E+04  0.00000000000E+00 0. -1.
        -11    1    3    3    0    0  0.15613556310E+02  0.62204467263E+02  0.64845094987E+02  0.91203427742E+02  0.00000000000E+00 0.  1.
         22    1    1    2    0    0 -0.12435566818E+03 -0.11369959582E+04  0.25883898705E+03  0.11726984959E+04  0.00000000000E+00 0. -1.
<mgrwt>
<rscale>  0 0.23292450E+04</rscale>
<asrwt>0</asrwt>
<pdfrwt beam="1">  1        1 0.11933095E+00 0.23292450E+04</pdfrwt>
<pdfrwt beam="2">  1       -1 0.26902370E+00 0.23292450E+04</pdfrwt>
<totfact> 0.10980530E+00</totfact>
</mgrwt>
</event>
